 Gaussian 16, Revision A.03,
 Gaussian 16:  ES64L-G16RevA.03 25-Dec-2016

 ------------------
 #p CCSD(T)/cc-pVTZ
 ------------------

 -
 O
 -
 Symbolic Z-matrix:
 Charge =  0 Multiplicity = 3

                         Standard orientation:
 ---------------------------------------------------------------------
 Center     Atomic      Atomic             Coordinates (Angstroms)
 Number     Number       Type             X           Y           Z
 ---------------------------------------------------------------------
      1          8           0        0.000000    0.000000    0.000000
 ---------------------------------------------------------------------

 SCF Done:  E(UHF) =  -74.8117566051     A.U. after   10 cycles
 E2 =    -0.1431457153D+00 EUMP2 =    -0.74954902320396D+02
 CCSD(T)
 CCSD(T)= -0.74973961760D+02

 Unable to determine electronic state:  an orbital has unidentified symmetry.
 Alpha  occ. eigenvalues --  -20.70349  -1.41432  -0.70605  -0.70605  -0.60704
 Alpha virt. eigenvalues --    0.69738   0.69738   0.74236   0.88588   1.61134
 Alpha virt. eigenvalues --    1.61134   1.66061   1.66061   1.67819   3.93611
 Alpha virt. eigenvalues --    3.93611   4.01148   5.40873   5.40873   5.45696

  Beta  occ. eigenvalues --  -20.62573  -1.07404  -0.52000
  Beta virt. eigenvalues --    0.11210   0.11210   0.77257   0.87162   0.87162
  Beta virt. eigenvalues --    0.96804   1.74018   1.74761   1.74761   1.77493
  Beta virt. eigenvalues --    1.77493   4.05880   4.11443   4.11443   5.53085

 Mulliken charges and spin densities:
               1          2
     1  O    0.000000   2.000000
 Sum of Mulliken charges =   0.00000   2.00000

 Dipole moment (field-independent basis, Debye):
    X=              0.0000    Y=              0.0000    Z=              0.0000  Tot=              0.0000
 Quadrupole moment (field-independent basis, Debye-Ang):
   XX=             -5.7808   YY=             -4.5538   ZZ=             -4.5538
   XY=             -0.0000   XZ=              0.0000   YZ=              0.0000

 970716\CCSD=-74.9710503\CCSD(T)=-74.9739618\S2=2.0072\S2-1=2.000805\S2
 Normal termination of Gaussian 16 at Mon Feb 12 15:21:47 2024.
