 Gaussian 16, Revision A.03,
 Gaussian 16:  ES64L-G16RevA.03 25-Dec-2016

 ------------------
 #p CCSD(T)/cc-pVTZ
 ------------------

 ----
 O2_0
 ----
 Symbolic Z-matrix:
 Charge =  0 Multiplicity = 3

                         Standard orientation:
 ---------------------------------------------------------------------
 Center     Atomic      Atomic             Coordinates (Angstroms)
 Number     Number       Type             X           Y           Z
 ---------------------------------------------------------------------
      1          8           0        0.000000    0.000000    0.400000
      2          8           0        0.000000    0.000000   -0.400000
 ---------------------------------------------------------------------

 SCF Done:  E(UHF) =  -148.992307970     A.U. after   10 cycles
 E2 =    -0.3778217100D+00 EUMP2 =    -0.14937012967956D+03
 CCSD(T)
 CCSD(T)= -0.14939018804D+03

 The electronic state is 3-SGG.
 Alpha  occ. eigenvalues --  -20.69494 -20.68022  -2.20722  -1.10452  -1.10452
 Alpha  occ. eigenvalues --   -1.05012  -0.91179  -0.28032  -0.28032
 Alpha virt. eigenvalues --    0.47894   0.59870   0.59870   0.64651   0.83154
 Alpha virt. eigenvalues --    0.83154   0.88300   1.34357   1.36163   1.36163
 Alpha virt. eigenvalues --    1.67461   1.88520   1.88520   2.05760   2.05760

  Beta  occ. eigenvalues --  -20.65209 -20.63578  -2.14338  -0.91149  -0.91149
  Beta  occ. eigenvalues --   -0.85876  -0.81256
  Beta virt. eigenvalues --    0.33168   0.33168   0.49864   0.63092   0.63092
  Beta virt. eigenvalues --    0.65533   0.91289   0.95744   0.95744   1.38456
  Beta virt. eigenvalues --    1.40983   1.40983   1.75440   1.96920   1.96920

 Mulliken charges and spin densities:
               1          2
     1  O    0.000000   1.000000
     2  O    0.000000   1.000000
 Sum of Mulliken charges =   0.00000   2.00000

 Dipole moment (field-independent basis, Debye):
    X=              0.0000    Y=             -0.0000    Z=              0.0000  Tot=              0.0000
 Quadrupole moment (field-independent basis, Debye-Ang):
   XX=             -9.0072   YY=             -9.0072   ZZ=            -10.8554
   XY=              0.0000   XZ=              0.0000   YZ=              0.0000

 PMP3-0=-149.3810214\MP4SDQ=-149.3808906\CCSD=-149.3807584\CCSD(T)=-149
 Normal termination of Gaussian 16 at Fri Feb  9 17:47:35 2024.
