 Gaussian 16, Revision A.03,
 Gaussian 16:  ES64L-G16RevA.03 25-Dec-2016

 ------------------
 #p CCSD(T)/cc-pVTZ
 ------------------

 -----
 O2_10
 -----
 Symbolic Z-matrix:
 Charge =  0 Multiplicity = 3

                         Standard orientation:
 ---------------------------------------------------------------------
 Center     Atomic      Atomic             Coordinates (Angstroms)
 Number     Number       Type             X           Y           Z
 ---------------------------------------------------------------------
      1          8           0        0.000000    0.000000    0.550000
      2          8           0        0.000000    0.000000   -0.550000
 ---------------------------------------------------------------------

 SCF Done:  E(UHF) =  -149.671355092     A.U. after   10 cycles
 E2 =    -0.4137060805D+00 EUMP2 =    -0.15008506117203D+03
 CCSD(T)
 CCSD(T)= -0.15010634677D+03

 The electronic state is 3-SGG.
 Alpha  occ. eigenvalues --  -20.73040 -20.72925  -1.81294  -1.16304  -0.88285
 Alpha  occ. eigenvalues --   -0.88285  -0.79784  -0.50377  -0.50377
 Alpha virt. eigenvalues --    0.44407   0.67017   0.67017   0.71074   0.79695
 Alpha virt. eigenvalues --    0.79695   0.86406   0.87383   1.39603   1.42190
 Alpha virt. eigenvalues --    1.42190   1.61198   1.61198   1.90814   1.90814

  Beta  occ. eigenvalues --  -20.67727 -20.67541  -1.69799  -0.95641  -0.72630
  Beta  occ. eigenvalues --   -0.63204  -0.63204
  Beta virt. eigenvalues --    0.15829   0.15829   0.47967   0.71907   0.72759
  Beta virt. eigenvalues --    0.72759   0.89452   0.89501   0.89501   0.93024
  Beta virt. eigenvalues --    1.43728   1.47262   1.47262   1.67879   1.67879

 Mulliken charges and spin densities:
               1          2
     1  O    0.000000   1.000000
     2  O    0.000000   1.000000
 Sum of Mulliken charges =   0.00000   2.00000

 Dipole moment (field-independent basis, Debye):
    X=              0.0000    Y=              0.0000    Z=              0.0000  Tot=              0.0000
 Quadrupole moment (field-independent basis, Debye-Ang):
   XX=             -9.6906   YY=             -9.6906   ZZ=            -10.4840
   XY=              0.0000   XZ=              0.0000   YZ=              0.0000

 487\PMP3-0=-150.0894594\MP4SDQ=-150.0924531\CCSD=-150.0916278\CCSD(T)=
 Normal termination of Gaussian 16 at Fri Feb  9 17:49:30 2024.
