 Gaussian 16, Revision A.03,
 Gaussian 16:  ES64L-G16RevA.03 25-Dec-2016

 ------------------
 #p CCSD(T)/cc-pVTZ
 ------------------

 -----
 O2_15
 -----
 Symbolic Z-matrix:
 Charge =  0 Multiplicity = 3

                         Standard orientation:
 ---------------------------------------------------------------------
 Center     Atomic      Atomic             Coordinates (Angstroms)
 Number     Number       Type             X           Y           Z
 ---------------------------------------------------------------------
      1          8           0        0.000000    0.000000    0.625000
      2          8           0        0.000000    0.000000   -0.625000
 ---------------------------------------------------------------------

 SCF Done:  E(UHF) =  -149.665323722     A.U. after    9 cycles
 E2 =    -0.4441103957D+00 EUMP2 =    -0.15010943411770D+03
 CCSD(T)
 CCSD(T)= -0.15012726765D+03

 The electronic state is 3-SGG.
 Alpha  occ. eigenvalues --  -20.76052 -20.75997  -1.68120  -1.21944  -0.82717
 Alpha  occ. eigenvalues --   -0.82717  -0.74866  -0.57096  -0.57096
 Alpha virt. eigenvalues --    0.33922   0.68347   0.68347   0.70659   0.73687
 Alpha virt. eigenvalues --    0.78990   0.78990   0.88199   1.43165   1.45862
 Alpha virt. eigenvalues --    1.45862   1.51507   1.51507   1.84110   1.84110

  Beta  occ. eigenvalues --  -20.70564 -20.70461  -1.54492  -1.00694  -0.69194
  Beta  occ. eigenvalues --   -0.55604  -0.55604
  Beta virt. eigenvalues --    0.09231   0.09231   0.40072   0.74297   0.74858
  Beta virt. eigenvalues --    0.75671   0.75671   0.88100   0.88100   0.89826
  Beta virt. eigenvalues --    1.47304   1.51278   1.51278   1.56964   1.56964

 Mulliken charges and spin densities:
               1          2
     1  O   -0.000000   1.000000
     2  O   -0.000000   1.000000
 Sum of Mulliken charges =  -0.00000   2.00000

 Dipole moment (field-independent basis, Debye):
    X=              0.0000    Y=              0.0000    Z=             -0.0000  Tot=              0.0000
 Quadrupole moment (field-independent basis, Debye-Ang):
   XX=            -10.0188   YY=            -10.0188   ZZ=            -10.2442
   XY=              0.0000   XZ=              0.0000   YZ=              0.0000

 13\PMP3-0=-150.1024318\MP4SDQ=-150.1105884\CCSD=-150.108048\CCSD(T)=-1
 Normal termination of Gaussian 16 at Fri Feb  9 17:50:31 2024.
