 Gaussian 16, Revision A.03,
 Gaussian 16:  ES64L-G16RevA.03 25-Dec-2016

 ------------------
 #p CCSD(T)/cc-pVTZ
 ------------------

 -----
 O2_13
 -----
 Symbolic Z-matrix:
 Charge =  0 Multiplicity = 3

                         Standard orientation:
 ---------------------------------------------------------------------
 Center     Atomic      Atomic             Coordinates (Angstroms)
 Number     Number       Type             X           Y           Z
 ---------------------------------------------------------------------
      1          8           0        0.000000    0.000000    0.595000
      2          8           0        0.000000    0.000000   -0.595000
 ---------------------------------------------------------------------

 SCF Done:  E(UHF) =  -149.677734135     A.U. after   10 cycles
 E2 =    -0.4309156833D+00 EUMP2 =    -0.15010864981843D+03
 CCSD(T)
 CCSD(T)= -0.15012833035D+03

 The electronic state is 3-SGG.
 Alpha  occ. eigenvalues --  -20.74921 -20.74850  -1.72865  -1.19757  -0.84669
 Alpha  occ. eigenvalues --   -0.84669  -0.76823  -0.54693  -0.54693
 Alpha virt. eigenvalues --    0.39043   0.67966   0.67966   0.72711   0.74821
 Alpha virt. eigenvalues --    0.79228   0.79228   0.87771   1.42556   1.44346
 Alpha virt. eigenvalues --    1.44346   1.54949   1.54949   1.86665   1.86665

  Beta  occ. eigenvalues --  -20.69488 -20.69361  -1.60039  -0.98727  -0.70599
  Beta  occ. eigenvalues --   -0.58334  -0.58334
  Beta virt. eigenvalues --    0.11690   0.11690   0.44211   0.73729   0.74667
  Beta virt. eigenvalues --    0.74667   0.79646   0.88574   0.88574   0.89560
  Beta virt. eigenvalues --    1.46699   1.49611   1.49611   1.60911   1.60911

 Mulliken charges and spin densities:
               1          2
     1  O    0.000000   1.000000
     2  O    0.000000   1.000000
 Sum of Mulliken charges =   0.00000   2.00000

 Dipole moment (field-independent basis, Debye):
    X=              0.0000    Y=              0.0000    Z=              0.0000  Tot=              0.0000
 Quadrupole moment (field-independent basis, Debye-Ang):
   XX=             -9.8939   YY=             -9.8939   ZZ=            -10.3472
   XY=              0.0000   XZ=              0.0000   YZ=              0.0000

 381\PMP3-0=-150.1070711\MP4SDQ=-150.1127486\CCSD=-150.1110717\CCSD(T)=
 Normal termination of Gaussian 16 at Fri Feb  9 17:50:06 2024.
