 Gaussian 16, Revision A.03,
 Gaussian 16:  ES64L-G16RevA.03 25-Dec-2016

 ------------------
 #p CCSD(T)/cc-pVTZ
 ------------------

 ----
 O2_1
 ----
 Symbolic Z-matrix:
 Charge =  0 Multiplicity = 3

                         Standard orientation:
 ---------------------------------------------------------------------
 Center     Atomic      Atomic             Coordinates (Angstroms)
 Number     Number       Type             X           Y           Z
 ---------------------------------------------------------------------
      1          8           0        0.000000    0.000000    0.415000
      2          8           0        0.000000    0.000000   -0.415000
 ---------------------------------------------------------------------

 SCF Done:  E(UHF) =  -149.151343016     A.U. after   10 cycles
 E2 =    -0.3801621533D+00 EUMP2 =    -0.14953150516953D+03
 CCSD(T)
 CCSD(T)= -0.14955200757D+03

 The electronic state is 3-SGG.
 Alpha  occ. eigenvalues --  -20.69074 -20.67998  -2.16207  -1.07154  -1.07154
 Alpha  occ. eigenvalues --   -1.06002  -0.89731  -0.30880  -0.30880
 Alpha virt. eigenvalues --    0.47990   0.60921   0.60921   0.65340   0.82583
 Alpha virt. eigenvalues --    0.82583   0.88125   1.32672   1.36732   1.36732
 Alpha virt. eigenvalues --    1.59760   1.85682   1.85682   2.04386   2.04386

  Beta  occ. eigenvalues --  -20.64614 -20.63390  -2.09282  -0.87077  -0.87077
  Beta  occ. eigenvalues --   -0.86656  -0.79977
  Beta virt. eigenvalues --    0.31296   0.31296   0.49968   0.64288   0.64288
  Beta virt. eigenvalues --    0.66155   0.91047   0.94815   0.94815   1.36729
  Beta virt. eigenvalues --    1.41550   1.41550   1.67906   1.93954   1.93954

 Mulliken charges and spin densities:
               1          2
     1  O    0.000000   1.000000
     2  O    0.000000   1.000000
 Sum of Mulliken charges =   0.00000   2.00000

 Dipole moment (field-independent basis, Debye):
    X=              0.0000    Y=              0.0000    Z=             -0.0000  Tot=              0.0000
 Quadrupole moment (field-independent basis, Debye-Ang):
   XX=             -9.0615   YY=             -9.0615   ZZ=            -10.8077
   XY=              0.0000   XZ=              0.0000   YZ=              0.0000

 4\PMP3-0=-149.5424339\MP4SDQ=-149.5423503\CCSD=-149.5422231\CCSD(T)=-1
 Normal termination of Gaussian 16 at Fri Feb  9 17:47:46 2024.
