 Gaussian 16, Revision A.03,
 Gaussian 16:  ES64L-G16RevA.03 25-Dec-2016

 ------------------
 #p CCSD(T)/cc-pVTZ
 ------------------

 -----
 O2_19
 -----
 Symbolic Z-matrix:
 Charge =  0 Multiplicity = 3

                         Standard orientation:
 ---------------------------------------------------------------------
 Center     Atomic      Atomic             Coordinates (Angstroms)
 Number     Number       Type             X           Y           Z
 ---------------------------------------------------------------------
      1          8           0        0.000000    0.000000    0.685000
      2          8           0        0.000000    0.000000   -0.685000
 ---------------------------------------------------------------------

 SCF Done:  E(UHF) =  -149.619276759     A.U. after   10 cycles
 E2 =    -0.4744229983D+00 EUMP2 =    -0.15009369975690D+03
 CCSD(T)
 CCSD(T)= -0.15010546068D+03

 The electronic state is 3-SGG.
 Alpha  occ. eigenvalues --  -20.77959 -20.77923  -1.60480  -1.25920  -0.79673
 Alpha  occ. eigenvalues --   -0.79673  -0.71029  -0.60968  -0.60968
 Alpha virt. eigenvalues --    0.22764   0.67316   0.68589   0.68589   0.75356
 Alpha virt. eigenvalues --    0.78638   0.78638   0.89345   1.41288   1.46352
 Alpha virt. eigenvalues --    1.46352   1.48979   1.48979   1.79541   1.79541

  Beta  occ. eigenvalues --  -20.72403 -20.72331  -1.45482  -1.04318  -0.66247
  Beta  occ. eigenvalues --   -0.51112  -0.51112
  Beta virt. eigenvalues --    0.04967   0.04967   0.29745   0.69653   0.76862
  Beta virt. eigenvalues --    0.77038   0.77038   0.87399   0.87399   0.90745
  Beta virt. eigenvalues --    1.45294   1.50827   1.50827   1.54735   1.54735

 Mulliken charges and spin densities:
               1          2
     1  O    0.000000   1.000000
     2  O    0.000000   1.000000
 Sum of Mulliken charges =   0.00000   2.00000

 Dipole moment (field-independent basis, Debye):
    X=             -0.0000    Y=             -0.0000    Z=             -0.0000  Tot=              0.0000
 Quadrupole moment (field-independent basis, Debye-Ang):
   XX=            -10.2387   YY=            -10.2387   ZZ=            -10.0192
   XY=              0.0000   XZ=              0.0000   YZ=              0.0000

 Normal termination of Gaussian 16 at Fri Feb  9 17:51:18 2024.
