 Gaussian 16, Revision A.03,
 Gaussian 16:  ES64L-G16RevA.03 25-Dec-2016

 ------------------
 #p CCSD(T)/cc-pVTZ
 ------------------

 -----
 O2_11
 -----
 Symbolic Z-matrix:
 Charge =  0 Multiplicity = 3

                         Standard orientation:
 ---------------------------------------------------------------------
 Center     Atomic      Atomic             Coordinates (Angstroms)
 Number     Number       Type             X           Y           Z
 ---------------------------------------------------------------------
      1          8           0        0.000000    0.000000    0.565000
      2          8           0        0.000000    0.000000   -0.565000
 ---------------------------------------------------------------------

 SCF Done:  E(UHF) =  -149.677796570     A.U. after   10 cycles
 E2 =    -0.4190936236D+00 EUMP2 =    -0.15009689019369D+03
 CCSD(T)
 CCSD(T)= -0.15011777797D+03

 The electronic state is 3-SGG.
 Alpha  occ. eigenvalues --  -20.73686 -20.73589  -1.78302  -1.17472  -0.86977
 Alpha  occ. eigenvalues --   -0.86977  -0.78794  -0.51919  -0.51919
 Alpha virt. eigenvalues --    0.42980   0.67386   0.67386   0.71641   0.79522
 Alpha virt. eigenvalues --    0.79522   0.81761   0.87475   1.40766   1.42890
 Alpha virt. eigenvalues --    1.42890   1.58973   1.58973   1.89391   1.89391

  Beta  occ. eigenvalues --  -20.68328 -20.68165  -1.66348  -0.96683  -0.71960
  Beta  occ. eigenvalues --   -0.61464  -0.61464
  Beta virt. eigenvalues --    0.14387   0.14387   0.47030   0.72528   0.73448
  Beta virt. eigenvalues --    0.73448   0.87852   0.89159   0.89159   0.89448
  Beta virt. eigenvalues --    1.44886   1.48021   1.48021   1.65423   1.65423

 Mulliken charges and spin densities:
               1          2
     1  O   -0.000000   1.000000
     2  O   -0.000000   1.000000
 Sum of Mulliken charges =  -0.00000   2.00000

 Dipole moment (field-independent basis, Debye):
    X=              0.0000    Y=              0.0000    Z=              0.0000  Tot=              0.0000
 Quadrupole moment (field-independent basis, Debye-Ang):
   XX=             -9.7602   YY=             -9.7602   ZZ=            -10.4410
   XY=              0.0000   XZ=              0.0000   YZ=              0.0000

 8887\PMP3-0=-150.0995594\MP4SDQ=-150.1033247\CCSD=-150.102267\CCSD(T)=
 Normal termination of Gaussian 16 at Fri Feb  9 17:49:42 2024.
