 Gaussian 16, Revision A.03,
 Gaussian 16:  ES64L-G16RevA.03 25-Dec-2016

 ------------------
 #p CCSD(T)/cc-pVTZ
 ------------------

 -----
 O2_17
 -----
 Symbolic Z-matrix:
 Charge =  0 Multiplicity = 3

                         Standard orientation:
 ---------------------------------------------------------------------
 Center     Atomic      Atomic             Coordinates (Angstroms)
 Number     Number       Type             X           Y           Z
 ---------------------------------------------------------------------
      1          8           0        0.000000    0.000000    0.655000
      2          8           0        0.000000    0.000000   -0.655000
 ---------------------------------------------------------------------

 SCF Done:  E(UHF) =  -149.644851541     A.U. after   10 cycles
 E2 =    -0.4586323808D+00 EUMP2 =    -0.15010348392143D+03
 CCSD(T)
 CCSD(T)= -0.15011871555D+03

 The electronic state is 3-SGG.
 Alpha  occ. eigenvalues --  -20.77065 -20.77021  -1.64013  -1.24006  -0.81066
 Alpha  occ. eigenvalues --   -0.81066  -0.72930  -0.59174  -0.59174
 Alpha virt. eigenvalues --    0.28295   0.68419   0.68547   0.68547   0.74568
 Alpha virt. eigenvalues --    0.78797   0.78797   0.88734   1.42621   1.47415
 Alpha virt. eigenvalues --    1.47415   1.48646   1.48646   1.81735   1.81735

  Beta  occ. eigenvalues --  -20.71537 -20.71451  -1.49659  -1.02563  -0.67742
  Beta  occ. eigenvalues --   -0.53214  -0.53214
  Beta virt. eigenvalues --    0.06996   0.06996   0.35037   0.71235   0.75904
  Beta virt. eigenvalues --    0.76459   0.76459   0.87714   0.87714   0.90229
  Beta virt. eigenvalues --    1.46711   1.52996   1.52996   1.53600   1.53600

 Mulliken charges and spin densities:
               1          2
     1  O   -0.000000   1.000000
     2  O   -0.000000   1.000000
 Sum of Mulliken charges =  -0.00000   2.00000

 Dipole moment (field-independent basis, Debye):
    X=             -0.0000    Y=              0.0000    Z=              0.0000  Tot=              0.0000
 Quadrupole moment (field-independent basis, Debye-Ang):
   XX=            -10.1339   YY=            -10.1339   ZZ=            -10.1340
   XY=              0.0000   XZ=              0.0000   YZ=              0.0000

 925\PMP3-0=-150.089729\MP4SDQ=-150.1010279\CCSD=-150.0973372\CCSD(T)=-
 Normal termination of Gaussian 16 at Fri Feb  9 17:50:54 2024.
