 Gaussian 16, Revision A.03,
 Gaussian 16:  ES64L-G16RevA.03 25-Dec-2016

 ------------------
 #p CCSD(T)/cc-pVTZ
 ------------------

 -----
 O2_12
 -----
 Symbolic Z-matrix:
 Charge =  0 Multiplicity = 3

                         Standard orientation:
 ---------------------------------------------------------------------
 Center     Atomic      Atomic             Coordinates (Angstroms)
 Number     Number       Type             X           Y           Z
 ---------------------------------------------------------------------
      1          8           0        0.000000    0.000000    0.580000
      2          8           0        0.000000    0.000000   -0.580000
 ---------------------------------------------------------------------

 SCF Done:  E(UHF) =  -149.679643213     A.U. after   10 cycles
 E2 =    -0.4248309496D+00 EUMP2 =    -0.15010447416217D+03
 CCSD(T)
 CCSD(T)= -0.15012483125D+03

 The electronic state is 3-SGG.
 Alpha  occ. eigenvalues --  -20.74315 -20.74232  -1.75494  -1.18625  -0.85774
 Alpha  occ. eigenvalues --   -0.85774  -0.77808  -0.53355  -0.53355
 Alpha virt. eigenvalues --    0.41190   0.67702   0.67702   0.72187   0.77904
 Alpha virt. eigenvalues --    0.79367   0.79367   0.87605   1.41786   1.43610
 Alpha virt. eigenvalues --    1.43610   1.56889   1.56889   1.88007   1.88007

  Beta  occ. eigenvalues --  -20.68917 -20.68773  -1.63096  -0.97713  -0.71284
  Beta  occ. eigenvalues --   -0.59844  -0.59844
  Beta virt. eigenvalues --    0.13008   0.13008   0.45790   0.73137   0.74084
  Beta virt. eigenvalues --    0.74084   0.83381   0.88851   0.88851   0.89484
  Beta virt. eigenvalues --    1.45917   1.48805   1.48805   1.63098   1.63098

 Mulliken charges and spin densities:
               1          2
     1  O    0.000000   1.000000
     2  O    0.000000   1.000000
 Sum of Mulliken charges =   0.00000   2.00000

 Dipole moment (field-independent basis, Debye):
    X=              0.0000    Y=             -0.0000    Z=              0.0000  Tot=              0.0000
 Quadrupole moment (field-independent basis, Debye-Ang):
   XX=             -9.8280   YY=             -9.8280   ZZ=            -10.3954
   XY=              0.0000   XZ=              0.0000   YZ=              0.0000

 7734\PMP3-0=-150.105157\MP4SDQ=-150.1098133\CCSD=-150.1084736\CCSD(T)=
 Normal termination of Gaussian 16 at Fri Feb  9 17:49:54 2024.
