 Gaussian 16, Revision A.03,
 Gaussian 16:  ES64L-G16RevA.03 25-Dec-2016

 ------------------
 #p CCSD(T)/cc-pVTZ
 ------------------

 -----
 O2_18
 -----
 Symbolic Z-matrix:
 Charge =  0 Multiplicity = 3

                         Standard orientation:
 ---------------------------------------------------------------------
 Center     Atomic      Atomic             Coordinates (Angstroms)
 Number     Number       Type             X           Y           Z
 ---------------------------------------------------------------------
      1          8           0        0.000000    0.000000    0.670000
      2          8           0        0.000000    0.000000   -0.670000
 ---------------------------------------------------------------------

 SCF Done:  E(UHF) =  -149.632556517     A.U. after   10 cycles
 E2 =    -0.4663730778D+00 EUMP2 =    -0.15009892959506D+03
 CCSD(T)
 CCSD(T)= -0.15011254129D+03

 The electronic state is 3-SGG.
 Alpha  occ. eigenvalues --  -20.77527 -20.77487  -1.62179  -1.24982  -0.80340
 Alpha  occ. eigenvalues --   -0.80340  -0.71974  -0.60104  -0.60104
 Alpha virt. eigenvalues --    0.25492   0.67763   0.68586   0.68586   0.74973
 Alpha virt. eigenvalues --    0.78714   0.78714   0.89033   1.42028   1.47429
 Alpha virt. eigenvalues --    1.47429   1.48197   1.48197   1.80615   1.80615

  Beta  occ. eigenvalues --  -20.71983 -20.71905  -1.47493  -1.03455  -0.66999
  Beta  occ. eigenvalues --   -0.52129  -0.52129
  Beta virt. eigenvalues --    0.05957   0.05957   0.32388   0.70304   0.76394
  Beta virt. eigenvalues --    0.76774   0.76774   0.87549   0.87549   0.90475
  Beta virt. eigenvalues --    1.46079   1.52139   1.52139   1.53865   1.53865

 Mulliken charges and spin densities:
               1          2
     1  O    0.000000   1.000000
     2  O    0.000000   1.000000
 Sum of Mulliken charges =   0.00000   2.00000

 Dipole moment (field-independent basis, Debye):
    X=              0.0000    Y=             -0.0000    Z=             -0.0000  Tot=              0.0000
 Quadrupole moment (field-independent basis, Debye-Ang):
   XX=            -10.1876   YY=            -10.1876   ZZ=            -10.0770
   XY=              0.0000   XZ=              0.0000   YZ=              0.0000

 756\PMP3-0=-150.0812504\MP4SDQ=-150.0944021\CCSD=-150.0900171\CCSD(T)=
 Normal termination of Gaussian 16 at Fri Feb  9 17:51:06 2024.
