 Gaussian 16, Revision A.03,
 Gaussian 16:  ES64L-G16RevA.03 25-Dec-2016

 ------------------
 #p CCSD(T)/cc-pVTZ
 ------------------

 ------
 O2_100
 ------
 Symbolic Z-matrix:
 Charge =  0 Multiplicity = 3

                         Standard orientation:
 ---------------------------------------------------------------------
 Center     Atomic      Atomic             Coordinates (Angstroms)
 Number     Number       Type             X           Y           Z
 ---------------------------------------------------------------------
      1          8           0        0.000000    0.000000    1.900000
      2          8           0        0.000000    0.000000   -1.900000
 ---------------------------------------------------------------------

 SCF Done:  E(UHF) =  -149.016034867     A.U. after   11 cycles
 E2 =    -0.1793199239D+01 EUMP2 =    -0.15080923410566D+03
 CCSD(T)
 CCSD(T)= -0.14996151693D+03

 The electronic state is 3-SGG.
 Alpha  occ. eigenvalues --  -20.80110 -20.80109  -1.39361  -1.39074  -0.70510
 Alpha  occ. eigenvalues --   -0.70510  -0.70455  -0.70455  -0.40442
 Alpha virt. eigenvalues --   -0.25097   0.68686   0.69224   0.69224   0.70721
 Alpha virt. eigenvalues --    0.70721   0.79373   0.86935   0.89842   1.63617
 Alpha virt. eigenvalues --    1.63617   1.63618   1.63618   1.64762   1.64762

  Beta  occ. eigenvalues --  -20.74935 -20.74931  -1.20023  -1.19414  -0.36257
  Beta  occ. eigenvalues --   -0.30621  -0.30621
  Beta virt. eigenvalues --   -0.20606  -0.16783  -0.16783   0.70558   0.77954
  Beta virt. eigenvalues --    0.77954   0.79409   0.79409   0.81284   0.90834
  Beta virt. eigenvalues --    0.93818   1.67983   1.68398   1.68790   1.68790

 Mulliken charges and spin densities:
               1          2
     1  O   -0.000000   1.000000
     2  O   -0.000000   1.000000
 Sum of Mulliken charges =  -0.00000   2.00000

 Dipole moment (field-independent basis, Debye):
    X=              0.0000    Y=             -0.0000    Z=             -0.0000  Tot=              0.0000
 Quadrupole moment (field-independent basis, Debye-Ang):
   XX=            -10.7759   YY=            -10.7759   ZZ=             -9.5887
   XY=             -0.0000   XZ=             -0.0000   YZ=              0.0000

 Normal termination of Gaussian 16 at Fri Feb  9 18:09:10 2024.
