 Gaussian 16, Revision A.03,
 Gaussian 16:  ES64L-G16RevA.03 25-Dec-2016

 ------------------
 #p CCSD(T)/cc-pVTZ
 ------------------

 -----
 O2_16
 -----
 Symbolic Z-matrix:
 Charge =  0 Multiplicity = 3

                         Standard orientation:
 ---------------------------------------------------------------------
 Center     Atomic      Atomic             Coordinates (Angstroms)
 Number     Number       Type             X           Y           Z
 ---------------------------------------------------------------------
      1          8           0        0.000000    0.000000    0.640000
      2          8           0        0.000000    0.000000   -0.640000
 ---------------------------------------------------------------------

 SCF Done:  E(UHF) =  -149.655884894     A.U. after   10 cycles
 E2 =    -0.4512089300D+00 EUMP2 =    -0.15010709382418D+03
 CCSD(T)
 CCSD(T)= -0.15012372802D+03

 The electronic state is 3-SGG.
 Alpha  occ. eigenvalues --  -20.76574 -20.76525  -1.65991  -1.22992  -0.81857
 Alpha  occ. eigenvalues --   -0.81857  -0.73894  -0.58173  -0.58173
 Alpha virt. eigenvalues --    0.31128   0.68469   0.68469   0.69354   0.74139
 Alpha virt. eigenvalues --    0.78889   0.78889   0.88455   1.43017   1.46635
 Alpha virt. eigenvalues --    1.46635   1.50004   1.50004   1.82900   1.82900

  Beta  occ. eigenvalues --  -20.71064 -20.70970  -1.51990  -1.01641  -0.68474
  Beta  occ. eigenvalues --   -0.54370  -0.54370
  Beta virt. eigenvalues --    0.08087   0.08087   0.37625   0.72531   0.75392
  Beta virt. eigenvalues --    0.76092   0.76092   0.87897   0.87897   0.90012
  Beta virt. eigenvalues --    1.47137   1.52133   1.52133   1.55208   1.55208

 Mulliken charges and spin densities:
               1          2
     1  O    0.000000   1.000000
     2  O    0.000000   1.000000
 Sum of Mulliken charges =   0.00000   2.00000

 Dipole moment (field-independent basis, Debye):
    X=              0.0000    Y=             -0.0000    Z=             -0.0000  Tot=              0.0000
 Quadrupole moment (field-independent basis, Debye-Ang):
   XX=            -10.0777   YY=            -10.0777   ZZ=            -10.1898
   XY=              0.0000   XZ=              0.0000   YZ=              0.0000

 692\PMP3-0=-150.0968912\MP4SDQ=-150.1065296\CCSD=-150.1034523\CCSD(T)=
 Normal termination of Gaussian 16 at Fri Feb  9 17:50:43 2024.
