 Gaussian 16, Revision A.03,
 Gaussian 16:  ES64L-G16RevA.03 25-Dec-2016

 ------------------
 #p CCSD(T)/cc-pVTZ
 ------------------

 -----
 O2_23
 -----
 Symbolic Z-matrix:
 Charge =  0 Multiplicity = 3

                         Standard orientation:
 ---------------------------------------------------------------------
 Center     Atomic      Atomic             Coordinates (Angstroms)
 Number     Number       Type             X           Y           Z
 ---------------------------------------------------------------------
      1          8           0        0.000000    0.000000    0.745000
      2          8           0        0.000000    0.000000   -0.745000
 ---------------------------------------------------------------------

 SCF Done:  E(UHF) =  -149.560393393     A.U. after   10 cycles
 E2 =    -0.5095561648D+00 EUMP2 =    -0.15006994955754D+03
 CCSD(T)
 CCSD(T)= -0.15007176278D+03

 The electronic state is 3-SGG.
 Alpha  occ. eigenvalues --  -20.79418 -20.79391  -1.54889  -1.29267  -0.77511
 Alpha  occ. eigenvalues --   -0.77511  -0.67379  -0.63852  -0.63852
 Alpha virt. eigenvalues --    0.13047   0.66769   0.68296   0.68296   0.76689
 Alpha virt. eigenvalues --    0.78384   0.78384   0.90641   1.37597   1.43410
 Alpha virt. eigenvalues --    1.43410   1.52028   1.52028   1.75683   1.75683

  Beta  occ. eigenvalues --  -20.73833 -20.73779  -1.38823  -1.07455  -0.63196
  Beta  occ. eigenvalues --   -0.47620  -0.47620
  Beta virt. eigenvalues --    0.01448   0.01448   0.19973   0.68709   0.77611
  Beta virt. eigenvalues --    0.77611   0.78514   0.86921   0.86921   0.91985
  Beta virt. eigenvalues --    1.41409   1.47076   1.47076   1.58137   1.58137

 Mulliken charges and spin densities:
               1          2
     1  O    0.000000   1.000000
     2  O    0.000000   1.000000
 Sum of Mulliken charges =   0.00000   2.00000

 Dipole moment (field-independent basis, Debye):
    X=              0.0000    Y=             -0.0000    Z=              0.0000  Tot=              0.0000
 Quadrupole moment (field-independent basis, Debye-Ang):
   XX=            -10.4167   YY=            -10.4167   ZZ=             -9.7861
   XY=              0.0000   XZ=              0.0000   YZ=              0.0000

 336\PMP3-0=-150.0263407\MP4SDQ=-150.0521848\CCSD=-150.0429981\CCSD(T)=
 Normal termination of Gaussian 16 at Fri Feb  9 17:52:09 2024.
