 Gaussian 16, Revision A.03,
 Gaussian 16:  ES64L-G16RevA.03 25-Dec-2016

 ------------------
 #p CCSD(T)/cc-pVTZ
 ------------------

 -----
 O2_20
 -----
 Symbolic Z-matrix:
 Charge =  0 Multiplicity = 3

                         Standard orientation:
 ---------------------------------------------------------------------
 Center     Atomic      Atomic             Coordinates (Angstroms)
 Number     Number       Type             X           Y           Z
 ---------------------------------------------------------------------
      1          8           0        0.000000    0.000000    0.700000
      2          8           0        0.000000    0.000000   -0.700000
 ---------------------------------------------------------------------

 SCF Done:  E(UHF) =  -149.605243048     A.U. after   10 cycles
 E2 =    -0.4827740316D+00 EUMP2 =    -0.15008801707998D+03
 CCSD(T)
 CCSD(T)= -0.15009768377D+03

 The electronic state is 3-SGG.
 Alpha  occ. eigenvalues --  -20.78363 -20.78330  -1.58910  -1.26818  -0.79060
 Alpha  occ. eigenvalues --   -0.79060  -0.70095  -0.61771  -0.61771
 Alpha virt. eigenvalues --    0.20142   0.67026   0.68558   0.68558   0.75718
 Alpha virt. eigenvalues --    0.78568   0.78568   0.89668   1.40443   1.45413
 Alpha virt. eigenvalues --    1.45413   1.49757   1.49757   1.78511   1.78511

  Beta  occ. eigenvalues --  -20.72797 -20.72730  -1.43618  -1.05150  -0.65489
  Beta  occ. eigenvalues --   -0.50157  -0.50157
  Beta virt. eigenvalues --    0.04024   0.04024   0.27156   0.69213   0.77251
  Beta virt. eigenvalues --    0.77251   0.77307   0.87263   0.87263   0.91036
  Beta virt. eigenvalues --    1.44402   1.49664   1.49664   1.55601   1.55601

 Mulliken charges and spin densities:
               1          2
     1  O   -0.000000   1.000000
     2  O   -0.000000   1.000000
 Sum of Mulliken charges =  -0.00000   2.00000

 Dipole moment (field-independent basis, Debye):
    X=             -0.0000    Y=              0.0000    Z=             -0.0000  Tot=              0.0000
 Quadrupole moment (field-independent basis, Debye-Ang):
   XX=            -10.2871   YY=            -10.2871   ZZ=             -9.9609
   XY=              0.0000   XZ=              0.0000   YZ=              0.0000

 26\PMP3-0=-150.0612913\MP4SDQ=-150.0787843\CCSD=-150.0727536\CCSD(T)=-
 Normal termination of Gaussian 16 at Fri Feb  9 17:51:31 2024.
