 Gaussian 16, Revision A.03,
 Gaussian 16:  ES64L-G16RevA.03 25-Dec-2016

 ------------------
 #p CCSD(T)/cc-pVTZ
 ------------------

 -----
 O2_21
 -----
 Symbolic Z-matrix:
 Charge =  0 Multiplicity = 3

                         Standard orientation:
 ---------------------------------------------------------------------
 Center     Atomic      Atomic             Coordinates (Angstroms)
 Number     Number       Type             X           Y           Z
 ---------------------------------------------------------------------
      1          8           0        0.000000    0.000000    0.715000
      2          8           0        0.000000    0.000000   -0.715000
 ---------------------------------------------------------------------

 SCF Done:  E(UHF) =  -149.590648096     A.U. after   10 cycles
 E2 =    -0.4914182171D+00 EUMP2 =    -0.15008206631282D+03
 CCSD(T)
 CCSD(T)= -0.15008938373D+03

 The electronic state is 3-SGG.
 Alpha  occ. eigenvalues --  -20.78741 -20.78709  -1.57460  -1.27676  -0.78498
 Alpha  occ. eigenvalues --   -0.78498  -0.69175  -0.62516  -0.62516
 Alpha virt. eigenvalues --    0.17644   0.66856   0.68496   0.68496   0.76059
 Alpha virt. eigenvalues --    0.78503   0.78503   0.89994   1.39529   1.44611
 Alpha virt. eigenvalues --    1.44611   1.50526   1.50526   1.77525   1.77525

  Beta  occ. eigenvalues --  -20.73166 -20.73104  -1.41892  -1.05951  -0.64726
  Beta  occ. eigenvalues --   -0.49259  -0.49259
  Beta virt. eigenvalues --    0.03124   0.03124   0.24653   0.68933   0.77416
  Beta virt. eigenvalues --    0.77416   0.77730   0.87139   0.87139   0.91343
  Beta virt. eigenvalues --    1.43439   1.48651   1.48651   1.56459   1.56459

 Mulliken charges and spin densities:
               1          2
     1  O   -0.000000   1.000000
     2  O   -0.000000   1.000000
 Sum of Mulliken charges =  -0.00000   2.00000

 Dipole moment (field-independent basis, Debye):
    X=             -0.0000    Y=              0.0000    Z=              0.0000  Tot=              0.0000
 Quadrupole moment (field-independent basis, Debye-Ang):
   XX=            -10.3329   YY=            -10.3329   ZZ=             -9.9024
   XY=              0.0000   XZ=              0.0000   YZ=              0.0000

 Normal termination of Gaussian 16 at Fri Feb  9 17:51:44 2024.
