 Gaussian 16, Revision A.03,
 Gaussian 16:  ES64L-G16RevA.03 25-Dec-2016

 ------------------
 #p CCSD(T)/cc-pVTZ
 ------------------

 -----
 O2_27
 -----
 Symbolic Z-matrix:
 Charge =  0 Multiplicity = 3

                         Standard orientation:
 ---------------------------------------------------------------------
 Center     Atomic      Atomic             Coordinates (Angstroms)
 Number     Number       Type             X           Y           Z
 ---------------------------------------------------------------------
      1          8           0        0.000000    0.000000    0.805000
      2          8           0        0.000000    0.000000   -0.805000
 ---------------------------------------------------------------------

 SCF Done:  E(UHF) =  -149.498717747     A.U. after   10 cycles
 E2 =    -0.5490553890D+00 EUMP2 =    -0.15004777313640D+03
 CCSD(T)
 CCSD(T)= -0.15003514083D+03

 The electronic state is 3-SGG.
 Alpha  occ. eigenvalues --  -20.80500 -20.80480  -1.50864  -1.31964  -0.75986
 Alpha  occ. eigenvalues --   -0.75986  -0.65998  -0.65998  -0.63999
 Alpha virt. eigenvalues --    0.05399   0.67196   0.67669   0.67669   0.77777
 Alpha virt. eigenvalues --    0.78173   0.78173   0.91759   1.33733   1.42571
 Alpha virt. eigenvalues --    1.42571   1.54799   1.54799   1.72497   1.72497

  Beta  occ. eigenvalues --  -20.74910 -20.74868  -1.33982  -1.10081  -0.60180
  Beta  occ. eigenvalues --   -0.44872  -0.44872
  Beta virt. eigenvalues --   -0.01469  -0.01469   0.12042   0.69044   0.77532
  Beta virt. eigenvalues --    0.77532   0.79876   0.86573   0.86573   0.93234
  Beta virt. eigenvalues --    1.37369   1.45711   1.45711   1.61242   1.61242

 Mulliken charges and spin densities:
               1          2
     1  O   -0.000000   1.000000
     2  O   -0.000000   1.000000
 Sum of Mulliken charges =  -0.00000   2.00000

 Dipole moment (field-independent basis, Debye):
    X=             -0.0000    Y=             -0.0000    Z=             -0.0000  Tot=              0.0000
 Quadrupole moment (field-independent basis, Debye-Ang):
   XX=            -10.5552   YY=            -10.5552   ZZ=             -9.5621
   XY=              0.0000   XZ=              0.0000   YZ=              0.0000

 8811\PMP3-0=-149.97452\MP4SDQ=-150.0157967\CCSD=-150.0009992\CCSD(T)=-
 Normal termination of Gaussian 16 at Fri Feb  9 17:52:58 2024.
