 Gaussian 16, Revision A.03,
 Gaussian 16:  ES64L-G16RevA.03 25-Dec-2016

 ------------------
 #p CCSD(T)/cc-pVTZ
 ------------------

 -----
 O2_22
 -----
 Symbolic Z-matrix:
 Charge =  0 Multiplicity = 3

                         Standard orientation:
 ---------------------------------------------------------------------
 Center     Atomic      Atomic             Coordinates (Angstroms)
 Number     Number       Type             X           Y           Z
 ---------------------------------------------------------------------
      1          8           0        0.000000    0.000000    0.730000
      2          8           0        0.000000    0.000000   -0.730000
 ---------------------------------------------------------------------

 SCF Done:  E(UHF) =  -149.575653152     A.U. after   10 cycles
 E2 =    -0.5003479539D+00 EUMP2 =    -0.15007600110616D+03
 CCSD(T)
 CCSD(T)= -0.15008070377D+03

 The electronic state is 3-SGG.
 Alpha  occ. eigenvalues --  -20.79092 -20.79063  -1.56122  -1.28492  -0.77983
 Alpha  occ. eigenvalues --   -0.77983  -0.68269  -0.63209  -0.63209
 Alpha virt. eigenvalues --    0.15278   0.66777   0.68408   0.68408   0.76382
 Alpha virt. eigenvalues --    0.78442   0.78442   0.90321   1.38573   1.43944
 Alpha virt. eigenvalues --    1.43944   1.51284   1.51284   1.76583   1.76583

  Beta  occ. eigenvalues --  -20.73511 -20.73453  -1.40297  -1.06719  -0.63961
  Beta  occ. eigenvalues --   -0.48414  -0.48414
  Beta virt. eigenvalues --    0.02266   0.02266   0.22255   0.68774   0.77536
  Beta virt. eigenvalues --    0.77536   0.78132   0.87025   0.87025   0.91661
  Beta virt. eigenvalues --    1.42434   1.47788   1.47788   1.57306   1.57306

 Mulliken charges and spin densities:
               1          2
     1  O    0.000000   1.000000
     2  O    0.000000   1.000000
 Sum of Mulliken charges =   0.00000   2.00000

 Dipole moment (field-independent basis, Debye):
    X=              0.0000    Y=             -0.0000    Z=              0.0000  Tot=              0.0000
 Quadrupole moment (field-independent basis, Debye-Ang):
   XX=            -10.3761   YY=            -10.3761   ZZ=             -9.8441
   XY=              0.0000   XZ=              0.0000   YZ=              0.0000

 44\PMP3-0=-150.0384908\MP4SDQ=-150.0612815\CCSD=-150.053242\CCSD(T)=-1
 Normal termination of Gaussian 16 at Fri Feb  9 17:51:57 2024.
