 Gaussian 16, Revision A.03,
 Gaussian 16:  ES64L-G16RevA.03 25-Dec-2016

 ------------------
 #p CCSD(T)/cc-pVTZ
 ------------------

 ----
 O2_2
 ----
 Symbolic Z-matrix:
 Charge =  0 Multiplicity = 3

                         Standard orientation:
 ---------------------------------------------------------------------
 Center     Atomic      Atomic             Coordinates (Angstroms)
 Number     Number       Type             X           Y           Z
 ---------------------------------------------------------------------
      1          8           0        0.000000    0.000000    0.430000
      2          8           0        0.000000    0.000000   -0.430000
 ---------------------------------------------------------------------

 SCF Done:  E(UHF) =  -149.279459188     A.U. after   10 cycles
 E2 =    -0.3827134689D+00 EUMP2 =    -0.14966217265725D+03
 CCSD(T)
 CCSD(T)= -0.14968306349D+03

 The electronic state is 3-SGG.
 Alpha  occ. eigenvalues --  -20.68984 -20.68190  -2.11746  -1.07048  -1.04180
 Alpha  occ. eigenvalues --   -1.04180  -0.88400  -0.33593  -0.33593
 Alpha virt. eigenvalues --    0.48021   0.61882   0.61882   0.66016   0.82085
 Alpha virt. eigenvalues --    0.82085   0.87945   1.30727   1.37291   1.37291
 Alpha virt. eigenvalues --    1.52191   1.82791   1.82791   2.02937   2.02937

  Beta  occ. eigenvalues --  -20.64372 -20.63440  -2.04283  -0.87518  -0.83392
  Beta  occ. eigenvalues --   -0.83392  -0.78856
  Beta virt. eigenvalues --    0.29423   0.29423   0.50026   0.65430   0.65430
  Beta virt. eigenvalues --    0.66780   0.90788   0.93967   0.93967   1.34879
  Beta virt. eigenvalues --    1.42112   1.42112   1.60321   1.90927   1.90927

 Mulliken charges and spin densities:
               1          2
     1  O    0.000000   1.000000
     2  O    0.000000   1.000000
 Sum of Mulliken charges =   0.00000   2.00000

 Dipole moment (field-independent basis, Debye):
    X=              0.0000    Y=             -0.0000    Z=             -0.0000  Tot=              0.0000
 Quadrupole moment (field-independent basis, Debye-Ang):
   XX=             -9.1223   YY=             -9.1223   ZZ=            -10.7670
   XY=              0.0000   XZ=              0.0000   YZ=              0.0000

 986\PMP3-0=-149.6730185\MP4SDQ=-149.6730248\CCSD=-149.6728943\CCSD(T)=
 Normal termination of Gaussian 16 at Fri Feb  9 17:47:58 2024.
