 Gaussian 16, Revision A.03,
 Gaussian 16:  ES64L-G16RevA.03 25-Dec-2016

 ------------------
 #p CCSD(T)/cc-pVTZ
 ------------------

 -----
 O2_29
 -----
 Symbolic Z-matrix:
 Charge =  0 Multiplicity = 3

                         Standard orientation:
 ---------------------------------------------------------------------
 Center     Atomic      Atomic             Coordinates (Angstroms)
 Number     Number       Type             X           Y           Z
 ---------------------------------------------------------------------
      1          8           0        0.000000    0.000000    0.835000
      2          8           0        0.000000    0.000000   -0.835000
 ---------------------------------------------------------------------

 SCF Done:  E(UHF) =  -149.468493275     A.U. after   10 cycles
 E2 =    -0.5703407133D+00 EUMP2 =    -0.15003883398794D+03
 CCSD(T)
 CCSD(T)= -0.15001718159D+03

 The electronic state is 3-SGG.
 Alpha  occ. eigenvalues --  -20.80922 -20.80904  -1.49306  -1.33085  -0.75403
 Alpha  occ. eigenvalues --   -0.75403  -0.66853  -0.66853  -0.62426
 Alpha virt. eigenvalues --    0.02257   0.67288   0.67288   0.67581   0.78072
 Alpha virt. eigenvalues --    0.78072   0.78264   0.92146   1.31916   1.42882
 Alpha virt. eigenvalues --    1.42882   1.56031   1.56031   1.71139   1.71139

  Beta  occ. eigenvalues --  -20.75335 -20.75298  -1.32091  -1.11211  -0.58725
  Beta  occ. eigenvalues --   -0.43718  -0.43718
  Beta virt. eigenvalues --   -0.02740  -0.02740   0.08748   0.69428   0.77306
  Beta virt. eigenvalues --    0.77306   0.80485   0.86427   0.86427   0.93749
  Beta virt. eigenvalues --    1.35477   1.45875   1.45875   1.62626   1.62626

 Mulliken charges and spin densities:
               1          2
     1  O   -0.000000   1.000000
     2  O   -0.000000   1.000000
 Sum of Mulliken charges =  -0.00000   2.00000

 Dipole moment (field-independent basis, Debye):
    X=             -0.0000    Y=              0.0000    Z=             -0.0000  Tot=              0.0000
 Quadrupole moment (field-independent basis, Debye-Ang):
   XX=            -10.6111   YY=            -10.6111   ZZ=             -9.4573
   XY=              0.0000   XZ=             -0.0000   YZ=              0.0000

 7\PMP3-0=-149.9472617\MP4SDQ=-149.9985698\CCSD=-149.9802906\CCSD(T)=-1
 Normal termination of Gaussian 16 at Fri Feb  9 17:53:22 2024.
