 Gaussian 16, Revision A.03,
 Gaussian 16:  ES64L-G16RevA.03 25-Dec-2016

 ------------------
 #p CCSD(T)/cc-pVTZ
 ------------------

 -----
 O2_24
 -----
 Symbolic Z-matrix:
 Charge =  0 Multiplicity = 3

                         Standard orientation:
 ---------------------------------------------------------------------
 Center     Atomic      Atomic             Coordinates (Angstroms)
 Number     Number       Type             X           Y           Z
 ---------------------------------------------------------------------
      1          8           0        0.000000    0.000000    0.760000
      2          8           0        0.000000    0.000000   -0.760000
 ---------------------------------------------------------------------

 SCF Done:  E(UHF) =  -149.544982257     A.U. after   10 cycles
 E2 =    -0.5190364102D+00 EUMP2 =    -0.15006401866748D+03
 CCSD(T)
 CCSD(T)= -0.15006265978D+03

 The electronic state is 3-SGG.
 Alpha  occ. eigenvalues --  -20.79721 -20.79696  -1.53753  -1.30001  -0.77078
 Alpha  occ. eigenvalues --   -0.77078  -0.66507  -0.64450  -0.64450
 Alpha virt. eigenvalues --    0.10948   0.66816   0.68163   0.68163   0.76980
 Alpha virt. eigenvalues --    0.78329   0.78329   0.90950   1.36615   1.43009
 Alpha virt. eigenvalues --    1.43009   1.52754   1.52754   1.74825   1.74825

  Beta  occ. eigenvalues --  -20.74132 -20.74082  -1.37463  -1.08159  -0.62433
  Beta  occ. eigenvalues --   -0.46871  -0.46871
  Beta virt. eigenvalues --    0.00668   0.00668   0.17812   0.68717   0.77646
  Beta virt. eigenvalues --    0.77646   0.78878   0.86825   0.86825   0.92310
  Beta virt. eigenvalues --    1.40380   1.46514   1.46514   1.58950   1.58950

 Mulliken charges and spin densities:
               1          2
     1  O   -0.000000   1.000000
     2  O   -0.000000   1.000000
 Sum of Mulliken charges =  -0.00000   2.00000

 Dipole moment (field-independent basis, Debye):
    X=             -0.0000    Y=             -0.0000    Z=             -0.0000  Tot=              0.0000
 Quadrupole moment (field-independent basis, Debye-Ang):
   XX=            -10.4549   YY=            -10.4549   ZZ=             -9.7287
   XY=              0.0000   XZ=              0.0000   YZ=              0.0000

 Normal termination of Gaussian 16 at Fri Feb  9 17:52:21 2024.
