 Gaussian 16, Revision A.03,
 Gaussian 16:  ES64L-G16RevA.03 25-Dec-2016

 ------------------
 #p CCSD(T)/cc-pVTZ
 ------------------

 -----
 O2_26
 -----
 Symbolic Z-matrix:
 Charge =  0 Multiplicity = 3

                         Standard orientation:
 ---------------------------------------------------------------------
 Center     Atomic      Atomic             Coordinates (Angstroms)
 Number     Number       Type             X           Y           Z
 ---------------------------------------------------------------------
      1          8           0        0.000000    0.000000    0.790000
      2          8           0        0.000000    0.000000   -0.790000
 ---------------------------------------------------------------------

 SCF Done:  E(UHF) =  -149.514071232     A.U. after   10 cycles
 E2 =    -0.5387907305D+00 EUMP2 =    -0.15005286196257D+03
 CCSD(T)
 CCSD(T)= -0.15004428521D+03

 The electronic state is 3-SGG.
 Alpha  occ. eigenvalues --  -20.80261 -20.80239  -1.51748  -1.31348  -0.76319
 Alpha  occ. eigenvalues --   -0.76319  -0.65520  -0.65520  -0.64816
 Alpha virt. eigenvalues --    0.07130   0.67038   0.67847   0.67847   0.77522
 Alpha virt. eigenvalues --    0.78224   0.78224   0.91515   1.34676   1.42592
 Alpha virt. eigenvalues --    1.42592   1.54141   1.54141   1.73233   1.73233

  Beta  occ. eigenvalues --  -20.74670 -20.74626  -1.35050  -1.09472  -0.60923
  Beta  occ. eigenvalues --   -0.45500  -0.45500
  Beta virt. eigenvalues --   -0.00789  -0.00789   0.13849   0.68895   0.77603
  Beta virt. eigenvalues --    0.77603   0.79557   0.86651   0.86651   0.92940
  Beta virt. eigenvalues --    1.38353   1.45834   1.45834   1.60505   1.60505

 Mulliken charges and spin densities:
               1          2
     1  O   -0.000000   1.000000
     2  O   -0.000000   1.000000
 Sum of Mulliken charges =  -0.00000   2.00000

 Dipole moment (field-independent basis, Debye):
    X=             -0.0000    Y=             -0.0000    Z=             -0.0000  Tot=              0.0000
 Quadrupole moment (field-independent basis, Debye-Ang):
   XX=            -10.5241   YY=            -10.5241   ZZ=             -9.6165
   XY=              0.0000   XZ=              0.0000   YZ=              0.0000

 84\PMP3-0=-149.9878559\MP4SDQ=-150.0247405\CCSD=-150.0115066\CCSD(T)=-
 Normal termination of Gaussian 16 at Fri Feb  9 17:52:45 2024.
