 Gaussian 16, Revision A.03,
 Gaussian 16:  ES64L-G16RevA.03 25-Dec-2016

 ------------------
 #p CCSD(T)/cc-pVTZ
 ------------------

 -----
 O2_37
 -----
 Symbolic Z-matrix:
 Charge =  0 Multiplicity = 3

                         Standard orientation:
 ---------------------------------------------------------------------
 Center     Atomic      Atomic             Coordinates (Angstroms)
 Number     Number       Type             X           Y           Z
 ---------------------------------------------------------------------
      1          8           0        0.000000    0.000000    0.955000
      2          8           0        0.000000    0.000000   -0.955000
 ---------------------------------------------------------------------

 SCF Done:  E(UHF) =  -149.358465229     A.U. after   11 cycles
 E2 =    -0.6651743311D+00 EUMP2 =    -0.15002363955966D+03
 CCSD(T)
 CCSD(T)= -0.14995383961D+03

 The electronic state is 3-SGG.
 Alpha  occ. eigenvalues --  -20.81988 -20.81976  -1.45152  -1.36316  -0.73849
 Alpha  occ. eigenvalues --   -0.73849  -0.69220  -0.69220  -0.56952
 Alpha virt. eigenvalues --   -0.06979   0.65738   0.65738   0.69632   0.77611
 Alpha virt. eigenvalues --    0.77611   0.80071   0.91318   1.25682   1.47670
 Alpha virt. eigenvalues --    1.47670   1.52320   1.59775   1.59775   1.67105

  Beta  occ. eigenvalues --  -20.76438 -20.76414  -1.26961  -1.14672  -0.53461
  Beta  occ. eigenvalues --   -0.40167  -0.40167
  Beta virt. eigenvalues --   -0.06845  -0.06845  -0.00999   0.71578   0.75804
  Beta virt. eigenvalues --    0.75804   0.82734   0.85907   0.85907   0.93691
  Beta virt. eigenvalues --    1.29024   1.50649   1.50649   1.55590   1.66842

 Mulliken charges and spin densities:
               1          2
     1  O   -0.000000   1.000000
     2  O   -0.000000   1.000000
 Sum of Mulliken charges =  -0.00000   2.00000

 Dipole moment (field-independent basis, Debye):
    X=              0.0000    Y=             -0.0000    Z=             -0.0000  Tot=              0.0000
 Quadrupole moment (field-independent basis, Debye-Ang):
   XX=            -10.7618   YY=            -10.7618   ZZ=             -9.1070
   XY=              0.0000   XZ=             -0.0000   YZ=              0.0000

 26\PMP3-0=-149.8303721\MP4SDQ=-149.9443967\CCSD=-149.9057694\CCSD(T)=-
 Normal termination of Gaussian 16 at Fri Feb  9 17:54:57 2024.
