 Gaussian 16, Revision A.03,
 Gaussian 16:  ES64L-G16RevA.03 25-Dec-2016

 ------------------
 #p CCSD(T)/cc-pVTZ
 ------------------

 -----
 O2_30
 -----
 Symbolic Z-matrix:
 Charge =  0 Multiplicity = 3

                         Standard orientation:
 ---------------------------------------------------------------------
 Center     Atomic      Atomic             Coordinates (Angstroms)
 Number     Number       Type             X           Y           Z
 ---------------------------------------------------------------------
      1          8           0        0.000000    0.000000    0.850000
      2          8           0        0.000000    0.000000   -0.850000
 ---------------------------------------------------------------------

 SCF Done:  E(UHF) =  -149.453705348     A.U. after   10 cycles
 E2 =    -0.5813552290D+00 EUMP2 =    -0.15003506057726D+03
 CCSD(T)
 CCSD(T)= -0.15000844071D+03

 The electronic state is 3-SGG.
 Alpha  occ. eigenvalues --  -20.81107 -20.81089  -1.48621  -1.33593  -0.75147
 Alpha  occ. eigenvalues --   -0.75147  -0.67235  -0.67235  -0.61670
 Alpha virt. eigenvalues --    0.00832   0.67089   0.67089   0.67801   0.78020
 Alpha virt. eigenvalues --    0.78020   0.78499   0.92275   1.31047   1.43201
 Alpha virt. eigenvalues --    1.43201   1.56604   1.56604   1.70021   1.70517

  Beta  occ. eigenvalues --  -20.75522 -20.75488  -1.31254  -1.11733  -0.58016
  Beta  occ. eigenvalues --   -0.43187  -0.43187
  Beta virt. eigenvalues --   -0.03334  -0.03334   0.07249   0.69653   0.77158
  Beta virt. eigenvalues --    0.77158   0.80778   0.86358   0.86358   0.93957
  Beta virt. eigenvalues --    1.34573   1.46147   1.46147   1.63270   1.63270

 Mulliken charges and spin densities:
               1          2
     1  O   -0.000000   1.000000
     2  O   -0.000000   1.000000
 Sum of Mulliken charges =  -0.00000   2.00000

 Dipole moment (field-independent basis, Debye):
    X=             -0.0000    Y=              0.0000    Z=              0.0000  Tot=              0.0000
 Quadrupole moment (field-independent basis, Debye-Ang):
   XX=            -10.6359   YY=            -10.6359   ZZ=             -9.4071
   XY=              0.0000   XZ=             -0.0000   YZ=              0.0000

 54\PMP3-0=-149.9333627\MP4SDQ=-149.9903797\CCSD=-149.9701667\CCSD(T)=-
 Normal termination of Gaussian 16 at Fri Feb  9 17:53:34 2024.
