 Gaussian 16, Revision A.03,
 Gaussian 16:  ES64L-G16RevA.03 25-Dec-2016

 ------------------
 #p CCSD(T)/cc-pVTZ
 ------------------

 -----
 O2_36
 -----
 Symbolic Z-matrix:
 Charge =  0 Multiplicity = 3

                         Standard orientation:
 ---------------------------------------------------------------------
 Center     Atomic      Atomic             Coordinates (Angstroms)
 Number     Number       Type             X           Y           Z
 ---------------------------------------------------------------------
      1          8           0        0.000000    0.000000    0.940000
      2          8           0        0.000000    0.000000   -0.940000
 ---------------------------------------------------------------------

 SCF Done:  E(UHF) =  -149.371091681     A.U. after   10 cycles
 E2 =    -0.6524955181D+00 EUMP2 =    -0.15002358719959D+03
 CCSD(T)
 CCSD(T)= -0.14996083093D+03

 The electronic state is 3-SGG.
 Alpha  occ. eigenvalues --  -20.81900 -20.81888  -1.45532  -1.36006  -0.73992
 Alpha  occ. eigenvalues --   -0.73992  -0.68999  -0.68999  -0.57566
 Alpha virt. eigenvalues --   -0.06057   0.65914   0.65914   0.69350   0.77676
 Alpha virt. eigenvalues --    0.77676   0.79851   0.91706   1.26376   1.46862
 Alpha virt. eigenvalues --    1.46862   1.54007   1.59411   1.59411   1.67498

  Beta  occ. eigenvalues --  -20.76345 -20.76319  -1.27437  -1.14321  -0.54065
  Beta  occ. eigenvalues --   -0.40535  -0.40535
  Beta virt. eigenvalues --   -0.06405  -0.06405  -0.00024   0.71279   0.76009
  Beta virt. eigenvalues --    0.76009   0.82461   0.85972   0.85972   0.93978
  Beta virt. eigenvalues --    1.29739   1.49810   1.49810   1.57432   1.66430

 Mulliken charges and spin densities:
               1          2
     1  O    0.000000   1.000000
     2  O    0.000000   1.000000
 Sum of Mulliken charges =   0.00000   2.00000

 Dipole moment (field-independent basis, Debye):
    X=              0.0000    Y=             -0.0000    Z=             -0.0000  Tot=              0.0000
 Quadrupole moment (field-independent basis, Debye-Ang):
   XX=            -10.7484   YY=            -10.7484   ZZ=             -9.1440
   XY=              0.0000   XZ=             -0.0000   YZ=              0.0000

 9838\PMP3-0=-149.8458255\MP4SDQ=-149.949515\CCSD=-149.9141762\CCSD(T)=
 Normal termination of Gaussian 16 at Fri Feb  9 17:54:45 2024.
