 Gaussian 16, Revision A.03,
 Gaussian 16:  ES64L-G16RevA.03 25-Dec-2016

 ------------------
 #p CCSD(T)/cc-pVTZ
 ------------------

 -----
 O2_35
 -----
 Symbolic Z-matrix:
 Charge =  0 Multiplicity = 3

                         Standard orientation:
 ---------------------------------------------------------------------
 Center     Atomic      Atomic             Coordinates (Angstroms)
 Number     Number       Type             X           Y           Z
 ---------------------------------------------------------------------
      1          8           0        0.000000    0.000000    0.925000
      2          8           0        0.000000    0.000000   -0.925000
 ---------------------------------------------------------------------

 SCF Done:  E(UHF) =  -149.384057671     A.U. after   10 cycles
 E2 =    -0.6400480773D+00 EUMP2 =    -0.15002410574865D+03
 CCSD(T)
 CCSD(T)= -0.14996811009D+03

 The electronic state is 3-SGG.
 Alpha  occ. eigenvalues --  -20.81801 -20.81788  -1.45944  -1.35672  -0.74148
 Alpha  occ. eigenvalues --   -0.74148  -0.68759  -0.68759  -0.58199
 Alpha virt. eigenvalues --   -0.05079   0.66098   0.66098   0.69073   0.77739
 Alpha virt. eigenvalues --    0.77739   0.79630   0.91999   1.27093   1.46094
 Alpha virt. eigenvalues --    1.46094   1.55987   1.59018   1.59018   1.67921

  Beta  occ. eigenvalues --  -20.76240 -20.76213  -1.27953  -1.13949  -0.54685
  Beta  occ. eigenvalues --   -0.40922  -0.40922
  Beta virt. eigenvalues --   -0.05947  -0.05947   0.01011   0.70985   0.76215
  Beta virt. eigenvalues --    0.76215   0.82186   0.86036   0.86036   0.94168
  Beta virt. eigenvalues --    1.30477   1.49016   1.49016   1.59574   1.65987

 Mulliken charges and spin densities:
               1          2
     1  O    0.000000   1.000000
     2  O    0.000000   1.000000
 Sum of Mulliken charges =   0.00000   2.00000

 Dipole moment (field-independent basis, Debye):
    X=              0.0000    Y=             -0.0000    Z=             -0.0000  Tot=              0.0000
 Quadrupole moment (field-independent basis, Debye-Ang):
   XX=            -10.7336   YY=            -10.7336   ZZ=             -9.1830
   XY=              0.0000   XZ=             -0.0000   YZ=              0.0000

 Normal termination of Gaussian 16 at Fri Feb  9 17:54:33 2024.
