 Gaussian 16, Revision A.03,
 Gaussian 16:  ES64L-G16RevA.03 25-Dec-2016

 ------------------
 #p CCSD(T)/cc-pVTZ
 ------------------

 -----
 O2_33
 -----
 Symbolic Z-matrix:
 Charge =  0 Multiplicity = 3

                         Standard orientation:
 ---------------------------------------------------------------------
 Center     Atomic      Atomic             Coordinates (Angstroms)
 Number     Number       Type             X           Y           Z
 ---------------------------------------------------------------------
      1          8           0        0.000000    0.000000    0.895000
      2          8           0        0.000000    0.000000   -0.895000
 ---------------------------------------------------------------------

 SCF Done:  E(UHF) =  -149.410986108     A.U. after   10 cycles
 E2 =    -0.6158557482D+00 EUMP2 =    -0.15002684185670D+03
 CCSD(T)
 CCSD(T)= -0.14998349463D+03

 The electronic state is 3-SGG.
 Alpha  occ. eigenvalues --  -20.81566 -20.81551  -1.46882  -1.34927  -0.74498
 Alpha  occ. eigenvalues --   -0.74498  -0.68219  -0.68219  -0.59526
 Alpha virt. eigenvalues --   -0.02933   0.66486   0.66486   0.68537   0.77857
 Alpha virt. eigenvalues --    0.77857   0.79183   0.92325   1.28597   1.44715
 Alpha virt. eigenvalues --    1.44715   1.58143   1.58143   1.60806   1.68860

  Beta  occ. eigenvalues --  -20.75994 -20.75964  -1.29116  -1.13137  -0.55972
  Beta  occ. eigenvalues --   -0.41757  -0.41757
  Beta virt. eigenvalues --   -0.04969  -0.04969   0.03278   0.70420   0.76619
  Beta virt. eigenvalues --    0.76619   0.81630   0.86163   0.86163   0.94286
  Beta virt. eigenvalues --    1.32032   1.47611   1.47611   1.64724   1.65001

 Mulliken charges and spin densities:
               1          2
     1  O   -0.000000   1.000000
     2  O   -0.000000   1.000000
 Sum of Mulliken charges =  -0.00000   2.00000

 Dipole moment (field-independent basis, Debye):
    X=             -0.0000    Y=              0.0000    Z=             -0.0000  Tot=              0.0000
 Quadrupole moment (field-independent basis, Debye-Ang):
   XX=            -10.6996   YY=            -10.6996   ZZ=             -9.2671
   XY=              0.0000   XZ=             -0.0000   YZ=              0.0000

 Normal termination of Gaussian 16 at Fri Feb  9 17:54:10 2024.
