 Gaussian 16, Revision A.03,
 Gaussian 16:  ES64L-G16RevA.03 25-Dec-2016

 ------------------
 #p CCSD(T)/cc-pVTZ
 ------------------

 -----
 O2_34
 -----
 Symbolic Z-matrix:
 Charge =  0 Multiplicity = 3

                         Standard orientation:
 ---------------------------------------------------------------------
 Center     Atomic      Atomic             Coordinates (Angstroms)
 Number     Number       Type             X           Y           Z
 ---------------------------------------------------------------------
      1          8           0        0.000000    0.000000    0.910000
      2          8           0        0.000000    0.000000   -0.910000
 ---------------------------------------------------------------------

 SCF Done:  E(UHF) =  -149.397358334     A.U. after   10 cycles
 E2 =    -0.6278341275D+00 EUMP2 =    -0.15002519246144D+03
 CCSD(T)
 CCSD(T)= -0.14997566842D+03

 The electronic state is 3-SGG.
 Alpha  occ. eigenvalues --  -20.81690 -20.81676  -1.46393  -1.35313  -0.74316
 Alpha  occ. eigenvalues --   -0.74316  -0.68500  -0.68500  -0.58853
 Alpha virt. eigenvalues --   -0.04039   0.66289   0.66289   0.68802   0.77799
 Alpha virt. eigenvalues --    0.77799   0.79408   0.92203   1.27833   1.45374
 Alpha virt. eigenvalues --    1.45374   1.58256   1.58595   1.58595   1.68374

  Beta  occ. eigenvalues --  -20.76123 -20.76095  -1.28511  -1.13554  -0.55321
  Beta  occ. eigenvalues --   -0.41329  -0.41329
  Beta virt. eigenvalues --   -0.05468  -0.05468   0.02110   0.70699   0.76419
  Beta virt. eigenvalues --    0.76419   0.81909   0.86099   0.86099   0.94267
  Beta virt. eigenvalues --    1.31242   1.48279   1.48279   1.62008   1.65510

 Mulliken charges and spin densities:
               1          2
     1  O   -0.000000   1.000000
     2  O    0.000000   1.000000
 Sum of Mulliken charges =  -0.00000   2.00000

 Dipole moment (field-independent basis, Debye):
    X=              0.0000    Y=              0.0000    Z=              0.0000  Tot=              0.0000
 Quadrupole moment (field-independent basis, Debye-Ang):
   XX=            -10.7174   YY=            -10.7174   ZZ=             -9.2241
   XY=              0.0000   XZ=             -0.0000   YZ=              0.0000

 Normal termination of Gaussian 16 at Fri Feb  9 17:54:21 2024.
