 Gaussian 16, Revision A.03,
 Gaussian 16:  ES64L-G16RevA.03 25-Dec-2016

 ------------------
 #p CCSD(T)/cc-pVTZ
 ------------------

 ----
 O2_3
 ----
 Symbolic Z-matrix:
 Charge =  0 Multiplicity = 3

                         Standard orientation:
 ---------------------------------------------------------------------
 Center     Atomic      Atomic             Coordinates (Angstroms)
 Number     Number       Type             X           Y           Z
 ---------------------------------------------------------------------
      1          8           0        0.000000    0.000000    0.445000
      2          8           0        0.000000    0.000000   -0.445000
 ---------------------------------------------------------------------

 SCF Done:  E(UHF) =  -149.381985645     A.U. after   10 cycles
 E2 =    -0.3855109335D+00 EUMP2 =    -0.14976749657890D+03
 CCSD(T)
 CCSD(T)= -0.14978871400D+03

 The electronic state is 3-SGG.
 Alpha  occ. eigenvalues --  -20.69139 -20.68546  -2.07381  -1.08137  -1.01490
 Alpha  occ. eigenvalues --   -1.01490  -0.87164  -0.36166  -0.36166
 Alpha virt. eigenvalues --    0.47982   0.62762   0.62762   0.66683   0.81648
 Alpha virt. eigenvalues --    0.81648   0.87772   1.28070   1.37851   1.37851
 Alpha virt. eigenvalues --    1.45449   1.79883   1.79883   2.01436   2.01436

  Beta  occ. eigenvalues --  -20.64393 -20.63673  -1.99387  -0.88441  -0.80045
  Beta  occ. eigenvalues --   -0.80045  -0.77862
  Beta virt. eigenvalues --    0.27567   0.27567   0.50036   0.66521   0.66521
  Beta virt. eigenvalues --    0.67412   0.90529   0.93195   0.93195   1.32635
  Beta virt. eigenvalues --    1.42681   1.42681   1.53190   1.87875   1.87875

 Mulliken charges and spin densities:
               1          2
     1  O    0.000000   1.000000
     2  O    0.000000   1.000000
 Sum of Mulliken charges =   0.00000   2.00000

 Dipole moment (field-independent basis, Debye):
    X=              0.0000    Y=              0.0000    Z=              0.0000  Tot=              0.0000
 Quadrupole moment (field-independent basis, Debye-Ang):
   XX=             -9.1881   YY=             -9.1881   ZZ=            -10.7308
   XY=              0.0000   XZ=              0.0000   YZ=              0.0000

 547\PMP3-0=-149.7781271\MP4SDQ=-149.7782711\CCSD=-149.7781266\CCSD(T)=
 Normal termination of Gaussian 16 at Fri Feb  9 17:48:09 2024.
