 Gaussian 16, Revision A.03,
 Gaussian 16:  ES64L-G16RevA.03 25-Dec-2016

 ------------------
 #p CCSD(T)/cc-pVTZ
 ------------------

 -----
 O2_49
 -----
 Symbolic Z-matrix:
 Charge =  0 Multiplicity = 3

                         Standard orientation:
 ---------------------------------------------------------------------
 Center     Atomic      Atomic             Coordinates (Angstroms)
 Number     Number       Type             X           Y           Z
 ---------------------------------------------------------------------
      1          8           0        0.000000    0.000000    1.135000
      2          8           0        0.000000    0.000000   -1.135000
 ---------------------------------------------------------------------

 SCF Done:  E(UHF) =  -149.232867902     A.U. after   11 cycles
 E2 =    -0.8345619508D+00 EUMP2 =    -0.15006742985272D+03
 CCSD(T)
 CCSD(T)= -0.14989478124D+03

 The electronic state is 3-SGG.
 Alpha  occ. eigenvalues --  -20.82363 -20.82356  -1.42325  -1.38621  -0.72699
 Alpha  occ. eigenvalues --   -0.72699  -0.70798  -0.70798  -0.50948
 Alpha virt. eigenvalues --   -0.14816   0.64568   0.64568   0.73147   0.76568
 Alpha virt. eigenvalues --    0.76568   0.80288   0.82952   1.18716   1.50512
 Alpha virt. eigenvalues --    1.57339   1.57339   1.62361   1.62361   1.64242

  Beta  occ. eigenvalues --  -20.76904 -20.76890  -1.23367  -1.17548  -0.47395
  Beta  occ. eigenvalues --   -0.36826  -0.36826
  Beta virt. eigenvalues --   -0.10922  -0.10922  -0.09298   0.74094   0.74094
  Beta virt. eigenvalues --    0.75317   0.83579   0.84973   0.84973   0.85642
  Beta virt. eigenvalues --    1.21935   1.52950   1.60827   1.60827   1.69786

 Mulliken charges and spin densities:
               1          2
     1  O   -0.000000   1.000000
     2  O   -0.000000   1.000000
 Sum of Mulliken charges =  -0.00000   2.00000

 Dipole moment (field-independent basis, Debye):
    X=             -0.0000    Y=             -0.0000    Z=             -0.0000  Tot=              0.0000
 Quadrupole moment (field-independent basis, Debye-Ang):
   XX=            -10.8384   YY=            -10.8384   ZZ=             -8.8150
   XY=              0.0000   XZ=             -0.0000   YZ=              0.0000

 Normal termination of Gaussian 16 at Fri Feb  9 17:57:27 2024.
