 Gaussian 16, Revision A.03,
 Gaussian 16:  ES64L-G16RevA.03 25-Dec-2016

 ------------------
 #p CCSD(T)/cc-pVTZ
 ------------------

 -----
 O2_45
 -----
 Symbolic Z-matrix:
 Charge =  0 Multiplicity = 3

                         Standard orientation:
 ---------------------------------------------------------------------
 Center     Atomic      Atomic             Coordinates (Angstroms)
 Number     Number       Type             X           Y           Z
 ---------------------------------------------------------------------
      1          8           0        0.000000    0.000000    1.075000
      2          8           0        0.000000    0.000000   -1.075000
 ---------------------------------------------------------------------

 SCF Done:  E(UHF) =  -149.269635336     A.U. after   11 cycles
 E2 =    -0.7746774981D+00 EUMP2 =    -0.15004431283398D+03
 CCSD(T)
 CCSD(T)= -0.14990906707D+03

 The electronic state is 3-SGG.
 Alpha  occ. eigenvalues --  -20.82351 -20.82342  -1.43001  -1.38092  -0.72999
 Alpha  occ. eigenvalues --   -0.72999  -0.70453  -0.70453  -0.52692
 Alpha virt. eigenvalues --   -0.12736   0.64745   0.64745   0.71970   0.76975
 Alpha virt. eigenvalues --    0.76975   0.81566   0.85224   1.20810   1.48307
 Alpha virt. eigenvalues --    1.54435   1.54435   1.61805   1.61805   1.64875

  Beta  occ. eigenvalues --  -20.76860 -20.76843  -1.24231  -1.16823  -0.49186
  Beta  occ. eigenvalues --   -0.37760  -0.37760
  Beta virt. eigenvalues --   -0.09779  -0.09779  -0.07093   0.74064   0.74459
  Beta virt. eigenvalues --    0.74459   0.84752   0.85330   0.85330   0.87903
  Beta virt. eigenvalues --    1.24047   1.50806   1.57761   1.57761   1.69147

 Mulliken charges and spin densities:
               1          2
     1  O   -0.000000   1.000000
     2  O   -0.000000   1.000000
 Sum of Mulliken charges =  -0.00000   2.00000

 Dipole moment (field-independent basis, Debye):
    X=             -0.0000    Y=              0.0000    Z=              0.0000  Tot=              0.0000
 Quadrupole moment (field-independent basis, Debye-Ang):
   XX=            -10.8269   YY=            -10.8269   ZZ=             -8.8829
   XY=              0.0000   XZ=             -0.0000   YZ=              0.0000

 Normal termination of Gaussian 16 at Fri Feb  9 17:56:34 2024.
