 Gaussian 16, Revision A.03,
 Gaussian 16:  ES64L-G16RevA.03 25-Dec-2016

 ------------------
 #p CCSD(T)/cc-pVTZ
 ------------------

 -----
 O2_48
 -----
 Symbolic Z-matrix:
 Charge =  0 Multiplicity = 3

                         Standard orientation:
 ---------------------------------------------------------------------
 Center     Atomic      Atomic             Coordinates (Angstroms)
 Number     Number       Type             X           Y           Z
 ---------------------------------------------------------------------
      1          8           0        0.000000    0.000000    1.120000
      2          8           0        0.000000    0.000000   -1.120000
 ---------------------------------------------------------------------

 SCF Done:  E(UHF) =  -149.241619107     A.U. after   11 cycles
 E2 =    -0.8192849022D+00 EUMP2 =    -0.15006090400915D+03
 CCSD(T)
 CCSD(T)= -0.14989780617D+03

 The electronic state is 3-SGG.
 Alpha  occ. eigenvalues --  -20.82368 -20.82360  -1.42476  -1.38506  -0.72769
 Alpha  occ. eigenvalues --   -0.72769  -0.70725  -0.70725  -0.51363
 Alpha virt. eigenvalues --   -0.14334   0.64592   0.64592   0.72854   0.76676
 Alpha virt. eigenvalues --    0.76676   0.81070   0.83075   1.19224   1.49827
 Alpha virt. eigenvalues --    1.56666   1.56666   1.62243   1.62243   1.64377

  Beta  occ. eigenvalues --  -20.76901 -20.76886  -1.23561  -1.17385  -0.47823
  Beta  occ. eigenvalues --   -0.37047  -0.37047
  Beta virt. eigenvalues --   -0.10653  -0.10653  -0.08787   0.74164   0.74164
  Beta virt. eigenvalues --    0.75005   0.84636   0.85067   0.85067   0.85474
  Beta virt. eigenvalues --    1.22446   1.52267   1.60115   1.60115   1.69650

 Mulliken charges and spin densities:
               1          2
     1  O    0.000000   1.000000
     2  O    0.000000   1.000000
 Sum of Mulliken charges =   0.00000   2.00000

 Dipole moment (field-independent basis, Debye):
    X=              0.0000    Y=              0.0000    Z=              0.0000  Tot=              0.0000
 Quadrupole moment (field-independent basis, Debye-Ang):
   XX=            -10.8365   YY=            -10.8365   ZZ=             -8.8295
   XY=              0.0000   XZ=             -0.0000   YZ=              0.0000

 34\PMP3-0=-149.6313218\MP4SDQ=-149.9359095\CCSD=-149.8326402\CCSD(T)=-
 Normal termination of Gaussian 16 at Fri Feb  9 17:57:13 2024.
