 Gaussian 16, Revision A.03,
 Gaussian 16:  ES64L-G16RevA.03 25-Dec-2016

 ------------------
 #p CCSD(T)/cc-pVTZ
 ------------------

 -----
 O2_44
 -----
 Symbolic Z-matrix:
 Charge =  0 Multiplicity = 3

                         Standard orientation:
 ---------------------------------------------------------------------
 Center     Atomic      Atomic             Coordinates (Angstroms)
 Number     Number       Type             X           Y           Z
 ---------------------------------------------------------------------
      1          8           0        0.000000    0.000000    1.060000
      2          8           0        0.000000    0.000000   -1.060000
 ---------------------------------------------------------------------

 SCF Done:  E(UHF) =  -149.279587171     A.U. after   11 cycles
 E2 =    -0.7602259978D+00 EUMP2 =    -0.15003981316843D+03
 CCSD(T)
 CCSD(T)= -0.14991352244D+03

 The electronic state is 3-SGG.
 Alpha  occ. eigenvalues --  -20.82333 -20.82324  -1.43202  -1.37928  -0.73084
 Alpha  occ. eigenvalues --   -0.73084  -0.70342  -0.70342  -0.53165
 Alpha virt. eigenvalues --   -0.12146   0.64824   0.64824   0.71675   0.77066
 Alpha virt. eigenvalues --    0.77066   0.81439   0.86173   1.21362   1.48055
 Alpha virt. eigenvalues --    1.53630   1.53630   1.61626   1.61626   1.65076

  Beta  occ. eigenvalues --  -20.76834 -20.76816  -1.24489  -1.16609  -0.49669
  Beta  occ. eigenvalues --   -0.38018  -0.38018
  Beta virt. eigenvalues --   -0.09463  -0.09463  -0.06468   0.73749   0.74586
  Beta virt. eigenvalues --    0.74586   0.84524   0.85411   0.85411   0.88899
  Beta virt. eigenvalues --    1.24607   1.50598   1.56912   1.56912   1.68942

 Mulliken charges and spin densities:
               1          2
     1  O    0.000000   1.000000
     2  O    0.000000   1.000000
 Sum of Mulliken charges =   0.00000   2.00000

 Dipole moment (field-independent basis, Debye):
    X=              0.0000    Y=             -0.0000    Z=              0.0000  Tot=              0.0000
 Quadrupole moment (field-independent basis, Debye-Ang):
   XX=            -10.8222   YY=            -10.8222   ZZ=             -8.9042
   XY=              0.0000   XZ=             -0.0000   YZ=              0.0000

 857\PMP3-0=-149.7113077\MP4SDQ=-149.9269851\CCSD=-149.8550868\CCSD(T)=
 Normal termination of Gaussian 16 at Fri Feb  9 17:56:21 2024.
