 Gaussian 16, Revision A.03,
 Gaussian 16:  ES64L-G16RevA.03 25-Dec-2016

 ------------------
 #p CCSD(T)/cc-pVTZ
 ------------------

 -----
 O2_47
 -----
 Symbolic Z-matrix:
 Charge =  0 Multiplicity = 3

                         Standard orientation:
 ---------------------------------------------------------------------
 Center     Atomic      Atomic             Coordinates (Angstroms)
 Number     Number       Type             X           Y           Z
 ---------------------------------------------------------------------
      1          8           0        0.000000    0.000000    1.105000
      2          8           0        0.000000    0.000000   -1.105000
 ---------------------------------------------------------------------

 SCF Done:  E(UHF) =  -149.250658840     A.U. after   11 cycles
 E2 =    -0.8042098031D+00 EUMP2 =    -0.15005486864291D+03
 CCSD(T)
 CCSD(T)= -0.14990120094D+03

 The electronic state is 3-SGG.
 Alpha  occ. eigenvalues --  -20.82368 -20.82360  -1.42639  -1.38380  -0.72842
 Alpha  occ. eigenvalues --   -0.72842  -0.70643  -0.70643  -0.51791
 Alpha virt. eigenvalues --   -0.13828   0.64630   0.64630   0.72560   0.76779
 Alpha virt. eigenvalues --    0.76779   0.81517   0.83527   1.19742   1.49217
 Alpha virt. eigenvalues --    1.55956   1.55956   1.62112   1.62112   1.64526

  Beta  occ. eigenvalues --  -20.76893 -20.76877  -1.23768  -1.17210  -0.48264
  Beta  occ. eigenvalues --   -0.37275  -0.37275
  Beta virt. eigenvalues --   -0.10374  -0.10374  -0.08250   0.74248   0.74248
  Beta virt. eigenvalues --    0.74692   0.85141   0.85159   0.85159   0.85847
  Beta virt. eigenvalues --    1.22967   1.51666   1.59366   1.59366   1.69499

 Mulliken charges and spin densities:
               1          2
     1  O    0.000000   1.000000
     2  O    0.000000   1.000000
 Sum of Mulliken charges =   0.00000   2.00000

 Dipole moment (field-independent basis, Debye):
    X=              0.0000    Y=             -0.0000    Z=              0.0000  Tot=              0.0000
 Quadrupole moment (field-independent basis, Debye-Ang):
   XX=            -10.8340   YY=            -10.8340   ZZ=             -8.8456
   XY=              0.0000   XZ=             -0.0000   YZ=              0.0000

 Normal termination of Gaussian 16 at Fri Feb  9 17:57:00 2024.
