 Gaussian 16, Revision A.03,
 Gaussian 16:  ES64L-G16RevA.03 25-Dec-2016

 ------------------
 #p CCSD(T)/cc-pVTZ
 ------------------

 ----
 O2_4
 ----
 Symbolic Z-matrix:
 Charge =  0 Multiplicity = 3

                         Standard orientation:
 ---------------------------------------------------------------------
 Center     Atomic      Atomic             Coordinates (Angstroms)
 Number     Number       Type             X           Y           Z
 ---------------------------------------------------------------------
      1          8           0        0.000000    0.000000    0.460000
      2          8           0        0.000000    0.000000   -0.460000
 ---------------------------------------------------------------------

 SCF Done:  E(UHF) =  -149.463310825     A.U. after   10 cycles
 E2 =    -0.3885821353D+00 EUMP2 =    -0.14985189295978D+03
 CCSD(T)
 CCSD(T)= -0.14987336974D+03

 The electronic state is 3-SGG.
 Alpha  occ. eigenvalues --  -20.69473 -20.69025  -2.03144  -1.09260  -0.99050
 Alpha  occ. eigenvalues --   -0.99050  -0.86002  -0.38598  -0.38598
 Alpha virt. eigenvalues --    0.47867   0.63566   0.63566   0.67341   0.81262
 Alpha virt. eigenvalues --    0.81262   0.87619   1.23930   1.38418   1.38418
 Alpha virt. eigenvalues --    1.40540   1.76989   1.76989   1.99905   1.99905

  Beta  occ. eigenvalues --  -20.64610 -20.64045  -1.94626  -0.89411  -0.76992
  Beta  occ. eigenvalues --   -0.76992  -0.76968
  Beta virt. eigenvalues --    0.25740   0.25740   0.49995   0.67561   0.67561
  Beta virt. eigenvalues --    0.68050   0.90284   0.92495   0.92495   1.29416
  Beta virt. eigenvalues --    1.43263   1.43263   1.47326   1.84827   1.84827

 Mulliken charges and spin densities:
               1          2
     1  O   -0.000000   1.000000
     2  O   -0.000000   1.000000
 Sum of Mulliken charges =  -0.00000   2.00000

 Dipole moment (field-independent basis, Debye):
    X=             -0.0000    Y=              0.0000    Z=              0.0000  Tot=              0.0000
 Quadrupole moment (field-independent basis, Debye-Ang):
   XX=             -9.2573   YY=             -9.2573   ZZ=            -10.6972
   XY=              0.0000   XZ=              0.0000   YZ=              0.0000

 74\PMP3-0=-149.862164\MP4SDQ=-149.8624993\CCSD=-149.8623271\CCSD(T)=-1
 Normal termination of Gaussian 16 at Fri Feb  9 17:48:21 2024.
