 Gaussian 16, Revision A.03,
 Gaussian 16:  ES64L-G16RevA.03 25-Dec-2016

 ------------------
 #p CCSD(T)/cc-pVTZ
 ------------------

 -----
 O2_46
 -----
 Symbolic Z-matrix:
 Charge =  0 Multiplicity = 3

                         Standard orientation:
 ---------------------------------------------------------------------
 Center     Atomic      Atomic             Coordinates (Angstroms)
 Number     Number       Type             X           Y           Z
 ---------------------------------------------------------------------
      1          8           0        0.000000    0.000000    1.090000
      2          8           0        0.000000    0.000000   -1.090000
 ---------------------------------------------------------------------

 SCF Done:  E(UHF) =  -149.259995018     A.U. after   11 cycles
 E2 =    -0.7893396956D+00 EUMP2 =    -0.15004933471326D+03
 CCSD(T)
 CCSD(T)= -0.14990495719D+03

 The electronic state is 3-SGG.
 Alpha  occ. eigenvalues --  -20.82362 -20.82354  -1.42813  -1.38242  -0.72919
 Alpha  occ. eigenvalues --   -0.72919  -0.70553  -0.70553  -0.52234
 Alpha virt. eigenvalues --   -0.13296   0.64681   0.64681   0.72265   0.76879
 Alpha virt. eigenvalues --    0.76879   0.81624   0.84305   1.20270   1.48702
 Alpha virt. eigenvalues --    1.55211   1.55211   1.61967   1.61967   1.64692

  Beta  occ. eigenvalues --  -20.76879 -20.76863  -1.23992  -1.17022  -0.48718
  Beta  occ. eigenvalues --   -0.37513  -0.37513
  Beta virt. eigenvalues --   -0.10082  -0.10082  -0.07686   0.74346   0.74346
  Beta virt. eigenvalues --    0.74378   0.84968   0.85246   0.85246   0.86871
  Beta virt. eigenvalues --    1.23500   1.51171   1.58580   1.58580   1.69332

 Mulliken charges and spin densities:
               1          2
     1  O   -0.000000   1.000000
     2  O   -0.000000   1.000000
 Sum of Mulliken charges =  -0.00000   2.00000

 Dipole moment (field-independent basis, Debye):
    X=             -0.0000    Y=             -0.0000    Z=             -0.0000  Tot=              0.0000
 Quadrupole moment (field-independent basis, Debye-Ang):
   XX=            -10.8308   YY=            -10.8308   ZZ=             -8.8634
   XY=              0.0000   XZ=             -0.0000   YZ=              0.0000

 47\PMP3-0=-149.6726468\MP4SDQ=-149.9293724\CCSD=-149.8432706\CCSD(T)=-
 Normal termination of Gaussian 16 at Fri Feb  9 17:56:47 2024.
