 Gaussian 16, Revision A.03,
 Gaussian 16:  ES64L-G16RevA.03 25-Dec-2016

 ------------------
 #p CCSD(T)/cc-pVTZ
 ------------------

 -----
 O2_40
 -----
 Symbolic Z-matrix:
 Charge =  0 Multiplicity = 3

                         Standard orientation:
 ---------------------------------------------------------------------
 Center     Atomic      Atomic             Coordinates (Angstroms)
 Number     Number       Type             X           Y           Z
 ---------------------------------------------------------------------
      1          8           0        0.000000    0.000000    1.000000
      2          8           0        0.000000    0.000000   -1.000000
 ---------------------------------------------------------------------

 SCF Done:  E(UHF) =  -149.322639192     A.U. after   11 cycles
 E2 =    -0.7045783197D+00 EUMP2 =    -0.15002721751221D+03
 CCSD(T)
 CCSD(T)= -0.14993466481D+03

 The electronic state is 3-SGG.
 Alpha  occ. eigenvalues --  -20.82188 -20.82178  -1.44182  -1.37117  -0.73477
 Alpha  occ. eigenvalues --   -0.73477  -0.69784  -0.69784  -0.55223
 Alpha virt. eigenvalues --   -0.09443   0.65272   0.65272   0.70498   0.77397
 Alpha virt. eigenvalues --    0.77397   0.80707   0.89584   1.23724   1.48985
 Alpha virt. eigenvalues --    1.50227   1.50227   1.60709   1.60709   1.66090

  Beta  occ. eigenvalues --  -20.76659 -20.76638  -1.25738  -1.15606  -0.51744
  Beta  occ. eigenvalues --   -0.39162  -0.39162
  Beta virt. eigenvalues --   -0.08060  -0.08060  -0.03607   0.72497   0.75223
  Beta virt. eigenvalues --    0.75223   0.83532   0.85706   0.85706   0.92206
  Beta virt. eigenvalues --    1.27015   1.51854   1.53327   1.53327   1.67899

 Mulliken charges and spin densities:
               1          2
     1  O   -0.000000   1.000000
     2  O   -0.000000   1.000000
 Sum of Mulliken charges =  -0.00000   2.00000

 Dipole moment (field-independent basis, Debye):
    X=             -0.0000    Y=             -0.0000    Z=              0.0000  Tot=              0.0000
 Quadrupole moment (field-independent basis, Debye-Ang):
   XX=            -10.7942   YY=            -10.7942   ZZ=             -9.0082
   XY=              0.0000   XZ=             -0.0000   YZ=              0.0000

 88\PMP3-0=-149.7819668\MP4SDQ=-149.9326454\CCSD=-149.8822803\CCSD(T)=-
 Normal termination of Gaussian 16 at Fri Feb  9 17:55:35 2024.
