 Gaussian 16, Revision A.03,
 Gaussian 16:  ES64L-G16RevA.03 25-Dec-2016

 ------------------
 #p CCSD(T)/cc-pVTZ
 ------------------

 -----
 O2_42
 -----
 Symbolic Z-matrix:
 Charge =  0 Multiplicity = 3

                         Standard orientation:
 ---------------------------------------------------------------------
 Center     Atomic      Atomic             Coordinates (Angstroms)
 Number     Number       Type             X           Y           Z
 ---------------------------------------------------------------------
      1          8           0        0.000000    0.000000    1.030000
      2          8           0        0.000000    0.000000   -1.030000
 ---------------------------------------------------------------------

 SCF Done:  E(UHF) =  -149.300452595     A.U. after   11 cycles
 E2 =    -0.7319655922D+00 EUMP2 =    -0.15003241818746D+03
 CCSD(T)
 CCSD(T)= -0.14992344215D+03

 The electronic state is 3-SGG.
 Alpha  occ. eigenvalues --  -20.82276 -20.82266  -1.43654  -1.37556  -0.73268
 Alpha  occ. eigenvalues --   -0.73268  -0.70088  -0.70088  -0.54160
 Alpha virt. eigenvalues --   -0.10868   0.65021   0.65021   0.71085   0.77239
 Alpha virt. eigenvalues --    0.77239   0.81100   0.87997   1.22511   1.48083
 Alpha virt. eigenvalues --    1.51954   1.51954   1.61210   1.61210   1.65539

  Beta  occ. eigenvalues --  -20.76762 -20.76743  -1.25067  -1.16139  -0.50676
  Beta  occ. eigenvalues --   -0.38565  -0.38565
  Beta virt. eigenvalues --   -0.08790  -0.08790  -0.05115   0.73121   0.74880
  Beta virt. eigenvalues --    0.74880   0.84041   0.85563   0.85563   0.90714
  Beta virt. eigenvalues --    1.25776   1.50757   1.55145   1.55145   1.68468

 Mulliken charges and spin densities:
               1          2
     1  O   -0.000000   1.000000
     2  O   -0.000000   1.000000
 Sum of Mulliken charges =  -0.00000   2.00000

 Dipole moment (field-independent basis, Debye):
    X=             -0.0000    Y=             -0.0000    Z=             -0.0000  Tot=              0.0000
 Quadrupole moment (field-independent basis, Debye-Ang):
   XX=            -10.8102   YY=            -10.8102   ZZ=             -8.9524
   XY=              0.0000   XZ=             -0.0000   YZ=              0.0000

 723\PMP3-0=-149.7476393\MP4SDQ=-149.9282265\CCSD=-149.8680904\CCSD(T)=
 Normal termination of Gaussian 16 at Fri Feb  9 17:55:58 2024.
