 Gaussian 16, Revision A.03,
 Gaussian 16:  ES64L-G16RevA.03 25-Dec-2016

 ------------------
 #p CCSD(T)/cc-pVTZ
 ------------------

 -----
 O2_43
 -----
 Symbolic Z-matrix:
 Charge =  0 Multiplicity = 3

                         Standard orientation:
 ---------------------------------------------------------------------
 Center     Atomic      Atomic             Coordinates (Angstroms)
 Number     Number       Type             X           Y           Z
 ---------------------------------------------------------------------
      1          8           0        0.000000    0.000000    1.045000
      2          8           0        0.000000    0.000000   -1.045000
 ---------------------------------------------------------------------

 SCF Done:  E(UHF) =  -149.289857464     A.U. after   11 cycles
 E2 =    -0.7459878517D+00 EUMP2 =    -0.15003584531565D+03
 CCSD(T)
 CCSD(T)= -0.14991831638D+03

 The electronic state is 3-SGG.
 Alpha  occ. eigenvalues --  -20.82308 -20.82299  -1.43420  -1.37749  -0.73173
 Alpha  occ. eigenvalues --   -0.73173  -0.70221  -0.70221  -0.53654
 Alpha virt. eigenvalues --   -0.11524   0.64916   0.64916   0.71380   0.77155
 Alpha virt. eigenvalues --    0.77155   0.81279   0.87106   1.21929   1.47972
 Alpha virt. eigenvalues --    1.52801   1.52801   1.61428   1.61428   1.65297

  Beta  occ. eigenvalues --  -20.76802 -20.76783  -1.24767  -1.16382  -0.50165
  Beta  occ. eigenvalues --   -0.38286  -0.38286
  Beta virt. eigenvalues --   -0.09134  -0.09134  -0.05810   0.73435   0.74727
  Beta virt. eigenvalues --    0.74727   0.84286   0.85488   0.85488   0.89840
  Beta virt. eigenvalues --    1.25183   1.50572   1.56038   1.56038   1.68716

 Mulliken charges and spin densities:
               1          2
     1  O   -0.000000   1.000000
     2  O   -0.000000   1.000000
 Sum of Mulliken charges =  -0.00000   2.00000

 Dipole moment (field-independent basis, Debye):
    X=             -0.0000    Y=              0.0000    Z=              0.0000  Tot=              0.0000
 Quadrupole moment (field-independent basis, Debye-Ang):
   XX=            -10.8166   YY=            -10.8166   ZZ=             -8.9274
   XY=              0.0000   XZ=             -0.0000   YZ=              0.0000

 0602\PMP3-0=-149.729744\MP4SDQ=-149.927182\CCSD=-149.8614402\CCSD(T)=-
 Normal termination of Gaussian 16 at Fri Feb  9 17:56:09 2024.
