 Gaussian 16, Revision A.03,
 Gaussian 16:  ES64L-G16RevA.03 25-Dec-2016

 ------------------
 #p CCSD(T)/cc-pVTZ
 ------------------

 -----
 O2_57
 -----
 Symbolic Z-matrix:
 Charge =  0 Multiplicity = 3

                         Standard orientation:
 ---------------------------------------------------------------------
 Center     Atomic      Atomic             Coordinates (Angstroms)
 Number     Number       Type             X           Y           Z
 ---------------------------------------------------------------------
      1          8           0        0.000000    0.000000    1.255000
      2          8           0        0.000000    0.000000   -1.255000
 ---------------------------------------------------------------------

 SCF Done:  E(UHF) =  -149.172276245     A.U. after   11 cycles
 E2 =    -0.9636559031D+00 EUMP2 =    -0.15013593214852D+03
 CCSD(T)
 CCSD(T)= -0.14988452662D+03

 The electronic state is 3-SGG.
 Alpha  occ. eigenvalues --  -20.82185 -20.82179  -1.41406  -1.39232  -0.72219
 Alpha  occ. eigenvalues --   -0.72219  -0.71149  -0.71149  -0.48091
 Alpha virt. eigenvalues --   -0.17963   0.64792   0.64792   0.72825   0.75426
 Alpha virt. eigenvalues --    0.75567   0.75567   0.83776   1.14779   1.56773
 Alpha virt. eigenvalues --    1.61360   1.61360   1.62938   1.62938   1.63572

  Beta  occ. eigenvalues --  -20.76790 -20.76779  -1.22208  -1.18524  -0.44399
  Beta  occ. eigenvalues --   -0.35308  -0.35308
  Beta virt. eigenvalues --   -0.12725  -0.12725  -0.12646   0.74006   0.74006
  Beta virt. eigenvalues --    0.75563   0.77746   0.84068   0.84068   0.86990
  Beta virt. eigenvalues --    1.18015   1.59327   1.65079   1.65079   1.70463

 Mulliken charges and spin densities:
               1          2
     1  O   -0.000000   1.000000
     2  O   -0.000000   1.000000
 Sum of Mulliken charges =  -0.00000   2.00000

 Dipole moment (field-independent basis, Debye):
    X=             -0.0000    Y=              0.0000    Z=              0.0000  Tot=              0.0000
 Quadrupole moment (field-independent basis, Debye-Ang):
   XX=            -10.8389   YY=            -10.8389   ZZ=             -8.7561
   XY=              0.0000   XZ=             -0.0000   YZ=              0.0000

 Normal termination of Gaussian 16 at Fri Feb  9 17:59:08 2024.
