 Gaussian 16, Revision A.03,
 Gaussian 16:  ES64L-G16RevA.03 25-Dec-2016

 ------------------
 #p CCSD(T)/cc-pVTZ
 ------------------

 -----
 O2_51
 -----
 Symbolic Z-matrix:
 Charge =  0 Multiplicity = 3

                         Standard orientation:
 ---------------------------------------------------------------------
 Center     Atomic      Atomic             Coordinates (Angstroms)
 Number     Number       Type             X           Y           Z
 ---------------------------------------------------------------------
      1          8           0        0.000000    0.000000    1.165000
      2          8           0        0.000000    0.000000   -1.165000
 ---------------------------------------------------------------------

 SCF Done:  E(UHF) =  -149.216198788     A.U. after   11 cycles
 E2 =    -0.8657091864D+00 EUMP2 =    -0.15008190797401D+03
 CCSD(T)
 CCSD(T)= -0.14988987347D+03

 The electronic state is 3-SGG.
 Alpha  occ. eigenvalues --  -20.82340 -20.82333  -1.42050  -1.38822  -0.72566
 Alpha  occ. eigenvalues --   -0.72566  -0.70923  -0.70923  -0.50161
 Alpha virt. eigenvalues --   -0.15713   0.64557   0.64557   0.73729   0.76341
 Alpha virt. eigenvalues --    0.76341   0.78374   0.83073   1.17721   1.52031
 Alpha virt. eigenvalues --    1.58572   1.58572   1.62559   1.62559   1.64012

  Beta  occ. eigenvalues --  -20.76897 -20.76884  -1.23017  -1.17845  -0.46576
  Beta  occ. eigenvalues --   -0.36408  -0.36408
  Beta virt. eigenvalues --   -0.11428  -0.11428  -0.10250   0.73996   0.73996
  Beta virt. eigenvalues --    0.75938   0.81427   0.84771   0.84771   0.86013
  Beta virt. eigenvalues --    1.20939   1.54481   1.62129   1.62129   1.70017

 Mulliken charges and spin densities:
               1          2
     1  O    0.000000   1.000000
     2  O    0.000000   1.000000
 Sum of Mulliken charges =   0.00000   2.00000

 Dipole moment (field-independent basis, Debye):
    X=              0.0000    Y=             -0.0000    Z=              0.0000  Tot=              0.0000
 Quadrupole moment (field-independent basis, Debye-Ang):
   XX=            -10.8407   YY=            -10.8407   ZZ=             -8.7909
   XY=              0.0000   XZ=             -0.0000   YZ=              0.0000

 273\PMP3-0=-149.5636012\MP4SDQ=-149.9548242\CCSD=-149.8189089\CCSD(T)=
 Normal termination of Gaussian 16 at Fri Feb  9 17:57:52 2024.
