 Gaussian 16, Revision A.03,
 Gaussian 16:  ES64L-G16RevA.03 25-Dec-2016

 ------------------
 #p CCSD(T)/cc-pVTZ
 ------------------

 -----
 O2_54
 -----
 Symbolic Z-matrix:
 Charge =  0 Multiplicity = 3

                         Standard orientation:
 ---------------------------------------------------------------------
 Center     Atomic      Atomic             Coordinates (Angstroms)
 Number     Number       Type             X           Y           Z
 ---------------------------------------------------------------------
      1          8           0        0.000000    0.000000    1.210000
      2          8           0        0.000000    0.000000   -1.210000
 ---------------------------------------------------------------------

 SCF Done:  E(UHF) =  -149.193156569     A.U. after   11 cycles
 E2 =    -0.9138632210D+00 EUMP2 =    -0.15010701978964D+03
 CCSD(T)
 CCSD(T)= -0.14988544744D+03

 The electronic state is 3-SGG.
 Alpha  occ. eigenvalues --  -20.82276 -20.82270  -1.41699  -1.39059  -0.72385
 Alpha  occ. eigenvalues --   -0.72385  -0.71060  -0.71060  -0.49074
 Alpha virt. eigenvalues --   -0.16912   0.64629   0.64629   0.74588   0.75470
 Alpha virt. eigenvalues --    0.75970   0.75970   0.83423   1.16258   1.54450
 Alpha virt. eigenvalues --    1.60132   1.60132   1.62783   1.62783   1.63752

  Beta  occ. eigenvalues --  -20.76857 -20.76845  -1.22574  -1.18220  -0.45438
  Beta  occ. eigenvalues --   -0.35831  -0.35831
  Beta virt. eigenvalues --   -0.12115  -0.12115  -0.11525   0.73948   0.73948
  Beta virt. eigenvalues --    0.76855   0.78345   0.84438   0.84438   0.86529
  Beta virt. eigenvalues --    1.19481   1.56946   1.63778   1.63778   1.70278

 Mulliken charges and spin densities:
               1          2
     1  O   -0.000000   1.000000
     2  O   -0.000000   1.000000
 Sum of Mulliken charges =  -0.00000   2.00000

 Dipole moment (field-independent basis, Debye):
    X=             -0.0000    Y=             -0.0000    Z=              0.0000  Tot=              0.0000
 Quadrupole moment (field-independent basis, Debye-Ang):
   XX=            -10.8411   YY=            -10.8411   ZZ=             -8.7666
   XY=              0.0000   XZ=             -0.0000   YZ=              0.0000

 74\PMP3-0=-149.487999\MP4SDQ=-149.9867909\CCSD=-149.8077939\CCSD(T)=-1
 Normal termination of Gaussian 16 at Fri Feb  9 17:58:31 2024.
