 Gaussian 16, Revision A.03,
 Gaussian 16:  ES64L-G16RevA.03 25-Dec-2016

 ------------------
 #p CCSD(T)/cc-pVTZ
 ------------------

 ----
 O2_5
 ----
 Symbolic Z-matrix:
 Charge =  0 Multiplicity = 3

                         Standard orientation:
 ---------------------------------------------------------------------
 Center     Atomic      Atomic             Coordinates (Angstroms)
 Number     Number       Type             X           Y           Z
 ---------------------------------------------------------------------
      1          8           0        0.000000    0.000000    0.475000
      2          8           0        0.000000    0.000000   -0.475000
 ---------------------------------------------------------------------

 SCF Done:  E(UHF) =  -149.527060405     A.U. after   10 cycles
 E2 =    -0.3919490091D+00 EUMP2 =    -0.14991900941372D+03
 CCSD(T)
 CCSD(T)= -0.14994067310D+03

 The electronic state is 3-SGG.
 Alpha  occ. eigenvalues --  -20.69934 -20.69591  -1.99058  -1.10409  -0.96830
 Alpha  occ. eigenvalues --   -0.96830  -0.84896  -0.40889  -0.40889
 Alpha virt. eigenvalues --    0.47666   0.64299   0.64299   0.67992   0.80920
 Alpha virt. eigenvalues --    0.80920   0.87492   1.18087   1.37898   1.38998
 Alpha virt. eigenvalues --    1.38998   1.74136   1.74136   1.98360   1.98360

  Beta  occ. eigenvalues --  -20.64970 -20.64518  -1.90023  -0.90415  -0.76151
  Beta  occ. eigenvalues --   -0.74199  -0.74199
  Beta virt. eigenvalues --    0.23953   0.23953   0.49898   0.68552   0.68552
  Beta virt. eigenvalues --    0.68693   0.90061   0.91861   0.91861   1.24623
  Beta virt. eigenvalues --    1.43543   1.43865   1.43865   1.81810   1.81810

 Mulliken charges and spin densities:
               1          2
     1  O    0.000000   1.000000
     2  O    0.000000   1.000000
 Sum of Mulliken charges =   0.00000   2.00000

 Dipole moment (field-independent basis, Debye):
    X=              0.0000    Y=              0.0000    Z=              0.0000  Tot=              0.0000
 Quadrupole moment (field-independent basis, Debye-Ang):
   XX=             -9.3286   YY=             -9.3286   ZZ=            -10.6646
   XY=              0.0000   XZ=              0.0000   YZ=              0.0000

 22\PMP3-0=-149.9287651\MP4SDQ=-149.9293516\CCSD=-149.929135\CCSD(T)=-1
 Normal termination of Gaussian 16 at Fri Feb  9 17:48:32 2024.
