 Gaussian 16, Revision A.03,
 Gaussian 16:  ES64L-G16RevA.03 25-Dec-2016

 ------------------
 #p CCSD(T)/cc-pVTZ
 ------------------

 -----
 O2_55
 -----
 Symbolic Z-matrix:
 Charge =  0 Multiplicity = 3

                         Standard orientation:
 ---------------------------------------------------------------------
 Center     Atomic      Atomic             Coordinates (Angstroms)
 Number     Number       Type             X           Y           Z
 ---------------------------------------------------------------------
      1          8           0        0.000000    0.000000    1.225000
      2          8           0        0.000000    0.000000   -1.225000
 ---------------------------------------------------------------------

 SCF Done:  E(UHF) =  -149.185966712     A.U. after   11 cycles
 E2 =    -0.9302832224D+00 EUMP2 =    -0.15011624993482D+03
 CCSD(T)
 CCSD(T)= -0.14988476004D+03

 The electronic state is 3-SGG.
 Alpha  occ. eigenvalues --  -20.82248 -20.82242  -1.41596  -1.39123  -0.72328
 Alpha  occ. eigenvalues --   -0.72328  -0.71095  -0.71095  -0.48736
 Alpha virt. eigenvalues --   -0.17278   0.64674   0.64674   0.74553   0.74870
 Alpha virt. eigenvalues --    0.75839   0.75839   0.83543   1.15770   1.55246
 Alpha virt. eigenvalues --    1.60577   1.60577   1.62841   1.62841   1.63684

  Beta  occ. eigenvalues --  -20.76838 -20.76826  -1.22444  -1.18328  -0.45081
  Beta  occ. eigenvalues --   -0.35651  -0.35651
  Beta virt. eigenvalues --   -0.12326  -0.12326  -0.11914   0.73956   0.73956
  Beta virt. eigenvalues --    0.77155   0.77380   0.84318   0.84318   0.86689
  Beta virt. eigenvalues --    1.18996   1.57761   1.64249   1.64249   1.70347

 Mulliken charges and spin densities:
               1          2
     1  O   -0.000000   1.000000
     2  O   -0.000000   1.000000
 Sum of Mulliken charges =  -0.00000   2.00000

 Dipole moment (field-independent basis, Debye):
    X=              0.0000    Y=              0.0000    Z=              0.0000  Tot=              0.0000
 Quadrupole moment (field-independent basis, Debye-Ang):
   XX=            -10.8406   YY=            -10.8406   ZZ=             -8.7615
   XY=              0.0000   XZ=             -0.0000   YZ=              0.0000

 8489\PMP3-0=-149.4608562\MP4SDQ=-150.000813\CCSD=-149.8046532\CCSD(T)=
 Normal termination of Gaussian 16 at Fri Feb  9 17:58:43 2024.
