 Gaussian 16, Revision A.03,
 Gaussian 16:  ES64L-G16RevA.03 25-Dec-2016

 ------------------
 #p CCSD(T)/cc-pVTZ
 ------------------

 -----
 O2_53
 -----
 Symbolic Z-matrix:
 Charge =  0 Multiplicity = 3

                         Standard orientation:
 ---------------------------------------------------------------------
 Center     Atomic      Atomic             Coordinates (Angstroms)
 Number     Number       Type             X           Y           Z
 ---------------------------------------------------------------------
      1          8           0        0.000000    0.000000    1.195000
      2          8           0        0.000000    0.000000   -1.195000
 ---------------------------------------------------------------------

 SCF Done:  E(UHF) =  -149.200586557     A.U. after   11 cycles
 E2 =    -0.8976252821D+00 EUMP2 =    -0.15009821183924D+03
 CCSD(T)
 CCSD(T)= -0.14988652721D+03

 The electronic state is 3-SGG.
 Alpha  occ. eigenvalues --  -20.82301 -20.82294  -1.41809  -1.38988  -0.72443
 Alpha  occ. eigenvalues --   -0.72443  -0.71020  -0.71020  -0.49424
 Alpha virt. eigenvalues --   -0.16531   0.64594   0.64594   0.74304   0.76097
 Alpha virt. eigenvalues --    0.76097   0.76418   0.83302   1.16744   1.53642
 Alpha virt. eigenvalues --    1.59650   1.59650   1.62717   1.62717   1.63828

  Beta  occ. eigenvalues --  -20.76874 -20.76862  -1.22712  -1.18103  -0.45806
  Beta  occ. eigenvalues --   -0.36017  -0.36017
  Beta virt. eigenvalues --   -0.11895  -0.11895  -0.11119   0.73951   0.73951
  Beta virt. eigenvalues --    0.76551   0.79345   0.84553   0.84553   0.86363
  Beta virt. eigenvalues --    1.19965   1.56121   1.63269   1.63269   1.70201

 Mulliken charges and spin densities:
               1          2
     1  O   -0.000000   1.000000
     2  O   -0.000000   1.000000
 Sum of Mulliken charges =  -0.00000   2.00000

 Dipole moment (field-independent basis, Debye):
    X=             -0.0000    Y=             -0.0000    Z=              0.0000  Tot=              0.0000
 Quadrupole moment (field-independent basis, Debye-Ang):
   XX=            -10.8413   YY=            -10.8413   ZZ=             -8.7731
   XY=              0.0000   XZ=             -0.0000   YZ=              0.0000

 9212\PMP3-0=-149.514144\MP4SDQ=-149.9745229\CCSD=-149.8112131\CCSD(T)=
 Normal termination of Gaussian 16 at Fri Feb  9 17:58:18 2024.
