 Gaussian 16, Revision A.03,
 Gaussian 16:  ES64L-G16RevA.03 25-Dec-2016

 ------------------
 #p CCSD(T)/cc-pVTZ
 ------------------

 -----
 O2_59
 -----
 Symbolic Z-matrix:
 Charge =  0 Multiplicity = 3

                         Standard orientation:
 ---------------------------------------------------------------------
 Center     Atomic      Atomic             Coordinates (Angstroms)
 Number     Number       Type             X           Y           Z
 ---------------------------------------------------------------------
      1          8           0        0.000000    0.000000    1.285000
      2          8           0        0.000000    0.000000   -1.285000
 ---------------------------------------------------------------------

 SCF Done:  E(UHF) =  -149.159454301     A.U. after   11 cycles
 E2 =    -0.9977166507D+00 EUMP2 =    -0.15015717095132D+03
 CCSD(T)
 CCSD(T)= -0.14988570677D+03

 The electronic state is 3-SGG.
 Alpha  occ. eigenvalues --  -20.82112 -20.82107  -1.41236  -1.39320  -0.72115
 Alpha  occ. eigenvalues --   -0.72115  -0.71187  -0.71187  -0.47488
 Alpha virt. eigenvalues --   -0.18594   0.64943   0.64943   0.71254   0.75283
 Alpha virt. eigenvalues --    0.75283   0.75967   0.83998   1.13755   1.58176
 Alpha virt. eigenvalues --    1.62011   1.62011   1.63014   1.63014   1.63487

  Beta  occ. eigenvalues --  -20.76733 -20.76723  -1.22000  -1.18694  -0.43757
  Beta  occ. eigenvalues --   -0.34984  -0.34984
  Beta virt. eigenvalues --   -0.13321  -0.13094  -0.13094   0.73910   0.74096
  Beta virt. eigenvalues --    0.74096   0.78322   0.83805   0.83805   0.87271
  Beta virt. eigenvalues --    1.17003   1.60769   1.65772   1.65772   1.70555

 Mulliken charges and spin densities:
               1          2
     1  O   -0.000000   1.000000
     2  O   -0.000000   1.000000
 Sum of Mulliken charges =  -0.00000   2.00000

 Dipole moment (field-independent basis, Debye):
    X=              0.0000    Y=              0.0000    Z=             -0.0000  Tot=              0.0000
 Quadrupole moment (field-independent basis, Debye-Ang):
   XX=            -10.8365   YY=            -10.8365   ZZ=             -8.7567
   XY=              0.0000   XZ=             -0.0000   YZ=              0.0000

 529\PMP3-0=-149.3415265\MP4SDQ=-150.0767741\CCSD=-149.794692\CCSD(T)=-
 Normal termination of Gaussian 16 at Fri Feb  9 17:59:34 2024.
