 Gaussian 16, Revision A.03,
 Gaussian 16:  ES64L-G16RevA.03 25-Dec-2016

 ------------------
 #p CCSD(T)/cc-pVTZ
 ------------------

 -----
 O2_56
 -----
 Symbolic Z-matrix:
 Charge =  0 Multiplicity = 3

                         Standard orientation:
 ---------------------------------------------------------------------
 Center     Atomic      Atomic             Coordinates (Angstroms)
 Number     Number       Type             X           Y           Z
 ---------------------------------------------------------------------
      1          8           0        0.000000    0.000000    1.240000
      2          8           0        0.000000    0.000000   -1.240000
 ---------------------------------------------------------------------

 SCF Done:  E(UHF) =  -149.179009167     A.U. after   11 cycles
 E2 =    -0.9468819016D+00 EUMP2 =    -0.15012589106811D+03
 CCSD(T)
 CCSD(T)= -0.14988445730D+03

 The electronic state is 3-SGG.
 Alpha  occ. eigenvalues --  -20.82218 -20.82212  -1.41498  -1.39181  -0.72272
 Alpha  occ. eigenvalues --   -0.72272  -0.71124  -0.71124  -0.48408
 Alpha virt. eigenvalues --   -0.17628   0.64728   0.64728   0.73670   0.75150
 Alpha virt. eigenvalues --    0.75704   0.75704   0.83661   1.15278   1.56022
 Alpha virt. eigenvalues --    1.60985   1.60985   1.62892   1.62892   1.63624

  Beta  occ. eigenvalues --  -20.76815 -20.76804  -1.22323  -1.18430  -0.44734
  Beta  occ. eigenvalues --   -0.35477  -0.35477
  Beta virt. eigenvalues --   -0.12530  -0.12530  -0.12288   0.73976   0.73976
  Beta virt. eigenvalues --    0.76452   0.77452   0.84195   0.84195   0.86842
  Beta virt. eigenvalues --    1.18509   1.58557   1.64682   1.64682   1.70409

 Mulliken charges and spin densities:
               1          2
     1  O   -0.000000   1.000000
     2  O   -0.000000   1.000000
 Sum of Mulliken charges =  -0.00000   2.00000

 Dipole moment (field-independent basis, Debye):
    X=             -0.0000    Y=             -0.0000    Z=             -0.0000  Tot=              0.0000
 Quadrupole moment (field-independent basis, Debye-Ang):
   XX=            -10.8399   YY=            -10.8399   ZZ=             -8.7580
   XY=              0.0000   XZ=             -0.0000   YZ=              0.0000

 Normal termination of Gaussian 16 at Fri Feb  9 17:58:55 2024.
