 Gaussian 16, Revision A.03,
 Gaussian 16:  ES64L-G16RevA.03 25-Dec-2016

 ------------------
 #p CCSD(T)/cc-pVTZ
 ------------------

 -----
 O2_58
 -----
 Symbolic Z-matrix:
 Charge =  0 Multiplicity = 3

                         Standard orientation:
 ---------------------------------------------------------------------
 Center     Atomic      Atomic             Coordinates (Angstroms)
 Number     Number       Type             X           Y           Z
 ---------------------------------------------------------------------
      1          8           0        0.000000    0.000000    1.270000
      2          8           0        0.000000    0.000000   -1.270000
 ---------------------------------------------------------------------

 SCF Done:  E(UHF) =  -149.165760414     A.U. after   11 cycles
 E2 =    -0.9806019107D+00 EUMP2 =    -0.15014636232476D+03
 CCSD(T)
 CCSD(T)= -0.14988495090D+03

 The electronic state is 3-SGG.
 Alpha  occ. eigenvalues --  -20.82150 -20.82144  -1.41318  -1.39279  -0.72166
 Alpha  occ. eigenvalues --   -0.72166  -0.71170  -0.71170  -0.47785
 Alpha virt. eigenvalues --   -0.18285   0.64864   0.64864   0.72019   0.75426
 Alpha virt. eigenvalues --    0.75426   0.75698   0.83889   1.14273   1.57492
 Alpha virt. eigenvalues --    1.61701   1.61701   1.62978   1.62978   1.63526

  Beta  occ. eigenvalues --  -20.76762 -20.76752  -1.22101  -1.18612  -0.44073
  Beta  occ. eigenvalues --   -0.35144  -0.35144
  Beta virt. eigenvalues --   -0.12990  -0.12913  -0.12913   0.74046   0.74046
  Beta virt. eigenvalues --    0.74715   0.78036   0.83938   0.83938   0.87133
  Beta virt. eigenvalues --    1.17514   1.60066   1.65442   1.65442   1.70512

 Mulliken charges and spin densities:
               1          2
     1  O    0.000000   1.000000
     2  O    0.000000   1.000000
 Sum of Mulliken charges =   0.00000   2.00000

 Dipole moment (field-independent basis, Debye):
    X=              0.0000    Y=              0.0000    Z=              0.0000  Tot=              0.0000
 Quadrupole moment (field-independent basis, Debye-Ang):
   XX=            -10.8378   YY=            -10.8378   ZZ=             -8.7556
   XY=              0.0000   XZ=             -0.0000   YZ=              0.0000

 977\PMP3-0=-149.3730491\MP4SDQ=-150.0545573\CCSD=-149.796815\CCSD(T)=-
 Normal termination of Gaussian 16 at Fri Feb  9 17:59:22 2024.
