 Gaussian 16, Revision A.03,
 Gaussian 16:  ES64L-G16RevA.03 25-Dec-2016

 ------------------
 #p CCSD(T)/cc-pVTZ
 ------------------

 -----
 O2_50
 -----
 Symbolic Z-matrix:
 Charge =  0 Multiplicity = 3

                         Standard orientation:
 ---------------------------------------------------------------------
 Center     Atomic      Atomic             Coordinates (Angstroms)
 Number     Number       Type             X           Y           Z
 ---------------------------------------------------------------------
      1          8           0        0.000000    0.000000    1.150000
      2          8           0        0.000000    0.000000   -1.150000
 ---------------------------------------------------------------------

 SCF Done:  E(UHF) =  -149.224397170     A.U. after   11 cycles
 E2 =    -0.8500377947D+00 EUMP2 =    -0.15007443496486D+03
 CCSD(T)
 CCSD(T)= -0.14989213441D+03

 The electronic state is 3-SGG.
 Alpha  occ. eigenvalues --  -20.82354 -20.82347  -1.42183  -1.38726  -0.72631
 Alpha  occ. eigenvalues --   -0.72631  -0.70864  -0.70864  -0.50548
 Alpha virt. eigenvalues --   -0.15275   0.64557   0.64557   0.73438   0.76457
 Alpha virt. eigenvalues --    0.76457   0.79354   0.82984   1.18215   1.51253
 Alpha virt. eigenvalues --    1.57975   1.57975   1.62466   1.62466   1.64120

  Beta  occ. eigenvalues --  -20.76903 -20.76889  -1.23186  -1.17701  -0.46979
  Beta  occ. eigenvalues --   -0.36613  -0.36613
  Beta virt. eigenvalues --   -0.11180  -0.11180  -0.09785   0.74038   0.74038
  Beta virt. eigenvalues --    0.75628   0.82499   0.84874   0.84874   0.85829
  Beta virt. eigenvalues --    1.21434   1.53694   1.61498   1.61498   1.69908

 Mulliken charges and spin densities:
               1          2
     1  O   -0.000000   1.000000
     2  O   -0.000000   1.000000
 Sum of Mulliken charges =  -0.00000   2.00000

 Dipole moment (field-independent basis, Debye):
    X=             -0.0000    Y=              0.0000    Z=              0.0000  Tot=              0.0000
 Quadrupole moment (field-independent basis, Debye-Ang):
   XX=            -10.8398   YY=            -10.8398   ZZ=             -8.8022
   XY=              0.0000   XZ=             -0.0000   YZ=              0.0000

 5\PMP3-0=-149.5869952\MP4SDQ=-149.9471937\CCSD=-149.8231918\CCSD(T)=-1
 Normal termination of Gaussian 16 at Fri Feb  9 17:57:39 2024.
