 Gaussian 16, Revision A.03,
 Gaussian 16:  ES64L-G16RevA.03 25-Dec-2016

 ------------------
 #p CCSD(T)/cc-pVTZ
 ------------------

 -----
 O2_52
 -----
 Symbolic Z-matrix:
 Charge =  0 Multiplicity = 3

                         Standard orientation:
 ---------------------------------------------------------------------
 Center     Atomic      Atomic             Coordinates (Angstroms)
 Number     Number       Type             X           Y           Z
 ---------------------------------------------------------------------
      1          8           0        0.000000    0.000000    1.180000
      2          8           0        0.000000    0.000000   -1.180000
 ---------------------------------------------------------------------

 SCF Done:  E(UHF) =  -149.208264618     A.U. after   11 cycles
 E2 =    -0.8815728054D+00 EUMP2 =    -0.15008983742343D+03
 CCSD(T)
 CCSD(T)= -0.14988800258D+03

 The electronic state is 3-SGG.
 Alpha  occ. eigenvalues --  -20.82322 -20.82315  -1.41926  -1.38909  -0.72504
 Alpha  occ. eigenvalues --   -0.72504  -0.70974  -0.70974  -0.49786
 Alpha virt. eigenvalues --   -0.16131   0.64570   0.64570   0.74017   0.76221
 Alpha virt. eigenvalues --    0.76221   0.77389   0.83184   1.17232   1.52832
 Alpha virt. eigenvalues --    1.59131   1.59131   1.62643   1.62643   1.63915

  Beta  occ. eigenvalues --  -20.76887 -20.76874  -1.22860  -1.17978  -0.46185
  Beta  occ. eigenvalues --   -0.36209  -0.36209
  Beta virt. eigenvalues --   -0.11666  -0.11666  -0.10694   0.73967   0.73967
  Beta virt. eigenvalues --    0.76246   0.80374   0.84664   0.84664   0.86191
  Beta virt. eigenvalues --    1.20450   1.55295   1.62719   1.62719   1.70114

 Mulliken charges and spin densities:
               1          2
     1  O    0.000000   1.000000
     2  O    0.000000   1.000000
 Sum of Mulliken charges =   0.00000   2.00000

 Dipole moment (field-independent basis, Debye):
    X=              0.0000    Y=             -0.0000    Z=              0.0000  Tot=              0.0000
 Quadrupole moment (field-independent basis, Debye-Ang):
   XX=            -10.8412   YY=            -10.8412   ZZ=             -8.7813
   XY=              0.0000   XZ=             -0.0000   YZ=              0.0000

 Normal termination of Gaussian 16 at Fri Feb  9 17:58:05 2024.
