 Gaussian 16, Revision A.03,
 Gaussian 16:  ES64L-G16RevA.03 25-Dec-2016

 ------------------
 #p CCSD(T)/cc-pVTZ
 ------------------

 -----
 O2_65
 -----
 Symbolic Z-matrix:
 Charge =  0 Multiplicity = 3

                         Standard orientation:
 ---------------------------------------------------------------------
 Center     Atomic      Atomic             Coordinates (Angstroms)
 Number     Number       Type             X           Y           Z
 ---------------------------------------------------------------------
      1          8           0        0.000000    0.000000    1.375000
      2          8           0        0.000000    0.000000   -1.375000
 ---------------------------------------------------------------------

 SCF Done:  E(UHF) =  -149.125631727     A.U. after   11 cycles
 E2 =    -0.1103768877D+01 EUMP2 =    -0.15022940060424D+03
 CCSD(T)
 CCSD(T)= -0.14989560370D+03

 The electronic state is 3-SGG.
 Alpha  occ. eigenvalues --  -20.81854 -20.81850  -1.40813  -1.39477  -0.71829
 Alpha  occ. eigenvalues --   -0.71829  -0.71221  -0.71221  -0.45894
 Alpha virt. eigenvalues --   -0.20212   0.65549   0.65549   0.67570   0.74386
 Alpha virt. eigenvalues --    0.74386   0.77474   0.84587   1.10331   1.61444
 Alpha virt. eigenvalues --    1.63158   1.63158   1.63328   1.63328   1.63345

  Beta  occ. eigenvalues --  -20.76518 -20.76510  -1.21499  -1.19076  -0.42048
  Beta  occ. eigenvalues --   -0.34113  -0.34113
  Beta virt. eigenvalues --   -0.15071  -0.14045  -0.14045   0.70015   0.74551
  Beta virt. eigenvalues --    0.74551   0.79917   0.82957   0.82957   0.88007
  Beta virt. eigenvalues --    1.13622   1.64138   1.67181   1.67181   1.70719

 Mulliken charges and spin densities:
               1          2
     1  O   -0.000000   1.000000
     2  O   -0.000000   1.000000
 Sum of Mulliken charges =  -0.00000   2.00000

 Dipole moment (field-independent basis, Debye):
    X=              0.0000    Y=              0.0000    Z=             -0.0000  Tot=              0.0000
 Quadrupole moment (field-independent basis, Debye-Ang):
   XX=            -10.8269   YY=            -10.8269   ZZ=             -8.7953
   XY=              0.0000   XZ=             -0.0000   YZ=              0.0000

 Normal termination of Gaussian 16 at Fri Feb  9 18:01:04 2024.
