 Gaussian 16, Revision A.03,
 Gaussian 16:  ES64L-G16RevA.03 25-Dec-2016

 ------------------
 #p CCSD(T)/cc-pVTZ
 ------------------

 -----
 O2_60
 -----
 Symbolic Z-matrix:
 Charge =  0 Multiplicity = 3

                         Standard orientation:
 ---------------------------------------------------------------------
 Center     Atomic      Atomic             Coordinates (Angstroms)
 Number     Number       Type             X           Y           Z
 ---------------------------------------------------------------------
      1          8           0        0.000000    0.000000    1.300000
      2          8           0        0.000000    0.000000   -1.300000
 ---------------------------------------------------------------------

 SCF Done:  E(UHF) =  -149.153350706     A.U. after   11 cycles
 E2 =    -0.1014996890D+01 EUMP2 =    -0.15016834759676D+03
 CCSD(T)
 CCSD(T)= -0.14988676931D+03

 The electronic state is 3-SGG.
 Alpha  occ. eigenvalues --  -20.82073 -20.82068  -1.41157  -1.39356  -0.72065
 Alpha  occ. eigenvalues --   -0.72065  -0.71201  -0.71201  -0.47201
 Alpha virt. eigenvalues --   -0.18890   0.65030   0.65030   0.70532   0.75137
 Alpha virt. eigenvalues --    0.75137   0.76231   0.84103   1.13225   1.58822
 Alpha virt. eigenvalues --    1.62293   1.62293   1.63045   1.63045   1.63452

  Beta  occ. eigenvalues --  -20.76701 -20.76691  -1.21904  -1.18770  -0.43450
  Beta  occ. eigenvalues --   -0.34829  -0.34829
  Beta virt. eigenvalues --   -0.13640  -0.13269  -0.13269   0.73149   0.74154
  Beta virt. eigenvalues --    0.74154   0.78603   0.83669   0.83669   0.87404
  Beta virt. eigenvalues --    1.16480   1.61434   1.66071   1.66071   1.70594

 Mulliken charges and spin densities:
               1          2
     1  O   -0.000000   1.000000
     2  O   -0.000000   1.000000
 Sum of Mulliken charges =  -0.00000   2.00000

 Dipole moment (field-independent basis, Debye):
    X=             -0.0000    Y=             -0.0000    Z=             -0.0000  Tot=              0.0000
 Quadrupole moment (field-independent basis, Debye-Ang):
   XX=            -10.8351   YY=            -10.8351   ZZ=             -8.7594
   XY=              0.0000   XZ=             -0.0000   YZ=              0.0000

 768\PMP3-0=-149.3088153\MP4SDQ=-150.1013591\CCSD=-149.7927911\CCSD(T)=
 Normal termination of Gaussian 16 at Fri Feb  9 17:59:47 2024.
