 Gaussian 16, Revision A.03,
 Gaussian 16:  ES64L-G16RevA.03 25-Dec-2016

 ------------------
 #p CCSD(T)/cc-pVTZ
 ------------------

 -----
 O2_62
 -----
 Symbolic Z-matrix:
 Charge =  0 Multiplicity = 3

                         Standard orientation:
 ---------------------------------------------------------------------
 Center     Atomic      Atomic             Coordinates (Angstroms)
 Number     Number       Type             X           Y           Z
 ---------------------------------------------------------------------
      1          8           0        0.000000    0.000000    1.330000
      2          8           0        0.000000    0.000000   -1.330000
 ---------------------------------------------------------------------

 SCF Done:  E(UHF) =  -149.141723200     A.U. after   11 cycles
 E2 =    -0.1050041089D+01 EUMP2 =    -0.15019176428916D+03
 CCSD(T)
 CCSD(T)= -0.14988969404D+03

 The electronic state is 3-SGG.
 Alpha  occ. eigenvalues --  -20.81990 -20.81985  -1.41010  -1.39416  -0.71968
 Alpha  occ. eigenvalues --   -0.71968  -0.71217  -0.71217  -0.46653
 Alpha virt. eigenvalues --   -0.19450   0.65222   0.65222   0.69217   0.74840
 Alpha virt. eigenvalues --    0.74840   0.76745   0.84305   1.12120   1.59993
 Alpha virt. eigenvalues --    1.62775   1.62775   1.63098   1.63098   1.63398

  Beta  occ. eigenvalues --  -20.76632 -20.76623  -1.21729  -1.18907  -0.42864
  Beta  occ. eigenvalues --   -0.34532  -0.34532
  Beta virt. eigenvalues --   -0.14243  -0.13597  -0.13597   0.71761   0.74293
  Beta virt. eigenvalues --    0.74293   0.79147   0.83389   0.83389   0.87657
  Beta virt. eigenvalues --    1.15389   1.62641   1.66587   1.66587   1.70659

 Mulliken charges and spin densities:
               1          2
     1  O   -0.000000   1.000000
     2  O   -0.000000   1.000000
 Sum of Mulliken charges =  -0.00000   2.00000

 Dipole moment (field-independent basis, Debye):
    X=             -0.0000    Y=              0.0000    Z=             -0.0000  Tot=              0.0000
 Quadrupole moment (field-independent basis, Debye-Ang):
   XX=            -10.8320   YY=            -10.8320   ZZ=             -8.7692
   XY=              0.0000   XZ=             -0.0000   YZ=              0.0000

 9905\PMP3-0=-149.239684\MP4SDQ=-150.1581882\CCSD=-149.7895912\CCSD(T)=
 Normal termination of Gaussian 16 at Fri Feb  9 18:00:15 2024.
