 Gaussian 16, Revision A.03,
 Gaussian 16:  ES64L-G16RevA.03 25-Dec-2016

 ------------------
 #p CCSD(T)/cc-pVTZ
 ------------------

 -----
 O2_68
 -----
 Symbolic Z-matrix:
 Charge =  0 Multiplicity = 3

                         Standard orientation:
 ---------------------------------------------------------------------
 Center     Atomic      Atomic             Coordinates (Angstroms)
 Number     Number       Type             X           Y           Z
 ---------------------------------------------------------------------
      1          8           0        0.000000    0.000000    1.420000
      2          8           0        0.000000    0.000000   -1.420000
 ---------------------------------------------------------------------

 SCF Done:  E(UHF) =  -149.111011976     A.U. after   11 cycles
 E2 =    -0.1158811701D+01 EUMP2 =    -0.15026982367697D+03
 CCSD(T)
 CCSD(T)= -0.14990261462D+03

 The electronic state is 3-SGG.
 Alpha  occ. eigenvalues --  -20.81709 -20.81705  -1.40638  -1.39511  -0.71697
 Alpha  occ. eigenvalues --   -0.71697  -0.71203  -0.71203  -0.45201
 Alpha virt. eigenvalues --   -0.20895   0.65907   0.65907   0.66308   0.73931
 Alpha virt. eigenvalues --    0.73931   0.78144   0.84846   1.08374   1.62548
 Alpha virt. eigenvalues --    1.63204   1.63204   1.63319   1.63319   1.63719

  Beta  occ. eigenvalues --  -20.76393 -20.76386  -1.21301  -1.19209  -0.41302
  Beta  occ. eigenvalues --   -0.33722  -0.33722
  Beta virt. eigenvalues --   -0.15818  -0.14445  -0.14445   0.68666   0.74851
  Beta virt. eigenvalues --    0.74851   0.80617   0.82521   0.82521   0.88329
  Beta virt. eigenvalues --    1.11688   1.65280   1.67605   1.67605   1.70130

 Mulliken charges and spin densities:
               1          2
     1  O    0.000000   1.000000
     2  O    0.000000   1.000000
 Sum of Mulliken charges =   0.00000   2.00000

 Dipole moment (field-independent basis, Debye):
    X=              0.0000    Y=             -0.0000    Z=              0.0000  Tot=              0.0000
 Quadrupole moment (field-independent basis, Debye-Ang):
   XX=            -10.8217   YY=            -10.8217   ZZ=             -8.8344
   XY=              0.0000   XZ=             -0.0000   YZ=              0.0000

 51\PMP3-0=-149.0002101\MP4SDQ=-150.4007288\CCSD=-149.7836573\CCSD(T)=-
 Normal termination of Gaussian 16 at Fri Feb  9 18:01:51 2024.
