 Gaussian 16, Revision A.03,
 Gaussian 16:  ES64L-G16RevA.03 25-Dec-2016

 ------------------
 #p CCSD(T)/cc-pVTZ
 ------------------

 -----
 O2_63
 -----
 Symbolic Z-matrix:
 Charge =  0 Multiplicity = 3

                         Standard orientation:
 ---------------------------------------------------------------------
 Center     Atomic      Atomic             Coordinates (Angstroms)
 Number     Number       Type             X           Y           Z
 ---------------------------------------------------------------------
      1          8           0        0.000000    0.000000    1.345000
      2          8           0        0.000000    0.000000   -1.345000
 ---------------------------------------------------------------------

 SCF Done:  E(UHF) =  -149.136185831     A.U. after   11 cycles
 E2 =    -0.1067798690D+01 EUMP2 =    -0.15020398452141D+03
 CCSD(T)
 CCSD(T)= -0.14989149286D+03

 The electronic state is 3-SGG.
 Alpha  occ. eigenvalues --  -20.81946 -20.81941  -1.40942  -1.39440  -0.71921
 Alpha  occ. eigenvalues --   -0.71921  -0.71221  -0.71221  -0.46392
 Alpha virt. eigenvalues --   -0.19714   0.65327   0.65327   0.68625   0.74689
 Alpha virt. eigenvalues --    0.74689   0.76994   0.84402   1.11542   1.60517
 Alpha virt. eigenvalues --    1.62980   1.62980   1.63120   1.63120   1.63377

  Beta  occ. eigenvalues --  -20.76596 -20.76587  -1.21649  -1.18968  -0.42584
  Beta  occ. eigenvalues --   -0.34388  -0.34388
  Beta virt. eigenvalues --   -0.14529  -0.13752  -0.13752   0.71134   0.74373
  Beta virt. eigenvalues --    0.74373   0.79411   0.83246   0.83246   0.87777
  Beta virt. eigenvalues --    1.14819   1.63181   1.66807   1.66807   1.70687

 Mulliken charges and spin densities:
               1          2
     1  O    0.000000   1.000000
     2  O    0.000000   1.000000
 Sum of Mulliken charges =   0.00000   2.00000

 Dipole moment (field-independent basis, Debye):
    X=             -0.0000    Y=              0.0000    Z=             -0.0000  Tot=              0.0000
 Quadrupole moment (field-independent basis, Debye-Ang):
   XX=            -10.8303   YY=            -10.8303   ZZ=             -8.7764
   XY=              0.0000   XZ=             -0.0000   YZ=              0.0000

 Normal termination of Gaussian 16 at Fri Feb  9 18:00:31 2024.
