 Gaussian 16, Revision A.03,
 Gaussian 16:  ES64L-G16RevA.03 25-Dec-2016

 ------------------
 #p CCSD(T)/cc-pVTZ
 ------------------

 -----
 O2_69
 -----
 Symbolic Z-matrix:
 Charge =  0 Multiplicity = 3

                         Standard orientation:
 ---------------------------------------------------------------------
 Center     Atomic      Atomic             Coordinates (Angstroms)
 Number     Number       Type             X           Y           Z
 ---------------------------------------------------------------------
      1          8           0        0.000000    0.000000    1.435000
      2          8           0        0.000000    0.000000   -1.435000
 ---------------------------------------------------------------------

 SCF Done:  E(UHF) =  -149.106439196     A.U. after   11 cycles
 E2 =    -0.1177435223D+01 EUMP2 =    -0.15028387441948D+03
 CCSD(T)
 CCSD(T)= -0.14990507539D+03

 The electronic state is 3-SGG.
 Alpha  occ. eigenvalues --  -20.81659 -20.81655  -1.40583  -1.39516  -0.71653
 Alpha  occ. eigenvalues --   -0.71653  -0.71193  -0.71193  -0.44984
 Alpha virt. eigenvalues --   -0.21107   0.65970   0.66031   0.66031   0.73781
 Alpha virt. eigenvalues --    0.73781   0.78353   0.84928   1.07687   1.62847
 Alpha virt. eigenvalues --    1.63217   1.63217   1.63315   1.63315   1.63821

  Beta  occ. eigenvalues --  -20.76350 -20.76342  -1.21241  -1.19247  -0.41067
  Beta  occ. eigenvalues --   -0.33598  -0.33598
  Beta virt. eigenvalues --   -0.16051  -0.14568  -0.14568   0.68301   0.74959
  Beta virt. eigenvalues --    0.74959   0.80834   0.82376   0.82376   0.88431
  Beta virt. eigenvalues --    1.11009   1.65590   1.67717   1.67717   1.69977

 Mulliken charges and spin densities:
               1          2
     1  O   -0.000000   1.000000
     2  O   -0.000000   1.000000
 Sum of Mulliken charges =  -0.00000   2.00000

 Dipole moment (field-independent basis, Debye):
    X=             -0.0000    Y=             -0.0000    Z=             -0.0000  Tot=              0.0000
 Quadrupole moment (field-independent basis, Debye-Ang):
   XX=            -10.8199   YY=            -10.8199   ZZ=             -8.8502
   XY=              0.0000   XZ=             -0.0000   YZ=              0.0000

 Normal termination of Gaussian 16 at Fri Feb  9 18:02:06 2024.
