 Gaussian 16, Revision A.03,
 Gaussian 16:  ES64L-G16RevA.03 25-Dec-2016

 ------------------
 #p CCSD(T)/cc-pVTZ
 ------------------

 -----
 O2_66
 -----
 Symbolic Z-matrix:
 Charge =  0 Multiplicity = 3

                         Standard orientation:
 ---------------------------------------------------------------------
 Center     Atomic      Atomic             Coordinates (Angstroms)
 Number     Number       Type             X           Y           Z
 ---------------------------------------------------------------------
      1          8           0        0.000000    0.000000    1.390000
      2          8           0        0.000000    0.000000   -1.390000
 ---------------------------------------------------------------------

 SCF Done:  E(UHF) =  -149.120602757     A.U. after   11 cycles
 E2 =    -0.1121974903D+01 EUMP2 =    -0.15024257765993D+03
 CCSD(T)
 CCSD(T)= -0.14989785526D+03

 The electronic state is 3-SGG.
 Alpha  occ. eigenvalues --  -20.81807 -20.81803  -1.40753  -1.39491  -0.71784
 Alpha  occ. eigenvalues --   -0.71784  -0.71217  -0.71217  -0.45656
 Alpha virt. eigenvalues --   -0.20448   0.65665   0.65665   0.67107   0.74234
 Alpha virt. eigenvalues --    0.74234   0.77705   0.84675   1.09697   1.61849
 Alpha virt. eigenvalues --    1.63175   1.63175   1.63334   1.63334   1.63474

  Beta  occ. eigenvalues --  -20.76478 -20.76470  -1.21430  -1.19125  -0.41792
  Beta  occ. eigenvalues --   -0.33980  -0.33980
  Beta virt. eigenvalues --   -0.15328  -0.14184  -0.14184   0.69522   0.74647
  Beta virt. eigenvalues --    0.74647   0.80159   0.82812   0.82812   0.88117
  Beta virt. eigenvalues --    1.12996   1.64556   1.67339   1.67339   1.70499

 Mulliken charges and spin densities:
               1          2
     1  O   -0.000000   1.000000
     2  O   -0.000000   1.000000
 Sum of Mulliken charges =  -0.00000   2.00000

 Dipole moment (field-independent basis, Debye):
    X=             -0.0000    Y=              0.0000    Z=             -0.0000  Tot=              0.0000
 Quadrupole moment (field-independent basis, Debye-Ang):
   XX=            -10.8252   YY=            -10.8252   ZZ=             -8.8069
   XY=              0.0000   XZ=             -0.0000   YZ=              0.0000

 096\PMP3-0=-149.0856344\MP4SDQ=-150.3066181\CCSD=-149.7851452\CCSD(T)=
 Normal termination of Gaussian 16 at Fri Feb  9 18:01:18 2024.
