 Gaussian 16, Revision A.03,
 Gaussian 16:  ES64L-G16RevA.03 25-Dec-2016

 ------------------
 #p CCSD(T)/cc-pVTZ
 ------------------

 -----
 O2_64
 -----
 Symbolic Z-matrix:
 Charge =  0 Multiplicity = 3

                         Standard orientation:
 ---------------------------------------------------------------------
 Center     Atomic      Atomic             Coordinates (Angstroms)
 Number     Number       Type             X           Y           Z
 ---------------------------------------------------------------------
      1          8           0        0.000000    0.000000    1.360000
      2          8           0        0.000000    0.000000   -1.360000
 ---------------------------------------------------------------------

 SCF Done:  E(UHF) =  -149.130824081     A.U. after   11 cycles
 E2 =    -0.1085709034D+01 EUMP2 =    -0.15021653311502D+03
 CCSD(T)
 CCSD(T)= -0.14989347313D+03

 The electronic state is 3-SGG.
 Alpha  occ. eigenvalues --  -20.81900 -20.81896  -1.40876  -1.39460  -0.71875
 Alpha  occ. eigenvalues --   -0.71875  -0.71222  -0.71222  -0.46139
 Alpha virt. eigenvalues --   -0.19968   0.65436   0.65436   0.68076   0.74538
 Alpha virt. eigenvalues --    0.74538   0.77237   0.84496   1.10946   1.61001
 Alpha virt. eigenvalues --    1.63140   1.63140   1.63164   1.63164   1.63360

  Beta  occ. eigenvalues --  -20.76558 -20.76549  -1.21572  -1.19024  -0.42312
  Beta  occ. eigenvalues --   -0.34249  -0.34249
  Beta virt. eigenvalues --   -0.14804  -0.13902  -0.13902   0.70552   0.74459
  Beta virt. eigenvalues --    0.74459   0.79667   0.83102   0.83102   0.87894
  Beta virt. eigenvalues --    1.14230   1.63680   1.67004   1.67004   1.70712

 Mulliken charges and spin densities:
               1          2
     1  O   -0.000000   1.000000
     2  O   -0.000000   1.000000
 Sum of Mulliken charges =  -0.00000   2.00000

 Dipole moment (field-independent basis, Debye):
    X=             -0.0000    Y=             -0.0000    Z=              0.0000  Tot=              0.0000
 Quadrupole moment (field-independent basis, Debye-Ang):
   XX=            -10.8286   YY=            -10.8286   ZZ=             -8.7851
   XY=              0.0000   XZ=             -0.0000   YZ=              0.0000

 601\PMP3-0=-149.1653777\MP4SDQ=-150.2261998\CCSD=-149.787085\CCSD(T)=-
 Normal termination of Gaussian 16 at Fri Feb  9 18:00:46 2024.
