 Gaussian 16, Revision A.03,
 Gaussian 16:  ES64L-G16RevA.03 25-Dec-2016

 ------------------
 #p CCSD(T)/cc-pVTZ
 ------------------

 -----
 O2_67
 -----
 Symbolic Z-matrix:
 Charge =  0 Multiplicity = 3

                         Standard orientation:
 ---------------------------------------------------------------------
 Center     Atomic      Atomic             Coordinates (Angstroms)
 Number     Number       Type             X           Y           Z
 ---------------------------------------------------------------------
      1          8           0        0.000000    0.000000    1.405000
      2          8           0        0.000000    0.000000   -1.405000
 ---------------------------------------------------------------------

 SCF Done:  E(UHF) =  -149.115731370     A.U. after   11 cycles
 E2 =    -0.1140323693D+01 EUMP2 =    -0.15025605506305D+03
 CCSD(T)
 CCSD(T)= -0.14990020050D+03

 The electronic state is 3-SGG.
 Alpha  occ. eigenvalues --  -20.81758 -20.81754  -1.40694  -1.39502  -0.71740
 Alpha  occ. eigenvalues --   -0.71740  -0.71211  -0.71211  -0.45425
 Alpha virt. eigenvalues --   -0.20676   0.65785   0.65785   0.66687   0.74082
 Alpha virt. eigenvalues --    0.74082   0.77928   0.84762   1.09044   1.62216
 Alpha virt. eigenvalues --    1.63190   1.63190   1.63325   1.63325   1.63604

  Beta  occ. eigenvalues --  -20.76436 -20.76428  -1.21364  -1.19169  -0.41543
  Beta  occ. eigenvalues --   -0.33850  -0.33850
  Beta virt. eigenvalues --   -0.15577  -0.14317  -0.14317   0.69072   0.74747
  Beta virt. eigenvalues --    0.74747   0.80392   0.82666   0.82666   0.88224
  Beta virt. eigenvalues --    1.12351   1.64936   1.67480   1.67480   1.70303

 Mulliken charges and spin densities:
               1          2
     1  O    0.000000   1.000000
     2  O    0.000000   1.000000
 Sum of Mulliken charges =   0.00000   2.00000

 Dipole moment (field-independent basis, Debye):
    X=              0.0000    Y=              0.0000    Z=             -0.0000  Tot=              0.0000
 Quadrupole moment (field-independent basis, Debye-Ang):
   XX=            -10.8234   YY=            -10.8234   ZZ=             -8.8199
   XY=              0.0000   XZ=             -0.0000   YZ=              0.0000

 Normal termination of Gaussian 16 at Fri Feb  9 18:01:37 2024.
