 Gaussian 16, Revision A.03,
 Gaussian 16:  ES64L-G16RevA.03 25-Dec-2016

 ------------------
 #p CCSD(T)/cc-pVTZ
 ------------------

 -----
 O2_61
 -----
 Symbolic Z-matrix:
 Charge =  0 Multiplicity = 3

                         Standard orientation:
 ---------------------------------------------------------------------
 Center     Atomic      Atomic             Coordinates (Angstroms)
 Number     Number       Type             X           Y           Z
 ---------------------------------------------------------------------
      1          8           0        0.000000    0.000000    1.315000
      2          8           0        0.000000    0.000000   -1.315000
 ---------------------------------------------------------------------

 SCF Done:  E(UHF) =  -149.147442615     A.U. after   11 cycles
 E2 =    -0.1032439430D+01 EUMP2 =    -0.15017988204486D+03
 CCSD(T)
 CCSD(T)= -0.14988810873D+03

 The electronic state is 3-SGG.
 Alpha  occ. eigenvalues --  -20.82032 -20.82027  -1.41082  -1.39388  -0.72016
 Alpha  occ. eigenvalues --   -0.72016  -0.71211  -0.71211  -0.46923
 Alpha virt. eigenvalues --   -0.19175   0.65123   0.65123   0.69853   0.74989
 Alpha virt. eigenvalues --    0.74989   0.76491   0.84206   1.12681   1.59428
 Alpha virt. eigenvalues --    1.62547   1.62547   1.63073   1.63073   1.63423

  Beta  occ. eigenvalues --  -20.76667 -20.76658  -1.21814  -1.18841  -0.43152
  Beta  occ. eigenvalues --   -0.34678  -0.34678
  Beta virt. eigenvalues --   -0.13947  -0.13436  -0.13436   0.72433   0.74220
  Beta virt. eigenvalues --    0.74220   0.78878   0.83530   0.83530   0.87532
  Beta virt. eigenvalues --    1.15942   1.62058   1.66343   1.66343   1.70628

 Mulliken charges and spin densities:
               1          2
     1  O    0.000000   1.000000
     2  O    0.000000   1.000000
 Sum of Mulliken charges =   0.00000   2.00000

 Dipole moment (field-independent basis, Debye):
    X=              0.0000    Y=             -0.0000    Z=              0.0000  Tot=              0.0000
 Quadrupole moment (field-independent basis, Debye-Ang):
   XX=            -10.8336   YY=            -10.8336   ZZ=             -8.7635
   XY=              0.0000   XZ=             -0.0000   YZ=              0.0000

 593\PMP3-0=-149.2748795\MP4SDQ=-150.1284497\CCSD=-149.7910962\CCSD(T)=
 Normal termination of Gaussian 16 at Fri Feb  9 18:00:00 2024.
