 Gaussian 16, Revision A.03,
 Gaussian 16:  ES64L-G16RevA.03 25-Dec-2016

 ------------------
 #p CCSD(T)/cc-pVTZ
 ------------------

 ----
 O2_6
 ----
 Symbolic Z-matrix:
 Charge =  0 Multiplicity = 3

                         Standard orientation:
 ---------------------------------------------------------------------
 Center     Atomic      Atomic             Coordinates (Angstroms)
 Number     Number       Type             X           Y           Z
 ---------------------------------------------------------------------
      1          8           0        0.000000    0.000000    0.490000
      2          8           0        0.000000    0.000000   -0.490000
 ---------------------------------------------------------------------

 SCF Done:  E(UHF) =  -149.576239309     A.U. after   10 cycles
 E2 =    -0.3956290620D+00 EUMP2 =    -0.14997186837093D+03
 CCSD(T)
 CCSD(T)= -0.14999364092D+03

 The electronic state is 3-SGG.
 Alpha  occ. eigenvalues --  -20.70484 -20.70216  -1.95139  -1.11577  -0.94805
 Alpha  occ. eigenvalues --   -0.94805  -0.83831  -0.43043  -0.43043
 Alpha virt. eigenvalues --    0.47361   0.64966   0.64966   0.68634   0.80617
 Alpha virt. eigenvalues --    0.80617   0.87396   1.11335   1.36899   1.39596
 Alpha virt. eigenvalues --    1.39596   1.71348   1.71348   1.96814   1.96814

  Beta  occ. eigenvalues --  -20.65430 -20.65063  -1.85594  -0.91443  -0.75391
  Beta  occ. eigenvalues --   -0.71635  -0.71635
  Beta virt. eigenvalues --    0.22213   0.22213   0.49738   0.69340   0.69493
  Beta virt. eigenvalues --    0.69493   0.89867   0.91288   0.91288   1.18490
  Beta virt. eigenvalues --    1.41776   1.44491   1.44491   1.78846   1.78846

 Mulliken charges and spin densities:
               1          2
     1  O    0.000000   1.000000
     2  O    0.000000   1.000000
 Sum of Mulliken charges =   0.00000   2.00000

 Dipole moment (field-independent basis, Debye):
    X=              0.0000    Y=              0.0000    Z=             -0.0000  Tot=              0.0000
 Quadrupole moment (field-independent basis, Debye-Ang):
   XX=             -9.4013   YY=             -9.4013   ZZ=            -10.6318
   XY=              0.0000   XZ=              0.0000   YZ=              0.0000

 396\PMP3-0=-149.9809411\MP4SDQ=-149.9818451\CCSD=-149.981564\CCSD(T)=-
 Normal termination of Gaussian 16 at Fri Feb  9 17:48:43 2024.
