 Gaussian 16, Revision A.03,
 Gaussian 16:  ES64L-G16RevA.03 25-Dec-2016

 ------------------
 #p CCSD(T)/cc-pVTZ
 ------------------

 -----
 O2_73
 -----
 Symbolic Z-matrix:
 Charge =  0 Multiplicity = 3

                         Standard orientation:
 ---------------------------------------------------------------------
 Center     Atomic      Atomic             Coordinates (Angstroms)
 Number     Number       Type             X           Y           Z
 ---------------------------------------------------------------------
      1          8           0        0.000000    0.000000    1.495000
      2          8           0        0.000000    0.000000   -1.495000
 ---------------------------------------------------------------------

 SCF Done:  E(UHF) =  -149.089513859     A.U. after   11 cycles
 E2 =    -0.1253203611D+01 EUMP2 =    -0.15034271747063D+03
 CCSD(T)
 CCSD(T)= -0.14991502957D+03

 The electronic state is 3-SGG.
 Alpha  occ. eigenvalues --  -20.81452 -20.81449  -1.40380  -1.39517  -0.71484
 Alpha  occ. eigenvalues --   -0.71484  -0.71136  -0.71136  -0.44173
 Alpha virt. eigenvalues --   -0.21883   0.65010   0.66538   0.66538   0.73198
 Alpha virt. eigenvalues --    0.73198   0.79105   0.85240   1.04809   1.63266
 Alpha virt. eigenvalues --    1.63266   1.63315   1.63315   1.63752   1.64124

  Beta  occ. eigenvalues --  -20.76167 -20.76161  -1.21022  -1.19364  -0.40193
  Beta  occ. eigenvalues --   -0.33124  -0.33124
  Beta virt. eigenvalues --   -0.16912  -0.15016  -0.15016   0.67245   0.75409
  Beta virt. eigenvalues --    0.75409   0.81602   0.81812   0.81812   0.88817
  Beta virt. eigenvalues --    1.08165   1.66531   1.68053   1.68053   1.69529

 Mulliken charges and spin densities:
               1          2
     1  O   -0.000000   1.000000
     2  O   -0.000000   1.000000
 Sum of Mulliken charges =  -0.00000   2.00000

 Dipole moment (field-independent basis, Debye):
    X=             -0.0000    Y=             -0.0000    Z=              0.0000  Tot=              0.0000
 Quadrupole moment (field-independent basis, Debye-Ang):
   XX=            -10.8130   YY=            -10.8130   ZZ=             -8.9257
   XY=              0.0000   XZ=             -0.0000   YZ=              0.0000

 Normal termination of Gaussian 16 at Fri Feb  9 18:03:07 2024.
