 Gaussian 16, Revision A.03,
 Gaussian 16:  ES64L-G16RevA.03 25-Dec-2016

 ------------------
 #p CCSD(T)/cc-pVTZ
 ------------------

 -----
 O2_78
 -----
 Symbolic Z-matrix:
 Charge =  0 Multiplicity = 3

                         Standard orientation:
 ---------------------------------------------------------------------
 Center     Atomic      Atomic             Coordinates (Angstroms)
 Number     Number       Type             X           Y           Z
 ---------------------------------------------------------------------
      1          8           0        0.000000    0.000000    1.570000
      2          8           0        0.000000    0.000000   -1.570000
 ---------------------------------------------------------------------

 SCF Done:  E(UHF) =  -149.071094026     A.U. after   11 cycles
 E2 =    -0.1350430646D+01 EUMP2 =    -0.15042152467183D+03
 CCSD(T)
 CCSD(T)= -0.14992683361D+03

 The electronic state is 3-SGG.
 Alpha  occ. eigenvalues --  -20.81184 -20.81181  -1.40151  -1.39476  -0.71280
 Alpha  occ. eigenvalues --   -0.71280  -0.71034  -0.71034  -0.43276
 Alpha virt. eigenvalues --   -0.22712   0.64605   0.67168   0.67168   0.72531
 Alpha virt. eigenvalues --    0.72531   0.79837   0.85602   1.01096   1.63324
 Alpha virt. eigenvalues --    1.63324   1.63345   1.63345   1.64347   1.64347

  Beta  occ. eigenvalues --  -20.75927 -20.75922  -1.20787  -1.19452  -0.39232
  Beta  occ. eigenvalues --   -0.32577  -0.32577
  Beta virt. eigenvalues --   -0.17847  -0.15485  -0.15485   0.66741   0.75986
  Beta virt. eigenvalues --    0.75986   0.81162   0.81162   0.82314   0.89260
  Beta virt. eigenvalues --    1.04507   1.67208   1.68306   1.68306   1.69230

 Mulliken charges and spin densities:
               1          2
     1  O    0.000000   1.000000
     2  O    0.000000   1.000000
 Sum of Mulliken charges =   0.00000   2.00000

 Dipole moment (field-independent basis, Debye):
    X=              0.0000    Y=             -0.0000    Z=             -0.0000  Tot=              0.0000
 Quadrupole moment (field-independent basis, Debye-Ang):
   XX=            -10.8048   YY=            -10.8048   ZZ=             -9.0425
   XY=              0.0000   XZ=             -0.0000   YZ=              0.0000

 858\PMP3-0=-148.4810125\MP4SDQ=-151.1245823\CCSD=-149.7801865\CCSD(T)=
 Normal termination of Gaussian 16 at Fri Feb  9 18:04:14 2024.
