 Gaussian 16, Revision A.03,
 Gaussian 16:  ES64L-G16RevA.03 25-Dec-2016

 ------------------
 #p CCSD(T)/cc-pVTZ
 ------------------

 ----
 O2_7
 ----
 Symbolic Z-matrix:
 Charge =  0 Multiplicity = 3

                         Standard orientation:
 ---------------------------------------------------------------------
 Center     Atomic      Atomic             Coordinates (Angstroms)
 Number     Number       Type             X           Y           Z
 ---------------------------------------------------------------------
      1          8           0        0.000000    0.000000    0.505000
      2          8           0        0.000000    0.000000   -0.505000
 ---------------------------------------------------------------------

 SCF Done:  E(UHF) =  -149.613344913     A.U. after   10 cycles
 E2 =    -0.3996360338D+00 EUMP2 =    -0.15001298094690D+03
 CCSD(T)
 CCSD(T)= -0.15003477801D+03

 The electronic state is 3-SGG.
 Alpha  occ. eigenvalues --  -20.71090 -20.70878  -1.91398  -1.12756  -0.92955
 Alpha  occ. eigenvalues --   -0.92955  -0.82796  -0.45063  -0.45063
 Alpha virt. eigenvalues --    0.46927   0.65568   0.65568   0.69265   0.80346
 Alpha virt. eigenvalues --    0.80346   0.87336   1.04453   1.36881   1.40213
 Alpha virt. eigenvalues --    1.40213   1.68644   1.68644   1.95279   1.95279

  Beta  occ. eigenvalues --  -20.65958 -20.65655  -1.81351  -0.92487  -0.74671
  Beta  occ. eigenvalues --   -0.69273  -0.69273
  Beta virt. eigenvalues --    0.20528   0.20528   0.49496   0.69988   0.70385
  Beta virt. eigenvalues --    0.70385   0.89706   0.90770   0.90770   1.11805
  Beta virt. eigenvalues --    1.41350   1.45143   1.45143   1.75957   1.75957

 Mulliken charges and spin densities:
               1          2
     1  O   -0.000000   1.000000
     2  O   -0.000000   1.000000
 Sum of Mulliken charges =  -0.00000   2.00000

 Dipole moment (field-independent basis, Debye):
    X=             -0.0000    Y=             -0.0000    Z=              0.0000  Tot=              0.0000
 Quadrupole moment (field-independent basis, Debye-Ang):
   XX=             -9.4744   YY=             -9.4744   ZZ=            -10.5980
   XY=              0.0000   XZ=              0.0000   YZ=              0.0000

 86\PMP3-0=-150.0211904\MP4SDQ=-150.0224857\CCSD=-150.022116\CCSD(T)=-1
 Normal termination of Gaussian 16 at Fri Feb  9 17:48:55 2024.
