 Gaussian 16, Revision A.03,
 Gaussian 16:  ES64L-G16RevA.03 25-Dec-2016

 ------------------
 #p CCSD(T)/cc-pVTZ
 ------------------

 -----
 O2_71
 -----
 Symbolic Z-matrix:
 Charge =  0 Multiplicity = 3

                         Standard orientation:
 ---------------------------------------------------------------------
 Center     Atomic      Atomic             Coordinates (Angstroms)
 Number     Number       Type             X           Y           Z
 ---------------------------------------------------------------------
      1          8           0        0.000000    0.000000    1.465000
      2          8           0        0.000000    0.000000   -1.465000
 ---------------------------------------------------------------------

 SCF Done:  E(UHF) =  -149.097713001     A.U. after   11 cycles
 E2 =    -0.1215073071D+01 EUMP2 =    -0.15031278607228D+03
 CCSD(T)
 CCSD(T)= -0.14991006095D+03

 The electronic state is 3-SGG.
 Alpha  occ. eigenvalues --  -20.81557 -20.81553  -1.40479  -1.39521  -0.71568
 Alpha  occ. eigenvalues --   -0.71568  -0.71168  -0.71168  -0.44567
 Alpha virt. eigenvalues --   -0.21508   0.65414   0.66283   0.66283   0.73485
 Alpha virt. eigenvalues --    0.73485   0.78746   0.85087   1.06270   1.63242
 Alpha virt. eigenvalues --    1.63242   1.63312   1.63312   1.63353   1.63991

  Beta  occ. eigenvalues --  -20.76260 -20.76253  -1.21128  -1.19311  -0.40618
  Beta  occ. eigenvalues --   -0.33356  -0.33356
  Beta virt. eigenvalues --   -0.16495  -0.14801  -0.14801   0.67695   0.75180
  Beta virt. eigenvalues --    0.75180   0.81238   0.82090   0.82090   0.88628
  Beta virt. eigenvalues --    1.09608   1.66115   1.67904   1.67904   1.69723

 Mulliken charges and spin densities:
               1          2
     1  O   -0.000000   1.000000
     2  O   -0.000000   1.000000
 Sum of Mulliken charges =  -0.00000   2.00000

 Dipole moment (field-independent basis, Debye):
    X=             -0.0000    Y=             -0.0000    Z=              0.0000  Tot=              0.0000
 Quadrupole moment (field-independent basis, Debye-Ang):
   XX=            -10.8164   YY=            -10.8164   ZZ=             -8.8856
   XY=              0.0000   XZ=             -0.0000   YZ=              0.0000

 7\PMP3-0=-148.8609413\MP4SDQ=-150.5705055\CCSD=-149.7820655\CCSD(T)=-1
 Normal termination of Gaussian 16 at Fri Feb  9 18:02:37 2024.
