 Gaussian 16, Revision A.03,
 Gaussian 16:  ES64L-G16RevA.03 25-Dec-2016

 ------------------
 #p CCSD(T)/cc-pVTZ
 ------------------

 -----
 O2_77
 -----
 Symbolic Z-matrix:
 Charge =  0 Multiplicity = 3

                         Standard orientation:
 ---------------------------------------------------------------------
 Center     Atomic      Atomic             Coordinates (Angstroms)
 Number     Number       Type             X           Y           Z
 ---------------------------------------------------------------------
      1          8           0        0.000000    0.000000    1.555000
      2          8           0        0.000000    0.000000   -1.555000
 ---------------------------------------------------------------------

 SCF Done:  E(UHF) =  -149.074556441     A.U. after   11 cycles
 E2 =    -0.1330789388D+01 EUMP2 =    -0.15040534582857D+03
 CCSD(T)
 CCSD(T)= -0.14992457131D+03

 The electronic state is 3-SGG.
 Alpha  occ. eigenvalues --  -20.81238 -20.81235  -1.40195  -1.39487  -0.71321
 Alpha  occ. eigenvalues --   -0.71321  -0.71056  -0.71056  -0.43446
 Alpha virt. eigenvalues --   -0.22558   0.64622   0.67044   0.67044   0.72658
 Alpha virt. eigenvalues --    0.72658   0.79711   0.85532   1.01835   1.63312
 Alpha virt. eigenvalues --    1.63312   1.63337   1.63337   1.64302   1.64312

  Beta  occ. eigenvalues --  -20.75976 -20.75970  -1.20831  -1.19439  -0.39413
  Beta  occ. eigenvalues --   -0.32683  -0.32683
  Beta virt. eigenvalues --   -0.17672  -0.15399  -0.15399   0.66777   0.75871
  Beta virt. eigenvalues --    0.75871   0.81286   0.81286   0.82196   0.89175
  Beta virt. eigenvalues --    1.05233   1.67106   1.68266   1.68266   1.69273

 Mulliken charges and spin densities:
               1          2
     1  O   -0.000000   1.000000
     2  O   -0.000000   1.000000
 Sum of Mulliken charges =  -0.00000   2.00000

 Dipole moment (field-independent basis, Debye):
    X=             -0.0000    Y=             -0.0000    Z=              0.0000  Tot=              0.0000
 Quadrupole moment (field-independent basis, Debye-Ang):
   XX=            -10.8064   YY=            -10.8064   ZZ=             -9.0176
   XY=              0.0000   XZ=             -0.0000   YZ=              0.0000

 396\PMP3-0=-148.5401454\MP4SDQ=-151.0303062\CCSD=-149.7803506\CCSD(T)=
 Normal termination of Gaussian 16 at Fri Feb  9 18:03:59 2024.
