 Gaussian 16, Revision A.03,
 Gaussian 16:  ES64L-G16RevA.03 25-Dec-2016

 ------------------
 #p CCSD(T)/cc-pVTZ
 ------------------

 -----
 O2_79
 -----
 Symbolic Z-matrix:
 Charge =  0 Multiplicity = 3

                         Standard orientation:
 ---------------------------------------------------------------------
 Center     Atomic      Atomic             Coordinates (Angstroms)
 Number     Number       Type             X           Y           Z
 ---------------------------------------------------------------------
      1          8           0        0.000000    0.000000    1.585000
      2          8           0        0.000000    0.000000   -1.585000
 ---------------------------------------------------------------------

 SCF Done:  E(UHF) =  -149.067735068     A.U. after   11 cycles
 E2 =    -0.1370158225D+01 EUMP2 =    -0.15043789329321D+03
 CCSD(T)
 CCSD(T)= -0.14992903773D+03

 The electronic state is 3-SGG.
 Alpha  occ. eigenvalues --  -20.81130 -20.81127  -1.40108  -1.39463  -0.71240
 Alpha  occ. eigenvalues --   -0.71240  -0.71010  -0.71010  -0.43110
 Alpha virt. eigenvalues --   -0.22862   0.64616   0.67290   0.67290   0.72408
 Alpha virt. eigenvalues --    0.72408   0.79953   0.85671   1.00364   1.63336
 Alpha virt. eigenvalues --    1.63336   1.63354   1.63354   1.64379   1.64379

  Beta  occ. eigenvalues --  -20.75878 -20.75873  -1.20743  -1.19463  -0.39055
  Beta  occ. eigenvalues --   -0.32472  -0.32472
  Beta virt. eigenvalues --   -0.18018  -0.15569  -0.15569   0.66735   0.76099
  Beta virt. eigenvalues --    0.76099   0.81042   0.81042   0.82420   0.89345
  Beta virt. eigenvalues --    1.03789   1.67298   1.68343   1.68343   1.69194

 Mulliken charges and spin densities:
               1          2
     1  O   -0.000000   1.000000
     2  O   -0.000000   1.000000
 Sum of Mulliken charges =  -0.00000   2.00000

 Dipole moment (field-independent basis, Debye):
    X=             -0.0000    Y=             -0.0000    Z=             -0.0000  Tot=              0.0000
 Quadrupole moment (field-independent basis, Debye-Ang):
   XX=            -10.8032   YY=            -10.8032   ZZ=             -9.0680
   XY=              0.0000   XZ=             -0.0000   YZ=              0.0000

 231\PMP3-0=-148.4202329\MP4SDQ=-151.2243639\CCSD=-149.7800462\CCSD(T)=
 Normal termination of Gaussian 16 at Fri Feb  9 18:04:28 2024.
