 Gaussian 16, Revision A.03,
 Gaussian 16:  ES64L-G16RevA.03 25-Dec-2016

 ------------------
 #p CCSD(T)/cc-pVTZ
 ------------------

 -----
 O2_72
 -----
 Symbolic Z-matrix:
 Charge =  0 Multiplicity = 3

                         Standard orientation:
 ---------------------------------------------------------------------
 Center     Atomic      Atomic             Coordinates (Angstroms)
 Number     Number       Type             X           Y           Z
 ---------------------------------------------------------------------
      1          8           0        0.000000    0.000000    1.480000
      2          8           0        0.000000    0.000000   -1.480000
 ---------------------------------------------------------------------

 SCF Done:  E(UHF) =  -149.093549857     A.U. after   11 cycles
 E2 =    -0.1234078998D+01 EUMP2 =    -0.15032762885539D+03
 CCSD(T)
 CCSD(T)= -0.14991255388D+03

 The electronic state is 3-SGG.
 Alpha  occ. eigenvalues --  -20.81505 -20.81501  -1.40429  -1.39520  -0.71526
 Alpha  occ. eigenvalues --   -0.71526  -0.71152  -0.71152  -0.44367
 Alpha virt. eigenvalues --   -0.21699   0.65193   0.66411   0.66411   0.73341
 Alpha virt. eigenvalues --    0.73341   0.78930   0.85164   1.05544   1.63254
 Alpha virt. eigenvalues --    1.63254   1.63313   1.63313   1.63565   1.64061

  Beta  occ. eigenvalues --  -20.76214 -20.76207  -1.21074  -1.19339  -0.40403
  Beta  occ. eigenvalues --   -0.33239  -0.33239
  Beta virt. eigenvalues --   -0.16707  -0.14910  -0.14910   0.67451   0.75294
  Beta virt. eigenvalues --    0.75294   0.81425   0.81950   0.81950   0.88723
  Beta virt. eigenvalues --    1.08891   1.66335   1.67983   1.67983   1.69620

 Mulliken charges and spin densities:
               1          2
     1  O    0.000000   1.000000
     2  O    0.000000   1.000000
 Sum of Mulliken charges =   0.00000   2.00000

 Dipole moment (field-independent basis, Debye):
    X=              0.0000    Y=             -0.0000    Z=              0.0000  Tot=              0.0000
 Quadrupole moment (field-independent basis, Debye-Ang):
   XX=            -10.8147   YY=            -10.8147   ZZ=             -8.9051
   XY=              0.0000   XZ=             -0.0000   YZ=              0.0000

 Normal termination of Gaussian 16 at Fri Feb  9 18:02:52 2024.
