 Gaussian 16, Revision A.03,
 Gaussian 16:  ES64L-G16RevA.03 25-Dec-2016

 ------------------
 #p CCSD(T)/cc-pVTZ
 ------------------

 -----
 O2_70
 -----
 Symbolic Z-matrix:
 Charge =  0 Multiplicity = 3

                         Standard orientation:
 ---------------------------------------------------------------------
 Center     Atomic      Atomic             Coordinates (Angstroms)
 Number     Number       Type             X           Y           Z
 ---------------------------------------------------------------------
      1          8           0        0.000000    0.000000    1.450000
      2          8           0        0.000000    0.000000   -1.450000
 ---------------------------------------------------------------------

 SCF Done:  E(UHF) =  -149.102007860     A.U. after   11 cycles
 E2 =    -0.1196190376D+01 EUMP2 =    -0.15029819823562D+03
 CCSD(T)
 CCSD(T)= -0.14990756319D+03

 The electronic state is 3-SGG.
 Alpha  occ. eigenvalues --  -20.81608 -20.81604  -1.40530  -1.39520  -0.71611
 Alpha  occ. eigenvalues --   -0.71611  -0.71181  -0.71181  -0.44772
 Alpha virt. eigenvalues --   -0.21311   0.65672   0.66156   0.66156   0.73632
 Alpha virt. eigenvalues --    0.73632   0.78554   0.85008   1.06985   1.63114
 Alpha virt. eigenvalues --    1.63230   1.63230   1.63312   1.63312   1.63911

  Beta  occ. eigenvalues --  -20.76305 -20.76298  -1.21183  -1.19281  -0.40839
  Beta  occ. eigenvalues --   -0.33476  -0.33476
  Beta virt. eigenvalues --   -0.16277  -0.14687  -0.14687   0.67978   0.75068
  Beta virt. eigenvalues --    0.75068   0.81041   0.82232   0.82232   0.88530
  Beta virt. eigenvalues --    1.10315   1.65867   1.67816   1.67816   1.69842

 Mulliken charges and spin densities:
               1          2
     1  O   -0.000000   1.000000
     2  O   -0.000000   1.000000
 Sum of Mulliken charges =  -0.00000   2.00000

 Dipole moment (field-independent basis, Debye):
    X=             -0.0000    Y=             -0.0000    Z=              0.0000  Tot=              0.0000
 Quadrupole moment (field-independent basis, Debye-Ang):
   XX=            -10.8181   YY=            -10.8181   ZZ=             -8.8672
   XY=              0.0000   XZ=             -0.0000   YZ=              0.0000

 539\PMP3-0=-148.9088822\MP4SDQ=-150.5098695\CCSD=-149.7825243\CCSD(T)=
 Normal termination of Gaussian 16 at Fri Feb  9 18:02:20 2024.
