 Gaussian 16, Revision A.03,
 Gaussian 16:  ES64L-G16RevA.03 25-Dec-2016

 ------------------
 #p CCSD(T)/cc-pVTZ
 ------------------

 -----
 O2_75
 -----
 Symbolic Z-matrix:
 Charge =  0 Multiplicity = 3

                         Standard orientation:
 ---------------------------------------------------------------------
 Center     Atomic      Atomic             Coordinates (Angstroms)
 Number     Number       Type             X           Y           Z
 ---------------------------------------------------------------------
      1          8           0        0.000000    0.000000    1.525000
      2          8           0        0.000000    0.000000   -1.525000
 ---------------------------------------------------------------------

 SCF Done:  E(UHF) =  -149.081805968     A.U. after   11 cycles
 E2 =    -0.1291789483D+01 EUMP2 =    -0.15037359545123D+03
 CCSD(T)
 CCSD(T)= -0.14991988769D+03

 The electronic state is 3-SGG.
 Alpha  occ. eigenvalues --  -20.81346 -20.81342  -1.40286  -1.39505  -0.71402
 Alpha  occ. eigenvalues --   -0.71402  -0.71098  -0.71098  -0.43800
 Alpha virt. eigenvalues --   -0.22232   0.64750   0.66793   0.66793   0.72922
 Alpha virt. eigenvalues --    0.72922   0.79427   0.85388   1.03323   1.63289
 Alpha virt. eigenvalues --    1.63289   1.63324   1.63324   1.64063   1.64229

  Beta  occ. eigenvalues --  -20.76072 -20.76066  -1.20924  -1.19407  -0.39792
  Beta  occ. eigenvalues --   -0.32899  -0.32899
  Beta virt. eigenvalues --   -0.17304  -0.15215  -0.15215   0.66943   0.75640
  Beta virt. eigenvalues --    0.75640   0.81543   0.81543   0.81922   0.88999
  Beta virt. eigenvalues --    1.06699   1.66855   1.68171   1.68171   1.69382

 Mulliken charges and spin densities:
               1          2
     1  O   -0.000000   1.000000
     2  O   -0.000000   1.000000
 Sum of Mulliken charges =  -0.00000   2.00000

 Dipole moment (field-independent basis, Debye):
    X=             -0.0000    Y=             -0.0000    Z=             -0.0000  Tot=              0.0000
 Quadrupole moment (field-independent basis, Debye-Ang):
   XX=            -10.8096   YY=            -10.8096   ZZ=             -8.9699
   XY=              0.0000   XZ=             -0.0000   YZ=              0.0000

 8\PMP3-0=-148.6535037\MP4SDQ=-150.8575789\CCSD=-149.7807644\CCSD(T)=-1
 Normal termination of Gaussian 16 at Fri Feb  9 18:03:34 2024.
