 Gaussian 16, Revision A.03,
 Gaussian 16:  ES64L-G16RevA.03 25-Dec-2016

 ------------------
 #p CCSD(T)/cc-pVTZ
 ------------------

 -----
 O2_76
 -----
 Symbolic Z-matrix:
 Charge =  0 Multiplicity = 3

                         Standard orientation:
 ---------------------------------------------------------------------
 Center     Atomic      Atomic             Coordinates (Angstroms)
 Number     Number       Type             X           Y           Z
 ---------------------------------------------------------------------
      1          8           0        0.000000    0.000000    1.540000
      2          8           0        0.000000    0.000000   -1.540000
 ---------------------------------------------------------------------

 SCF Done:  E(UHF) =  -149.078125857     A.U. after   11 cycles
 E2 =    -0.1311240415D+01 EUMP2 =    -0.15038936627183D+03
 CCSD(T)
 CCSD(T)= -0.14992225441D+03

 The electronic state is 3-SGG.
 Alpha  occ. eigenvalues --  -20.81292 -20.81289  -1.40240  -1.39497  -0.71361
 Alpha  occ. eigenvalues --   -0.71361  -0.71078  -0.71078  -0.43621
 Alpha virt. eigenvalues --   -0.22398   0.64670   0.66919   0.66919   0.72788
 Alpha virt. eigenvalues --    0.72788   0.79574   0.85460   1.02578   1.63300
 Alpha virt. eigenvalues --    1.63300   1.63330   1.63330   1.64190   1.64273

  Beta  occ. eigenvalues --  -20.76024 -20.76018  -1.20877  -1.19424  -0.39600
  Beta  occ. eigenvalues --   -0.32790  -0.32790
  Beta virt. eigenvalues --   -0.17491  -0.15308  -0.15308   0.66843   0.75756
  Beta virt. eigenvalues --    0.75756   0.81413   0.81413   0.82065   0.89087
  Beta virt. eigenvalues --    1.05964   1.66989   1.68221   1.68221   1.69324

 Mulliken charges and spin densities:
               1          2
     1  O    0.000000   1.000000
     2  O    0.000000   1.000000
 Sum of Mulliken charges =   0.00000   2.00000

 Dipole moment (field-independent basis, Debye):
    X=              0.0000    Y=             -0.0000    Z=             -0.0000  Tot=              0.0000
 Quadrupole moment (field-independent basis, Debye-Ang):
   XX=            -10.8080   YY=            -10.8080   ZZ=             -8.9934
   XY=              0.0000   XZ=             -0.0000   YZ=              0.0000

 38\PMP3-0=-148.5976392\MP4SDQ=-150.9413632\CCSD=-149.7805418\CCSD(T)=-
 Normal termination of Gaussian 16 at Fri Feb  9 18:03:47 2024.
