 Gaussian 16, Revision A.03,
 Gaussian 16:  ES64L-G16RevA.03 25-Dec-2016

 ------------------
 #p CCSD(T)/cc-pVTZ
 ------------------

 -----
 O2_82
 -----
 Symbolic Z-matrix:
 Charge =  0 Multiplicity = 3

                         Standard orientation:
 ---------------------------------------------------------------------
 Center     Atomic      Atomic             Coordinates (Angstroms)
 Number     Number       Type             X           Y           Z
 ---------------------------------------------------------------------
      1          8           0        0.000000    0.000000    1.630000
      2          8           0        0.000000    0.000000   -1.630000
 ---------------------------------------------------------------------

 SCF Done:  E(UHF) =  -149.058245592     A.U. after   11 cycles
 E2 =    -0.1429796599D+01 EUMP2 =    -0.15048804219054D+03
 CCSD(T)
 CCSD(T)= -0.14993527899D+03

 The electronic state is 3-SGG.
 Alpha  occ. eigenvalues --  -20.80968 -20.80966  -1.39982  -1.39419  -0.71122
 Alpha  occ. eigenvalues --   -0.71122  -0.70935  -0.70935  -0.42638
 Alpha virt. eigenvalues --   -0.23281   0.64809   0.67644   0.67644   0.72061
 Alpha virt. eigenvalues --    0.72061   0.80233   0.85875   0.98236   1.63374
 Alpha virt. eigenvalues --    1.63374   1.63385   1.63385   1.64459   1.64459

  Beta  occ. eigenvalues --  -20.75731 -20.75726  -1.20619  -1.19485  -0.38552
  Beta  occ. eigenvalues --   -0.32169  -0.32169
  Beta virt. eigenvalues --   -0.18497  -0.15800  -0.15800   0.66878   0.76432
  Beta virt. eigenvalues --    0.76432   0.80705   0.80705   0.82656   0.89592
  Beta virt. eigenvalues --    1.01713   1.67504   1.68437   1.68437   1.69117

 Mulliken charges and spin densities:
               1          2
     1  O   -0.000000   1.000000
     2  O   -0.000000   1.000000
 Sum of Mulliken charges =  -0.00000   2.00000

 Dipole moment (field-independent basis, Debye):
    X=             -0.0000    Y=             -0.0000    Z=              0.0000  Tot=              0.0000
 Quadrupole moment (field-independent basis, Debye-Ang):
   XX=            -10.7986   YY=            -10.7986   ZZ=             -9.1472
   XY=             -0.0000   XZ=             -0.0000   YZ=              0.0000

 847\PMP3-0=-148.2279728\MP4SDQ=-151.5584281\CCSD=-149.7797402\CCSD(T)=
 Normal termination of Gaussian 16 at Fri Feb  9 18:05:06 2024.
