 Gaussian 16, Revision A.03,
 Gaussian 16:  ES64L-G16RevA.03 25-Dec-2016

 ------------------
 #p CCSD(T)/cc-pVTZ
 ------------------

 -----
 O2_84
 -----
 Symbolic Z-matrix:
 Charge =  0 Multiplicity = 3

                         Standard orientation:
 ---------------------------------------------------------------------
 Center     Atomic      Atomic             Coordinates (Angstroms)
 Number     Number       Type             X           Y           Z
 ---------------------------------------------------------------------
      1          8           0        0.000000    0.000000    1.660000
      2          8           0        0.000000    0.000000   -1.660000
 ---------------------------------------------------------------------

 SCF Done:  E(UHF) =  -149.052377646     A.U. after   11 cycles
 E2 =    -0.1469870665D+01 EUMP2 =    -0.15052224831081D+03
 CCSD(T)
 CCSD(T)= -0.14993911993D+03

 The electronic state is 3-SGG.
 Alpha  occ. eigenvalues --  -20.80861 -20.80859  -1.39902  -1.39386  -0.71045
 Alpha  occ. eigenvalues --   -0.71045  -0.70882  -0.70882  -0.42342
 Alpha virt. eigenvalues --   -0.23538   0.65052   0.67868   0.67868   0.71850
 Alpha virt. eigenvalues --    0.71850   0.80359   0.86007   0.96896   1.63400
 Alpha virt. eigenvalues --    1.63400   1.63408   1.63408   1.64504   1.64504

  Beta  occ. eigenvalues --  -20.75633 -20.75628  -1.20541  -1.19492  -0.38239
  Beta  occ. eigenvalues --   -0.31975  -0.31975
  Beta virt. eigenvalues --   -0.18793  -0.15941  -0.15941   0.67092   0.76644
  Beta virt. eigenvalues --    0.76644   0.80500   0.80500   0.82742   0.89750
  Beta virt. eigenvalues --    1.00416   1.67603   1.68489   1.68489   1.69086

 Mulliken charges and spin densities:
               1          2
     1  O   -0.000000   1.000000
     2  O   -0.000000   1.000000
 Sum of Mulliken charges =  -0.00000   2.00000

 Dipole moment (field-independent basis, Debye):
    X=             -0.0000    Y=              0.0000    Z=              0.0000  Tot=              0.0000
 Quadrupole moment (field-independent basis, Debye-Ang):
   XX=            -10.7956   YY=            -10.7956   ZZ=             -9.2011
   XY=             -0.0000   XZ=             -0.0000   YZ=              0.0000

 6382\PMP3-0=-148.091528\MP4SDQ=-151.8117008\CCSD=-149.7796088\CCSD(T)=
 Normal termination of Gaussian 16 at Fri Feb  9 18:05:34 2024.
