 Gaussian 16, Revision A.03,
 Gaussian 16:  ES64L-G16RevA.03 25-Dec-2016

 ------------------
 #p CCSD(T)/cc-pVTZ
 ------------------

 -----
 O2_81
 -----
 Symbolic Z-matrix:
 Charge =  0 Multiplicity = 3

                         Standard orientation:
 ---------------------------------------------------------------------
 Center     Atomic      Atomic             Coordinates (Angstroms)
 Number     Number       Type             X           Y           Z
 ---------------------------------------------------------------------
      1          8           0        0.000000    0.000000    1.615000
      2          8           0        0.000000    0.000000   -1.615000
 ---------------------------------------------------------------------

 SCF Done:  E(UHF) =  -149.061314054     A.U. after   11 cycles
 E2 =    -0.1409847579D+01 EUMP2 =    -0.15047116163294D+03
 CCSD(T)
 CCSD(T)= -0.14993326193D+03

 The electronic state is 3-SGG.
 Alpha  occ. eigenvalues --  -20.81022 -20.81019  -1.40023  -1.39435  -0.71161
 Alpha  occ. eigenvalues --   -0.71161  -0.70961  -0.70961  -0.42792
 Alpha virt. eigenvalues --   -0.23146   0.64720   0.67528   0.67528   0.72173
 Alpha virt. eigenvalues --    0.72173   0.80151   0.85808   0.98932   1.63361
 Alpha virt. eigenvalues --    1.63361   1.63374   1.63374   1.64435   1.64435

  Beta  occ. eigenvalues --  -20.75780 -20.75775  -1.20660  -1.19480  -0.38715
  Beta  occ. eigenvalues --   -0.32269  -0.32269
  Beta virt. eigenvalues --   -0.18342  -0.15726  -0.15726   0.66805   0.76323
  Beta virt. eigenvalues --    0.76323   0.80814   0.80814   0.82591   0.89511
  Beta virt. eigenvalues --    1.02390   1.67444   1.68408   1.68408   1.69138

 Mulliken charges and spin densities:
               1          2
     1  O   -0.000000   1.000000
     2  O   -0.000000   1.000000
 Sum of Mulliken charges =  -0.00000   2.00000

 Dipole moment (field-independent basis, Debye):
    X=             -0.0000    Y=              0.0000    Z=             -0.0000  Tot=              0.0000
 Quadrupole moment (field-independent basis, Debye-Ang):
   XX=            -10.8001   YY=            -10.8001   ZZ=             -9.1205
   XY=             -0.0000   XZ=             -0.0000   YZ=              0.0000

 6321\PMP3-0=-148.293715\MP4SDQ=-151.4411211\CCSD=-149.7798256\CCSD(T)=
 Normal termination of Gaussian 16 at Fri Feb  9 18:04:54 2024.
