 Gaussian 16, Revision A.03,
 Gaussian 16:  ES64L-G16RevA.03 25-Dec-2016

 ------------------
 #p CCSD(T)/cc-pVTZ
 ------------------

 -----
 O2_80
 -----
 Symbolic Z-matrix:
 Charge =  0 Multiplicity = 3

                         Standard orientation:
 ---------------------------------------------------------------------
 Center     Atomic      Atomic             Coordinates (Angstroms)
 Number     Number       Type             X           Y           Z
 ---------------------------------------------------------------------
      1          8           0        0.000000    0.000000    1.600000
      2          8           0        0.000000    0.000000   -1.600000
 ---------------------------------------------------------------------

 SCF Done:  E(UHF) =  -149.064476166     A.U. after   11 cycles
 E2 =    -0.1389965973D+01 EUMP2 =    -0.15045444213982D+03
 CCSD(T)
 CCSD(T)= -0.14993118085D+03

 The electronic state is 3-SGG.
 Alpha  occ. eigenvalues --  -20.81076 -20.81073  -1.40065  -1.39450  -0.71201
 Alpha  occ. eigenvalues --   -0.71201  -0.70986  -0.70986  -0.42949
 Alpha virt. eigenvalues --   -0.23006   0.64655   0.67410   0.67410   0.72288
 Alpha virt. eigenvalues --    0.72288   0.80057   0.85740   0.99642   1.63349
 Alpha virt. eigenvalues --    1.63349   1.63363   1.63363   1.64408   1.64408

  Beta  occ. eigenvalues --  -20.75829 -20.75824  -1.20701  -1.19472  -0.38882
  Beta  occ. eigenvalues --   -0.32370  -0.32370
  Beta virt. eigenvalues --   -0.18182  -0.15649  -0.15649   0.66757   0.76212
  Beta virt. eigenvalues --    0.76212   0.80926   0.80926   0.82512   0.89429
  Beta virt. eigenvalues --    1.03083   1.67376   1.68377   1.68377   1.69163

 Mulliken charges and spin densities:
               1          2
     1  O    0.000000   1.000000
     2  O    0.000000   1.000000
 Sum of Mulliken charges =   0.00000   2.00000

 Dipole moment (field-independent basis, Debye):
    X=              0.0000    Y=             -0.0000    Z=             -0.0000  Tot=              0.0000
 Quadrupole moment (field-independent basis, Debye-Ang):
   XX=            -10.8016   YY=            -10.8016   ZZ=             -9.0940
   XY=              0.0000   XZ=             -0.0000   YZ=              0.0000

 17\PMP3-0=-148.3578014\MP4SDQ=-151.3298211\CCSD=-149.7799266\CCSD(T)=-
 Normal termination of Gaussian 16 at Fri Feb  9 18:04:41 2024.
