 Gaussian 16, Revision A.03,
 Gaussian 16:  ES64L-G16RevA.03 25-Dec-2016

 ------------------
 #p CCSD(T)/cc-pVTZ
 ------------------

 -----
 O2_85
 -----
 Symbolic Z-matrix:
 Charge =  0 Multiplicity = 3

                         Standard orientation:
 ---------------------------------------------------------------------
 Center     Atomic      Atomic             Coordinates (Angstroms)
 Number     Number       Type             X           Y           Z
 ---------------------------------------------------------------------
      1          8           0        0.000000    0.000000    1.675000
      2          8           0        0.000000    0.000000   -1.675000
 ---------------------------------------------------------------------

 SCF Done:  E(UHF) =  -149.049572448     A.U. after   11 cycles
 E2 =    -0.1489982487D+01 EUMP2 =    -0.15053955493570D+03
 CCSD(T)
 CCSD(T)= -0.14994094420D+03

 The electronic state is 3-SGG.
 Alpha  occ. eigenvalues --  -20.80809 -20.80806  -1.39862  -1.39368  -0.71007
 Alpha  occ. eigenvalues --   -0.71007  -0.70855  -0.70855  -0.42200
 Alpha virt. eigenvalues --   -0.23660   0.65203   0.67976   0.67976   0.71751
 Alpha virt. eigenvalues --    0.71751   0.80403   0.86072   0.96256   1.63413
 Alpha virt. eigenvalues --    1.63413   1.63420   1.63420   1.64524   1.64524

  Beta  occ. eigenvalues --  -20.75585 -20.75580  -1.20503  -1.19493  -0.38089
  Beta  occ. eigenvalues --   -0.31879  -0.31879
  Beta virt. eigenvalues --   -0.18934  -0.16007  -0.16007   0.67229   0.76747
  Beta virt. eigenvalues --    0.76747   0.80403   0.80403   0.82762   0.89828
  Beta virt. eigenvalues --    0.99800   1.67644   1.68513   1.68513   1.69075

 Mulliken charges and spin densities:
               1          2
     1  O    0.000000   1.000000
     2  O    0.000000   1.000000
 Sum of Mulliken charges =   0.00000   2.00000

 Dipole moment (field-independent basis, Debye):
    X=              0.0000    Y=              0.0000    Z=              0.0000  Tot=              0.0000
 Quadrupole moment (field-independent basis, Debye-Ang):
   XX=            -10.7942   YY=            -10.7942   ZZ=             -9.2282
   XY=             -0.0000   XZ=             -0.0000   YZ=              0.0000

 2\PMP3-0=-148.0208341\MP4SDQ=-151.9479756\CCSD=-149.7795595\CCSD(T)=-1
 Normal termination of Gaussian 16 at Fri Feb  9 18:05:48 2024.
