 Gaussian 16, Revision A.03,
 Gaussian 16:  ES64L-G16RevA.03 25-Dec-2016

 ------------------
 #p CCSD(T)/cc-pVTZ
 ------------------

 -----
 O2_89
 -----
 Symbolic Z-matrix:
 Charge =  0 Multiplicity = 3

                         Standard orientation:
 ---------------------------------------------------------------------
 Center     Atomic      Atomic             Coordinates (Angstroms)
 Number     Number       Type             X           Y           Z
 ---------------------------------------------------------------------
      1          8           0        0.000000    0.000000    1.735000
      2          8           0        0.000000    0.000000   -1.735000
 ---------------------------------------------------------------------

 SCF Done:  E(UHF) =  -149.039148042     A.U. after   11 cycles
 E2 =    -0.1570775046D+01 EUMP2 =    -0.15060992308841D+03
 CCSD(T)
 CCSD(T)= -0.14994761733D+03

 The electronic state is 3-SGG.
 Alpha  occ. eigenvalues --  -20.80603 -20.80601  -1.39712  -1.39291  -0.70860
 Alpha  occ. eigenvalues --   -0.70860  -0.70744  -0.70744  -0.41665
 Alpha virt. eigenvalues --   -0.24111   0.65965   0.68379   0.68379   0.71394
 Alpha virt. eigenvalues --    0.71394   0.80441   0.86323   0.93932   1.63468
 Alpha virt. eigenvalues --    1.63468   1.63472   1.63472   1.64596   1.64596

  Beta  occ. eigenvalues --  -20.75394 -20.75390  -1.20359  -1.19486  -0.37526
  Beta  occ. eigenvalues --   -0.31513  -0.31513
  Beta virt. eigenvalues --   -0.19457  -0.16250  -0.16250   0.67940   0.77132
  Beta virt. eigenvalues --    0.77132   0.80057   0.80057   0.82686   0.90127
  Beta virt. eigenvalues --    0.97590   1.67771   1.68598   1.68598   1.68695

 Mulliken charges and spin densities:
               1          2
     1  O   -0.000000   1.000000
     2  O   -0.000000   1.000000
 Sum of Mulliken charges =  -0.00000   2.00000

 Dipole moment (field-independent basis, Debye):
    X=             -0.0000    Y=              0.0000    Z=             -0.0000  Tot=              0.0000
 Quadrupole moment (field-independent basis, Debye-Ang):
   XX=            -10.7887   YY=            -10.7887   ZZ=             -9.3349
   XY=             -0.0000   XZ=             -0.0000   YZ=              0.0000

 8\PMP3-0=-147.7217673\MP4SDQ=-152.5607345\CCSD=-149.77944\CCSD(T)=-149
 Normal termination of Gaussian 16 at Fri Feb  9 18:06:42 2024.
