 Gaussian 16, Revision A.03,
 Gaussian 16:  ES64L-G16RevA.03 25-Dec-2016

 ------------------
 #p CCSD(T)/cc-pVTZ
 ------------------

 -----
 O2_83
 -----
 Symbolic Z-matrix:
 Charge =  0 Multiplicity = 3

                         Standard orientation:
 ---------------------------------------------------------------------
 Center     Atomic      Atomic             Coordinates (Angstroms)
 Number     Number       Type             X           Y           Z
 ---------------------------------------------------------------------
      1          8           0        0.000000    0.000000    1.645000
      2          8           0        0.000000    0.000000   -1.645000
 ---------------------------------------------------------------------

 SCF Done:  E(UHF) =  -149.055267759     A.U. after   11 cycles
 E2 =    -0.1449806494D+01 EUMP2 =    -0.15050507425288D+03
 CCSD(T)
 CCSD(T)= -0.14993723169D+03

 The electronic state is 3-SGG.
 Alpha  occ. eigenvalues --  -20.80915 -20.80912  -1.39941  -1.39403  -0.71084
 Alpha  occ. eigenvalues --   -0.71084  -0.70909  -0.70909  -0.42488
 Alpha virt. eigenvalues --   -0.23412   0.64920   0.67758   0.67758   0.71954
 Alpha virt. eigenvalues --    0.71954   0.80302   0.85941   0.97557   1.63387
 Alpha virt. eigenvalues --    1.63387   1.63396   1.63396   1.64482   1.64482

  Beta  occ. eigenvalues --  -20.75682 -20.75677  -1.20580  -1.19489  -0.38393
  Beta  occ. eigenvalues --   -0.32071  -0.32071
  Beta virt. eigenvalues --   -0.18648  -0.15872  -0.15872   0.66975   0.76539
  Beta virt. eigenvalues --    0.76539   0.80600   0.80600   0.82706   0.89672
  Beta virt. eigenvalues --    1.01055   1.67557   1.68464   1.68464   1.69100

 Mulliken charges and spin densities:
               1          2
     1  O   -0.000000   1.000000
     2  O   -0.000000   1.000000
 Sum of Mulliken charges =  -0.00000   2.00000

 Dipole moment (field-independent basis, Debye):
    X=             -0.0000    Y=             -0.0000    Z=             -0.0000  Tot=              0.0000
 Quadrupole moment (field-independent basis, Debye-Ang):
   XX=            -10.7971   YY=            -10.7971   ZZ=             -9.1741
   XY=             -0.0000   XZ=             -0.0000   YZ=              0.0000

 4899\PMP3-0=-148.160576\MP4SDQ=-151.6819024\CCSD=-149.7796685\CCSD(T)=
 Normal termination of Gaussian 16 at Fri Feb  9 18:05:20 2024.
