 Gaussian 16, Revision A.03,
 Gaussian 16:  ES64L-G16RevA.03 25-Dec-2016

 ------------------
 #p CCSD(T)/cc-pVTZ
 ------------------

 ----
 O2_8
 ----
 Symbolic Z-matrix:
 Charge =  0 Multiplicity = 3

                         Standard orientation:
 ---------------------------------------------------------------------
 Center     Atomic      Atomic             Coordinates (Angstroms)
 Number     Number       Type             X           Y           Z
 ---------------------------------------------------------------------
      1          8           0        0.000000    0.000000    0.520000
      2          8           0        0.000000    0.000000   -0.520000
 ---------------------------------------------------------------------

 SCF Done:  E(UHF) =  -149.640457293     A.U. after   10 cycles
 E2 =    -0.4039802460D+00 EUMP2 =    -0.15004443753936D+03
 CCSD(T)
 CCSD(T)= -0.15006616748D+03

 The electronic state is 3-SGG.
 Alpha  occ. eigenvalues --  -20.71730 -20.71560  -1.87842  -1.13941  -0.91261
 Alpha  occ. eigenvalues --   -0.91261  -0.81781  -0.46956  -0.46956
 Alpha virt. eigenvalues --    0.46324   0.66110   0.66110   0.69884   0.80104
 Alpha virt. eigenvalues --    0.80104   0.87313   0.97865   1.37476   1.40851
 Alpha virt. eigenvalues --    1.40851   1.66043   1.66043   1.93762   1.93762

  Beta  occ. eigenvalues --  -20.66530 -20.66275  -1.77301  -0.93538  -0.73978
  Beta  occ. eigenvalues --   -0.67093  -0.67093
  Beta virt. eigenvalues --    0.18900   0.18900   0.49147   0.70633   0.71227
  Beta virt. eigenvalues --    0.71227   0.89582   0.90302   0.90302   1.05145
  Beta virt. eigenvalues --    1.41737   1.45822   1.45822   1.73156   1.73156

 Mulliken charges and spin densities:
               1          2
     1  O   -0.000000   1.000000
     2  O   -0.000000   1.000000
 Sum of Mulliken charges =  -0.00000   2.00000

 Dipole moment (field-independent basis, Debye):
    X=             -0.0000    Y=              0.0000    Z=              0.0000  Tot=              0.0000
 Quadrupole moment (field-independent basis, Debye-Ang):
   XX=             -9.5473   YY=             -9.5473   ZZ=            -10.5623
   XY=              0.0000   XZ=              0.0000   YZ=              0.0000

 78\PMP3-0=-150.05159\MP4SDQ=-150.0533581\CCSD=-150.0528715\CCSD(T)=-15
 Normal termination of Gaussian 16 at Fri Feb  9 17:49:06 2024.
