 Gaussian 16, Revision A.03,
 Gaussian 16:  ES64L-G16RevA.03 25-Dec-2016

 ------------------
 #p CCSD(T)/cc-pVTZ
 ------------------

 -----
 O2_86
 -----
 Symbolic Z-matrix:
 Charge =  0 Multiplicity = 3

                         Standard orientation:
 ---------------------------------------------------------------------
 Center     Atomic      Atomic             Coordinates (Angstroms)
 Number     Number       Type             X           Y           Z
 ---------------------------------------------------------------------
      1          8           0        0.000000    0.000000    1.690000
      2          8           0        0.000000    0.000000   -1.690000
 ---------------------------------------------------------------------

 SCF Done:  E(UHF) =  -149.046849460     A.U. after   11 cycles
 E2 =    -0.1510135350D+01 EUMP2 =    -0.15055698481046D+03
 CCSD(T)
 CCSD(T)= -0.14994270448D+03

 The electronic state is 3-SGG.
 Alpha  occ. eigenvalues --  -20.80756 -20.80754  -1.39824  -1.39349  -0.70970
 Alpha  occ. eigenvalues --   -0.70970  -0.70827  -0.70827  -0.42061
 Alpha virt. eigenvalues --   -0.23778   0.65371   0.68081   0.68081   0.71656
 Alpha virt. eigenvalues --    0.71656   0.80434   0.86136   0.95638   1.63427
 Alpha virt. eigenvalues --    1.63427   1.63432   1.63432   1.64543   1.64543

  Beta  occ. eigenvalues --  -20.75536 -20.75532  -1.20466  -1.19493  -0.37942
  Beta  occ. eigenvalues --   -0.31786  -0.31786
  Beta virt. eigenvalues --   -0.19071  -0.16071  -0.16071   0.67384   0.76847
  Beta virt. eigenvalues --    0.76847   0.80311   0.80311   0.82767   0.89904
  Beta virt. eigenvalues --    0.99208   1.67681   1.68536   1.68536   1.68956

 Mulliken charges and spin densities:
               1          2
     1  O   -0.000000   1.000000
     2  O   -0.000000   1.000000
 Sum of Mulliken charges =  -0.00000   2.00000

 Dipole moment (field-independent basis, Debye):
    X=             -0.0000    Y=              0.0000    Z=             -0.0000  Tot=              0.0000
 Quadrupole moment (field-independent basis, Debye-Ang):
   XX=            -10.7928   YY=            -10.7928   ZZ=             -9.2551
   XY=             -0.0000   XZ=             -0.0000   YZ=              0.0000

 Normal termination of Gaussian 16 at Fri Feb  9 18:06:01 2024.
