 Gaussian 16, Revision A.03,
 Gaussian 16:  ES64L-G16RevA.03 25-Dec-2016

 ------------------
 #p CCSD(T)/cc-pVTZ
 ------------------

 -----
 O2_88
 -----
 Symbolic Z-matrix:
 Charge =  0 Multiplicity = 3

                         Standard orientation:
 ---------------------------------------------------------------------
 Center     Atomic      Atomic             Coordinates (Angstroms)
 Number     Number       Type             X           Y           Z
 ---------------------------------------------------------------------
      1          8           0        0.000000    0.000000    1.720000
      2          8           0        0.000000    0.000000   -1.720000
 ---------------------------------------------------------------------

 SCF Done:  E(UHF) =  -149.041639744     A.U. after   11 cycles
 E2 =    -0.1550538042D+01 EUMP2 =    -0.15059217778587D+03
 CCSD(T)
 CCSD(T)= -0.14994604011D+03

 The electronic state is 3-SGG.
 Alpha  occ. eigenvalues --  -20.80653 -20.80651  -1.39749  -1.39310  -0.70896
 Alpha  occ. eigenvalues --   -0.70896  -0.70772  -0.70772  -0.41794
 Alpha virt. eigenvalues --   -0.24003   0.65754   0.68283   0.68283   0.71477
 Alpha virt. eigenvalues --    0.71477   0.80453   0.86262   0.94475   1.63454
 Alpha virt. eigenvalues --    1.63454   1.63458   1.63458   1.64579   1.64579

  Beta  occ. eigenvalues --  -20.75441 -20.75437  -1.20394  -1.19490  -0.37661
  Beta  occ. eigenvalues --   -0.31603  -0.31603
  Beta virt. eigenvalues --   -0.19333  -0.16192  -0.16192   0.67741   0.77040
  Beta virt. eigenvalues --    0.77040   0.80138   0.80138   0.82729   0.90054
  Beta virt. eigenvalues --    0.98102   1.67744   1.68578   1.68578   1.68767

 Mulliken charges and spin densities:
               1          2
     1  O   -0.000000   1.000000
     2  O   -0.000000   1.000000
 Sum of Mulliken charges =  -0.00000   2.00000

 Dipole moment (field-independent basis, Debye):
    X=              0.0000    Y=              0.0000    Z=             -0.0000  Tot=              0.0000
 Quadrupole moment (field-independent basis, Debye-Ang):
   XX=            -10.7900   YY=            -10.7900   ZZ=             -9.3086
   XY=             -0.0000   XZ=             -0.0000   YZ=              0.0000

 752\PMP3-0=-147.7989568\MP4SDQ=-152.3971178\CCSD=-149.7794604\CCSD(T)=
 Normal termination of Gaussian 16 at Fri Feb  9 18:06:29 2024.
