 Gaussian 16, Revision A.03,
 Gaussian 16:  ES64L-G16RevA.03 25-Dec-2016

 ------------------
 #p CCSD(T)/cc-pVTZ
 ------------------

 -----
 O2_87
 -----
 Symbolic Z-matrix:
 Charge =  0 Multiplicity = 3

                         Standard orientation:
 ---------------------------------------------------------------------
 Center     Atomic      Atomic             Coordinates (Angstroms)
 Number     Number       Type             X           Y           Z
 ---------------------------------------------------------------------
      1          8           0        0.000000    0.000000    1.705000
      2          8           0        0.000000    0.000000   -1.705000
 ---------------------------------------------------------------------

 SCF Done:  E(UHF) =  -149.044206068     A.U. after   11 cycles
 E2 =    -0.1530322693D+01 EUMP2 =    -0.15057452876077D+03
 CCSD(T)
 CCSD(T)= -0.14994440309D+03

 The electronic state is 3-SGG.
 Alpha  occ. eigenvalues --  -20.80704 -20.80702  -1.39786  -1.39330  -0.70933
 Alpha  occ. eigenvalues --   -0.70933  -0.70800  -0.70800  -0.41926
 Alpha virt. eigenvalues --   -0.23893   0.65555   0.68184   0.68184   0.71564
 Alpha virt. eigenvalues --    0.71564   0.80451   0.86199   0.95044   1.63441
 Alpha virt. eigenvalues --    1.63441   1.63445   1.63445   1.64561   1.64561

  Beta  occ. eigenvalues --  -20.75489 -20.75484  -1.20429  -1.19492  -0.37800
  Beta  occ. eigenvalues --   -0.31693  -0.31693
  Beta virt. eigenvalues --   -0.19204  -0.16133  -0.16133   0.67555   0.76945
  Beta virt. eigenvalues --    0.76945   0.80222   0.80222   0.82756   0.89980
  Beta virt. eigenvalues --    0.98642   1.67714   1.68557   1.68557   1.68854

 Mulliken charges and spin densities:
               1          2
     1  O    0.000000   1.000000
     2  O    0.000000   1.000000
 Sum of Mulliken charges =   0.00000   2.00000

 Dipole moment (field-independent basis, Debye):
    X=              0.0000    Y=             -0.0000    Z=              0.0000  Tot=              0.0000
 Quadrupole moment (field-independent basis, Debye-Ang):
   XX=            -10.7914   YY=            -10.7914   ZZ=             -9.2820
   XY=             -0.0000   XZ=             -0.0000   YZ=              0.0000

 Normal termination of Gaussian 16 at Fri Feb  9 18:06:16 2024.
