 Gaussian 16, Revision A.03,
 Gaussian 16:  ES64L-G16RevA.03 25-Dec-2016

 ------------------
 #p CCSD(T)/cc-pVTZ
 ------------------

 -----
 O2_96
 -----
 Symbolic Z-matrix:
 Charge =  0 Multiplicity = 3

                         Standard orientation:
 ---------------------------------------------------------------------
 Center     Atomic      Atomic             Coordinates (Angstroms)
 Number     Number       Type             X           Y           Z
 ---------------------------------------------------------------------
      1          8           0        0.000000    0.000000    1.840000
      2          8           0        0.000000    0.000000   -1.840000
 ---------------------------------------------------------------------

 SCF Done:  E(UHF) =  -149.023605325     A.U. after   11 cycles
 E2 =    -0.1712546142D+01 EUMP2 =    -0.15073615146709D+03
 CCSD(T)
 CCSD(T)= -0.14995712587D+03

 The electronic state is 3-SGG.
 Alpha  occ. eigenvalues --  -20.80274 -20.80272  -1.39477  -1.39150  -0.70627
 Alpha  occ. eigenvalues --   -0.70627  -0.70555  -0.70555  -0.40848
 Alpha virt. eigenvalues --   -0.24775   0.67660   0.68961   0.68961   0.70919
 Alpha virt. eigenvalues --    0.70919   0.79944   0.86728   0.90936   1.63565
 Alpha virt. eigenvalues --    1.63565   1.63566   1.63566   1.64706   1.64706

  Beta  occ. eigenvalues --  -20.75088 -20.75085  -1.20135  -1.19445  -0.36676
  Beta  occ. eigenvalues --   -0.30926  -0.30926
  Beta virt. eigenvalues --   -0.20231  -0.16607  -0.16607   0.69564   0.77696
  Beta virt. eigenvalues --    0.77696   0.79598   0.79598   0.81959   0.90598
  Beta virt. eigenvalues --    0.94814   1.67917   1.68436   1.68725   1.68725

 Mulliken charges and spin densities:
               1          2
     1  O   -0.000000   1.000000
     2  O   -0.000000   1.000000
 Sum of Mulliken charges =  -0.00000   2.00000

 Dipole moment (field-independent basis, Debye):
    X=             -0.0000    Y=              0.0000    Z=             -0.0000  Tot=              0.0000
 Quadrupole moment (field-independent basis, Debye-Ang):
   XX=            -10.7801   YY=            -10.7801   ZZ=             -9.5055
   XY=             -0.0000   XZ=             -0.0000   YZ=              0.0000

 Normal termination of Gaussian 16 at Fri Feb  9 18:08:18 2024.
