 Gaussian 16, Revision A.03,
 Gaussian 16:  ES64L-G16RevA.03 25-Dec-2016

 ------------------
 #p CCSD(T)/cc-pVTZ
 ------------------

 -----
 O2_92
 -----
 Symbolic Z-matrix:
 Charge =  0 Multiplicity = 3

                         Standard orientation:
 ---------------------------------------------------------------------
 Center     Atomic      Atomic             Coordinates (Angstroms)
 Number     Number       Type             X           Y           Z
 ---------------------------------------------------------------------
      1          8           0        0.000000    0.000000    1.780000
      2          8           0        0.000000    0.000000   -1.780000
 ---------------------------------------------------------------------

 SCF Done:  E(UHF) =  -149.032097345     A.U. after   11 cycles
 E2 =    -0.1631554962D+01 EUMP2 =    -0.15066365230715D+03
 CCSD(T)
 CCSD(T)= -0.14995200659D+03

 The electronic state is 3-SGG.
 Alpha  occ. eigenvalues --  -20.80456 -20.80454  -1.39607  -1.39230  -0.70756
 Alpha  occ. eigenvalues --   -0.70756  -0.70662  -0.70662  -0.41297
 Alpha virt. eigenvalues --   -0.24413   0.66656   0.68647   0.68647   0.71168
 Alpha virt. eigenvalues --    0.71168   0.80316   0.86503   0.92473   1.63510
 Alpha virt. eigenvalues --    1.63510   1.63512   1.63512   1.64645   1.64645

  Beta  occ. eigenvalues --  -20.75258 -20.75254  -1.20258  -1.19472  -0.37142
  Beta  occ. eigenvalues --   -0.31253  -0.31253
  Beta virt. eigenvalues --   -0.19809  -0.16412  -0.16412   0.68598   0.77392
  Beta virt. eigenvalues --    0.77392   0.79839   0.79839   0.82461   0.90337
  Beta virt. eigenvalues --    0.96227   1.67840   1.68540   1.68655   1.68655

 Mulliken charges and spin densities:
               1          2
     1  O   -0.000000   1.000000
     2  O   -0.000000   1.000000
 Sum of Mulliken charges =  -0.00000   2.00000

 Dipole moment (field-independent basis, Debye):
    X=             -0.0000    Y=              0.0000    Z=             -0.0000  Tot=              0.0000
 Quadrupole moment (field-independent basis, Debye-Ang):
   XX=            -10.7848   YY=            -10.7848   ZZ=             -9.4113
   XY=             -0.0000   XZ=             -0.0000   YZ=              0.0000

 Normal termination of Gaussian 16 at Fri Feb  9 18:07:23 2024.
