 Gaussian 16, Revision A.03,
 Gaussian 16:  ES64L-G16RevA.03 25-Dec-2016

 ------------------
 #p CCSD(T)/cc-pVTZ
 ------------------

 ----
 O2_9
 ----
 Symbolic Z-matrix:
 Charge =  0 Multiplicity = 3

                         Standard orientation:
 ---------------------------------------------------------------------
 Center     Atomic      Atomic             Coordinates (Angstroms)
 Number     Number       Type             X           Y           Z
 ---------------------------------------------------------------------
      1          8           0        0.000000    0.000000    0.535000
      2          8           0        0.000000    0.000000   -0.535000
 ---------------------------------------------------------------------

 SCF Done:  E(UHF) =  -149.659311386     A.U. after   10 cycles
 E2 =    -0.4086688465D+00 EUMP2 =    -0.15006798023230D+03
 CCSD(T)
 CCSD(T)= -0.15008954290D+03

 The electronic state is 3-SGG.
 Alpha  occ. eigenvalues --  -20.72384 -20.72245  -1.84474  -1.15125  -0.89709
 Alpha  occ. eigenvalues --   -0.89709  -0.80779  -0.48725  -0.48725
 Alpha virt. eigenvalues --    0.45504   0.66592   0.66592   0.70488   0.79888
 Alpha virt. eigenvalues --    0.79888   0.87328   0.91803   1.38448   1.41510
 Alpha virt. eigenvalues --    1.41510   1.63557   1.63557   1.92272   1.92272

  Beta  occ. eigenvalues --  -20.67124 -20.66908  -1.73450  -0.94591  -0.73301
  Beta  occ. eigenvalues --   -0.65075  -0.65075
  Beta virt. eigenvalues --    0.17334   0.17334   0.48654   0.71274   0.72018
  Beta virt. eigenvalues --    0.72018   0.89497   0.89881   0.89881   0.98826
  Beta virt. eigenvalues --    1.42610   1.46528   1.46528   1.70460   1.70460

 Mulliken charges and spin densities:
               1          2
     1  O   -0.000000   1.000000
     2  O   -0.000000   1.000000
 Sum of Mulliken charges =  -0.00000   2.00000

 Dipole moment (field-independent basis, Debye):
    X=             -0.0000    Y=             -0.0000    Z=             -0.0000  Tot=              0.0000
 Quadrupole moment (field-independent basis, Debye-Ang):
   XX=             -9.6195   YY=             -9.6195   ZZ=            -10.5244
   XY=              0.0000   XZ=              0.0000   YZ=              0.0000

 478\PMP3-0=-150.0738674\MP4SDQ=-150.0761987\CCSD=-150.0755618\CCSD(T)=
 Normal termination of Gaussian 16 at Fri Feb  9 17:49:18 2024.
