 Gaussian 16, Revision A.03,
 Gaussian 16:  ES64L-G16RevA.03 25-Dec-2016

 ------------------
 #p CCSD(T)/cc-pVTZ
 ------------------

 -----
 O2_99
 -----
 Symbolic Z-matrix:
 Charge =  0 Multiplicity = 3

                         Standard orientation:
 ---------------------------------------------------------------------
 Center     Atomic      Atomic             Coordinates (Angstroms)
 Number     Number       Type             X           Y           Z
 ---------------------------------------------------------------------
      1          8           0        0.000000    0.000000    1.885000
      2          8           0        0.000000    0.000000   -1.885000
 ---------------------------------------------------------------------

 SCF Done:  E(UHF) =  -149.017847588     A.U. after   11 cycles
 E2 =    -0.1773081968D+01 EUMP2 =    -0.15079092955530D+03
 CCSD(T)
 CCSD(T)= -0.14996048076D+03

 The electronic state is 3-SGG.
 Alpha  occ. eigenvalues --  -20.80149 -20.80148  -1.39389  -1.39092  -0.70538
 Alpha  occ. eigenvalues --   -0.70538  -0.70479  -0.70479  -0.40540
 Alpha virt. eigenvalues --   -0.25020   0.68431   0.69163   0.69163   0.70766
 Alpha virt. eigenvalues --    0.70766   0.79531   0.86885   0.90078   1.63604
 Alpha virt. eigenvalues --    1.63604   1.63605   1.63605   1.64748   1.64748

  Beta  occ. eigenvalues --  -20.74971 -20.74968  -1.20050  -1.19422  -0.36358
  Beta  occ. eigenvalues --   -0.30695  -0.30695
  Beta virt. eigenvalues --   -0.20516  -0.16740  -0.16740   0.70311   0.77894
  Beta virt. eigenvalues --    0.77894   0.79452   0.79452   0.81465   0.90778
  Beta virt. eigenvalues --    0.94032   1.67967   1.68404   1.68774   1.68774

 Mulliken charges and spin densities:
               1          2
     1  O   -0.000000   1.000000
     2  O   -0.000000   1.000000
 Sum of Mulliken charges =  -0.00000   2.00000

 Dipole moment (field-independent basis, Debye):
    X=             -0.0000    Y=              0.0000    Z=             -0.0000  Tot=              0.0000
 Quadrupole moment (field-independent basis, Debye-Ang):
   XX=            -10.7769   YY=            -10.7769   ZZ=             -9.5690
   XY=             -0.0000   XZ=             -0.0000   YZ=              0.0000

 0465\PMP3-0=-146.8648065\MP4SDQ=-154.6105485\CCSD=-149.779406\CCSD(T)=
 Normal termination of Gaussian 16 at Fri Feb  9 18:08:57 2024.
