 Gaussian 16, Revision A.03,
 Gaussian 16:  ES64L-G16RevA.03 25-Dec-2016

 ------------------
 #p CCSD(T)/cc-pVTZ
 ------------------

 -----
 O2_94
 -----
 Symbolic Z-matrix:
 Charge =  0 Multiplicity = 3

                         Standard orientation:
 ---------------------------------------------------------------------
 Center     Atomic      Atomic             Coordinates (Angstroms)
 Number     Number       Type             X           Y           Z
 ---------------------------------------------------------------------
      1          8           0        0.000000    0.000000    1.810000
      2          8           0        0.000000    0.000000   -1.810000
 ---------------------------------------------------------------------

 SCF Done:  E(UHF) =  -149.027728439     A.U. after   11 cycles
 E2 =    -0.1672074970D+01 EUMP2 =    -0.15069980340832D+03
 CCSD(T)
 CCSD(T)= -0.14995466413D+03

 The electronic state is 3-SGG.
 Alpha  occ. eigenvalues --  -20.80363 -20.80361  -1.39541  -1.39190  -0.70690
 Alpha  occ. eigenvalues --   -0.70690  -0.70608  -0.70608  -0.41067
 Alpha virt. eigenvalues --   -0.24599   0.67151   0.68811   0.68811   0.71036
 Alpha virt. eigenvalues --    0.71036   0.80158   0.86618   0.91646   1.63537
 Alpha virt. eigenvalues --    1.63537   1.63539   1.63539   1.64676   1.64676

  Beta  occ. eigenvalues --  -20.75172 -20.75168  -1.20195  -1.19460  -0.36903
  Beta  occ. eigenvalues --   -0.31087  -0.31087
  Beta virt. eigenvalues --   -0.20026  -0.16512  -0.16512   0.69073   0.77550
  Beta virt. eigenvalues --    0.77550   0.79712   0.79712   0.82237   0.90471
  Beta virt. eigenvalues --    0.95464   1.67880   1.68477   1.68691   1.68691

 Mulliken charges and spin densities:
               1          2
     1  O   -0.000000   1.000000
     2  O   -0.000000   1.000000
 Sum of Mulliken charges =  -0.00000   2.00000

 Dipole moment (field-independent basis, Debye):
    X=             -0.0000    Y=             -0.0000    Z=             -0.0000  Tot=              0.0000
 Quadrupole moment (field-independent basis, Debye-Ang):
   XX=            -10.7824   YY=            -10.7824   ZZ=             -9.4596
   XY=             -0.0000   XZ=             -0.0000   YZ=              0.0000

 903\PMP3-0=-147.312206\MP4SDQ=-153.4888238\CCSD=-149.7793972\CCSD(T)=-
 Normal termination of Gaussian 16 at Fri Feb  9 18:07:49 2024.
