 Gaussian 16, Revision A.03,
 Gaussian 16:  ES64L-G16RevA.03 25-Dec-2016

 ------------------
 #p CCSD(T)/cc-pVTZ
 ------------------

 -----
 O2_91
 -----
 Symbolic Z-matrix:
 Charge =  0 Multiplicity = 3

                         Standard orientation:
 ---------------------------------------------------------------------
 Center     Atomic      Atomic             Coordinates (Angstroms)
 Number     Number       Type             X           Y           Z
 ---------------------------------------------------------------------
      1          8           0        0.000000    0.000000    1.765000
      2          8           0        0.000000    0.000000   -1.765000
 ---------------------------------------------------------------------

 SCF Done:  E(UHF) =  -149.034379104     A.U. after   11 cycles
 E2 =    -0.1611289414D+01 EUMP2 =    -0.15064566851807D+03
 CCSD(T)
 CCSD(T)= -0.14995059845D+03

 The electronic state is 3-SGG.
 Alpha  occ. eigenvalues --  -20.80504 -20.80502  -1.39641  -1.39251  -0.70790
 Alpha  occ. eigenvalues --   -0.70790  -0.70689  -0.70689  -0.41417
 Alpha virt. eigenvalues --   -0.24315   0.66417   0.68561   0.68561   0.71240
 Alpha virt. eigenvalues --    0.71240   0.80373   0.86444   0.92931   1.63496
 Alpha virt. eigenvalues --    1.63496   1.63499   1.63499   1.64629   1.64629

  Beta  occ. eigenvalues --  -20.75303 -20.75299  -1.20291  -1.19478  -0.37267
  Beta  occ. eigenvalues --   -0.31338  -0.31338
  Beta virt. eigenvalues --   -0.19695  -0.16360  -0.16360   0.68370   0.77308
  Beta virt. eigenvalues --    0.77308   0.79908   0.79908   0.82551   0.90268
  Beta virt. eigenvalues --    0.96652   1.67819   1.68582   1.68637   1.68637

 Mulliken charges and spin densities:
               1          2
     1  O   -0.000000   1.000000
     2  O   -0.000000   1.000000
 Sum of Mulliken charges =  -0.00000   2.00000

 Dipole moment (field-independent basis, Debye):
    X=             -0.0000    Y=             -0.0000    Z=              0.0000  Tot=              0.0000
 Quadrupole moment (field-independent basis, Debye-Ang):
   XX=            -10.7861   YY=            -10.7861   ZZ=             -9.3863
   XY=             -0.0000   XZ=             -0.0000   YZ=              0.0000

 067\PMP3-0=-147.5626198\MP4SDQ=-152.9096071\CCSD=-149.779413\CCSD(T)=-
 Normal termination of Gaussian 16 at Fri Feb  9 18:07:10 2024.
