 Gaussian 16, Revision A.03,
 Gaussian 16:  ES64L-G16RevA.03 25-Dec-2016

 ------------------
 #p CCSD(T)/cc-pVTZ
 ------------------

 -----
 O2_93
 -----
 Symbolic Z-matrix:
 Charge =  0 Multiplicity = 3

                         Standard orientation:
 ---------------------------------------------------------------------
 Center     Atomic      Atomic             Coordinates (Angstroms)
 Number     Number       Type             X           Y           Z
 ---------------------------------------------------------------------
      1          8           0        0.000000    0.000000    1.795000
      2          8           0        0.000000    0.000000   -1.795000
 ---------------------------------------------------------------------

 SCF Done:  E(UHF) =  -149.029881156     A.U. after   11 cycles
 E2 =    -0.1651818585D+01 EUMP2 =    -0.15068169974092D+03
 CCSD(T)
 CCSD(T)= -0.14995336066D+03

 The electronic state is 3-SGG.
 Alpha  occ. eigenvalues --  -20.80409 -20.80407  -1.39573  -1.39210  -0.70723
 Alpha  occ. eigenvalues --   -0.70723  -0.70634  -0.70634  -0.41181
 Alpha virt. eigenvalues --   -0.24507   0.66901   0.68731   0.68731   0.71101
 Alpha virt. eigenvalues --    0.71101   0.80245   0.86561   0.92045   1.63524
 Alpha virt. eigenvalues --    1.63524   1.63526   1.63526   1.64661   1.64661

  Beta  occ. eigenvalues --  -20.75215 -20.75211  -1.20226  -1.19466  -0.37021
  Beta  occ. eigenvalues --   -0.31169  -0.31169
  Beta virt. eigenvalues --   -0.19919  -0.16463  -0.16463   0.68833   0.77472
  Beta virt. eigenvalues --    0.77472   0.79773   0.79773   0.82356   0.90405
  Beta virt. eigenvalues --    0.95831   1.67861   1.68505   1.68673   1.68673

 Mulliken charges and spin densities:
               1          2
     1  O    0.000000   1.000000
     2  O    0.000000   1.000000
 Sum of Mulliken charges =   0.00000   2.00000

 Dipole moment (field-independent basis, Debye):
    X=              0.0000    Y=              0.0000    Z=              0.0000  Tot=              0.0000
 Quadrupole moment (field-independent basis, Debye-Ang):
   XX=            -10.7836   YY=            -10.7836   ZZ=             -9.4358
   XY=             -0.0000   XZ=             -0.0000   YZ=              0.0000

 029\PMP3-0=-147.3972145\MP4SDQ=-153.2881437\CCSD=-149.7794\CCSD(T)=-14
 Normal termination of Gaussian 16 at Fri Feb  9 18:07:36 2024.
