 Gaussian 16, Revision A.03,
 Gaussian 16:  ES64L-G16RevA.03 25-Dec-2016

 ------------------
 #p CCSD(T)/cc-pVTZ
 ------------------

 -----
 O2_98
 -----
 Symbolic Z-matrix:
 Charge =  0 Multiplicity = 3

                         Standard orientation:
 ---------------------------------------------------------------------
 Center     Atomic      Atomic             Coordinates (Angstroms)
 Number     Number       Type             X           Y           Z
 ---------------------------------------------------------------------
      1          8           0        0.000000    0.000000    1.870000
      2          8           0        0.000000    0.000000   -1.870000
 ---------------------------------------------------------------------

 SCF Done:  E(UHF) =  -149.019712385     A.U. after   11 cycles
 E2 =    -0.1752931603D+01 EUMP2 =    -0.15077264398808D+03
 CCSD(T)
 CCSD(T)= -0.14995940430D+03

 The electronic state is 3-SGG.
 Alpha  occ. eigenvalues --  -20.80190 -20.80188  -1.39417  -1.39111  -0.70567
 Alpha  occ. eigenvalues --   -0.70567  -0.70504  -0.70504  -0.40640
 Alpha virt. eigenvalues --   -0.24940   0.68175   0.69099   0.69099   0.70814
 Alpha virt. eigenvalues --    0.70814   0.79679   0.86834   0.90337   1.63591
 Alpha virt. eigenvalues --    1.63591   1.63592   1.63592   1.64734   1.64734

  Beta  occ. eigenvalues --  -20.75009 -20.75006  -1.20077  -1.19430  -0.36461
  Beta  occ. eigenvalues --   -0.30771  -0.30771
  Beta virt. eigenvalues --   -0.20424  -0.16697  -0.16697   0.70062   0.77831
  Beta virt. eigenvalues --    0.77831   0.79498   0.79498   0.81638   0.90719
  Beta virt. eigenvalues --    0.94269   1.67951   1.68412   1.68758   1.68758

 Mulliken charges and spin densities:
               1          2
     1  O   -0.000000   1.000000
     2  O   -0.000000   1.000000
 Sum of Mulliken charges =  -0.00000   2.00000

 Dipole moment (field-independent basis, Debye):
    X=             -0.0000    Y=              0.0000    Z=              0.0000  Tot=              0.0000
 Quadrupole moment (field-independent basis, Debye-Ang):
   XX=            -10.7780   YY=            -10.7780   ZZ=             -9.5485
   XY=             -0.0000   XZ=             -0.0000   YZ=              0.0000

 735\PMP3-0=-146.9572072\MP4SDQ=-154.3700978\CCSD=-149.7794021\CCSD(T)=
 Normal termination of Gaussian 16 at Fri Feb  9 18:08:44 2024.
