 Gaussian 16, Revision A.03,
 Gaussian 16:  ES64L-G16RevA.03 25-Dec-2016

 ---------------------------------------------
 #p CCSD(T,MaxCyc=200)/cc-pVTZ SCF(MaxCyc=200)
 ---------------------------------------------

 -
 N
 -
 Symbolic Z-matrix:
 Charge =  0 Multiplicity = 4

                         Standard orientation:
 ---------------------------------------------------------------------
 Center     Atomic      Atomic             Coordinates (Angstroms)
 Number     Number       Type             X           Y           Z
 ---------------------------------------------------------------------
      1          7           0        0.000000    0.000000    0.000000
 ---------------------------------------------------------------------

 SCF Done:  E(UHF) =  -54.4006861850     A.U. after    8 cycles
 E2 =    -0.9593051720D-01 EUMP2 =    -0.54496616702219D+02
 CCSD(T)
 CCSD(T)= -0.54514707331D+02

 The electronic state is 4-A1G.
 Alpha  occ. eigenvalues --  -15.66866  -1.16112  -0.56868  -0.56868  -0.56868
 Alpha virt. eigenvalues --    0.58454   0.58454   0.58454   0.66363   1.19123
 Alpha virt. eigenvalues --    1.19123   1.19123   1.19123   1.19123   3.16902
 Alpha virt. eigenvalues --    3.16902   3.16902   4.18352   4.18352   4.18352

  Beta  occ. eigenvalues --  -15.57929  -0.72566
  Beta virt. eigenvalues --    0.14360   0.14360   0.14360   0.76120   0.76120
  Beta virt. eigenvalues --    0.76120   0.77210   1.33596   1.33596   1.33596
  Beta virt. eigenvalues --    1.33596   1.33596   3.33228   3.33228   3.33228

 Mulliken charges and spin densities:
               1          2
     1  N    0.000000   3.000000
 Sum of Mulliken charges =   0.00000   3.00000

 Dipole moment (field-independent basis, Debye):
    X=              0.0000    Y=              0.0000    Z=              0.0000  Tot=              0.0000
 Quadrupole moment (field-independent basis, Debye-Ang):
   XX=             -5.3715   YY=             -5.3715   ZZ=             -5.3715
   XY=              0.0000   XZ=              0.0000   YZ=             -0.0000

 Normal termination of Gaussian 16 at Mon Feb 12 15:21:05 2024.
