 Gaussian 16, Revision A.03,
 Gaussian 16:  ES64L-G16RevA.03 25-Dec-2016

 ---------------------------------------------
 #p CCSD(T,MaxCyc=200)/cc-pVTZ SCF(MaxCyc=200)
 ---------------------------------------------

 ----
 N2_0
 ----
 Symbolic Z-matrix:
 Charge =  0 Multiplicity = 1

                         Standard orientation:
 ---------------------------------------------------------------------
 Center     Atomic      Atomic             Coordinates (Angstroms)
 Number     Number       Type             X           Y           Z
 ---------------------------------------------------------------------
      1          7           0        0.000000    0.000000    0.400000
      2          7           0        0.000000    0.000000   -0.400000
 ---------------------------------------------------------------------

 SCF Done:  E(RHF) =  -108.498848819     A.U. after    9 cycles
 E2 =    -0.3136720615D+00 EUMP2 =    -0.10881252088032D+03
 CCSD(T)
 CCSD(T)= -0.10883413512D+03

 The electronic state is 1-SGG.
 Alpha  occ. eigenvalues --  -15.59021 -15.55355  -1.65840  -0.78663  -0.78663
 Alpha  occ. eigenvalues --   -0.66841  -0.65607
 Alpha virt. eigenvalues --    0.31909   0.31909   0.43635   0.50387   0.50387
 Alpha virt. eigenvalues --    0.52332   0.71852   0.82364   0.82364   1.02720
 Alpha virt. eigenvalues --    1.05185   1.05185   1.54781   1.54781   1.58476

 Mulliken charges:
               1
     1  N   -0.000000
     2  N   -0.000000
 Sum of Mulliken charges =  -0.00000

 Dipole moment (field-independent basis, Debye):
    X=             -0.0000    Y=             -0.0000    Z=              0.0000  Tot=              0.0000
 Quadrupole moment (field-independent basis, Debye-Ang):
   XX=             -9.0409   YY=             -9.0409   ZZ=            -11.3048
   XY=              0.0000   XZ=              0.0000   YZ=             -0.0000

 .8241061\CCSD=-108.8238862\CCSD(T)=-108.8341351\RMSD=4.156e-09\PG=D*H
 Normal termination of Gaussian 16 at Sat Feb 10 15:27:58 2024.
