 Gaussian 16, Revision A.03,
 Gaussian 16:  ES64L-G16RevA.03 25-Dec-2016

 ---------------------------------------------
 #p CCSD(T,MaxCyc=200)/cc-pVTZ SCF(MaxCyc=200)
 ---------------------------------------------

 ----
 N2_1
 ----
 Symbolic Z-matrix:
 Charge =  0 Multiplicity = 1

                         Standard orientation:
 ---------------------------------------------------------------------
 Center     Atomic      Atomic             Coordinates (Angstroms)
 Number     Number       Type             X           Y           Z
 ---------------------------------------------------------------------
      1          7           0        0.000000    0.000000    0.415000
      2          7           0        0.000000    0.000000   -0.415000
 ---------------------------------------------------------------------

 SCF Done:  E(RHF) =  -108.632238893     A.U. after    9 cycles
 E2 =    -0.3180872493D+00 EUMP2 =    -0.10895032614243D+03
 CCSD(T)
 CCSD(T)= -0.10897198300D+03

 The electronic state is 1-SGG.
 Alpha  occ. eigenvalues --  -15.59338 -15.56562  -1.64751  -0.76340  -0.76340
 Alpha  occ. eigenvalues --   -0.68069  -0.65400
 Alpha virt. eigenvalues --    0.30360   0.30360   0.43667   0.51067   0.51067
 Alpha virt. eigenvalues --    0.52676   0.71242   0.80951   0.80951   1.01479
 Alpha virt. eigenvalues --    1.04959   1.04959   1.52841   1.52841   1.54372

 Mulliken charges:
               1
     1  N    0.000000
     2  N    0.000000
 Sum of Mulliken charges =   0.00000

 Dipole moment (field-independent basis, Debye):
    X=              0.0000    Y=             -0.0000    Z=             -0.0000  Tot=              0.0000
 Quadrupole moment (field-independent basis, Debye-Ang):
   XX=             -9.1796   YY=             -9.1796   ZZ=            -11.3549
   XY=              0.0000   XZ=              0.0000   YZ=             -0.0000

 8.9614118\CCSD=-108.9611385\CCSD(T)=-108.971983\RMSD=3.828e-09\PG=D*H
 Normal termination of Gaussian 16 at Sat Feb 10 15:28:02 2024.
