 Gaussian 16, Revision A.03,
 Gaussian 16:  ES64L-G16RevA.03 25-Dec-2016

 ---------------------------------------------
 #p CCSD(T,MaxCyc=200)/cc-pVTZ SCF(MaxCyc=200)
 ---------------------------------------------

 -----
 N2_10
 -----
 Symbolic Z-matrix:
 Charge =  0 Multiplicity = 1

                         Standard orientation:
 ---------------------------------------------------------------------
 Center     Atomic      Atomic             Coordinates (Angstroms)
 Number     Number       Type             X           Y           Z
 ---------------------------------------------------------------------
      1          7           0        0.000000    0.000000    0.550000
      2          7           0        0.000000    0.000000   -0.550000
 ---------------------------------------------------------------------

 SCF Done:  E(RHF) =  -108.983006335     A.U. after    9 cycles
 E2 =    -0.3743107489D+00 EUMP2 =    -0.10935731708440D+03
 CCSD(T)
 CCSD(T)= -0.10937389954D+03

 The electronic state is 1-SGG.
 Alpha  occ. eigenvalues --  -15.68246 -15.67897  -1.46794  -0.77819  -0.63213
 Alpha  occ. eigenvalues --   -0.61103  -0.61103
 Alpha virt. eigenvalues --    0.16080   0.16080   0.42524   0.56216   0.56288
 Alpha virt. eigenvalues --    0.56288   0.67229   0.73157   0.73157   0.92413
 Alpha virt. eigenvalues --    1.04842   1.04842   1.08729   1.34143   1.34143

 Mulliken charges:
               1
     1  N   -0.000000
     2  N   -0.000000
 Sum of Mulliken charges =  -0.00000

 Dipole moment (field-independent basis, Debye):
    X=             -0.0000    Y=             -0.0000    Z=              0.0000  Tot=              0.0000
 Quadrupole moment (field-independent basis, Debye-Ang):
   XX=            -10.2845   YY=            -10.2845   ZZ=            -11.6471
   XY=              0.0000   XZ=              0.0000   YZ=             -0.0000

 9.3576621\CCSD=-109.355331\CCSD(T)=-109.3738995\RMSD=1.597e-09\PG=D*H
 Normal termination of Gaussian 16 at Sat Feb 10 15:28:50 2024.
