 Gaussian 16, Revision A.03,
 Gaussian 16:  ES64L-G16RevA.03 25-Dec-2016

 ---------------------------------------------
 #p CCSD(T,MaxCyc=200)/cc-pVTZ SCF(MaxCyc=200)
 ---------------------------------------------

 -----
 N2_18
 -----
 Symbolic Z-matrix:
 Charge =  0 Multiplicity = 1

                         Standard orientation:
 ---------------------------------------------------------------------
 Center     Atomic      Atomic             Coordinates (Angstroms)
 Number     Number       Type             X           Y           Z
 ---------------------------------------------------------------------
      1          7           0        0.000000    0.000000    0.670000
      2          7           0        0.000000    0.000000   -0.670000
 ---------------------------------------------------------------------

 SCF Done:  E(RHF) =  -108.836285849     A.U. after    8 cycles
 E2 =    -0.4578369124D+00 EUMP2 =    -0.10929412276188D+03
 CCSD(T)
 CCSD(T)= -0.10928981378D+03

 The electronic state is 1-SGG.
 Alpha  occ. eigenvalues --  -15.75371 -15.75251  -1.31111  -0.84969  -0.60367
 Alpha  occ. eigenvalues --   -0.52722  -0.52722
 Alpha virt. eigenvalues --    0.05813   0.05813   0.36810   0.59293   0.59429
 Alpha virt. eigenvalues --    0.59429   0.66403   0.66670   0.70236   0.70236
 Alpha virt. eigenvalues --    1.05056   1.07051   1.07051   1.19906   1.19906

 Mulliken charges:
               1
     1  N   -0.000000
     2  N   -0.000000
 Sum of Mulliken charges =  -0.00000

 Dipole moment (field-independent basis, Debye):
    X=             -0.0000    Y=              0.0000    Z=             -0.0000  Tot=              0.0000
 Quadrupole moment (field-independent basis, Debye-Ang):
   XX=            -11.0511   YY=            -11.0511   ZZ=            -11.5634
   XY=              0.0000   XZ=              0.0000   YZ=             -0.0000

 09.2739116\CCSD=-109.2598217\CCSD(T)=-109.2898138\RMSD=4.437e-09\PG=D*
 Normal termination of Gaussian 16 at Sat Feb 10 15:29:32 2024.
