 Gaussian 16, Revision A.03,
 Gaussian 16:  ES64L-G16RevA.03 25-Dec-2016

 ---------------------------------------------
 #p CCSD(T,MaxCyc=200)/cc-pVTZ SCF(MaxCyc=200)
 ---------------------------------------------

 -----
 N2_17
 -----
 Symbolic Z-matrix:
 Charge =  0 Multiplicity = 1

                         Standard orientation:
 ---------------------------------------------------------------------
 Center     Atomic      Atomic             Coordinates (Angstroms)
 Number     Number       Type             X           Y           Z
 ---------------------------------------------------------------------
      1          7           0        0.000000    0.000000    0.655000
      2          7           0        0.000000    0.000000   -0.655000
 ---------------------------------------------------------------------

 SCF Done:  E(RHF) =  -108.860530093     A.U. after    9 cycles
 E2 =    -0.4453144782D+00 EUMP2 =    -0.10930584457086D+03
 CCSD(T)
 CCSD(T)= -0.10930543012D+03

 The electronic state is 1-SGG.
 Alpha  occ. eigenvalues --  -15.74645 -15.74511  -1.32823  -0.84144  -0.60793
 Alpha  occ. eigenvalues --   -0.53595  -0.53595
 Alpha virt. eigenvalues --    0.06926   0.06926   0.38053   0.58960   0.59124
 Alpha virt. eigenvalues --    0.59124   0.66366   0.69426   0.70494   0.70494
 Alpha virt. eigenvalues --    1.04480   1.06689   1.06689   1.21438   1.21438

 Mulliken charges:
               1
     1  N   -0.000000
     2  N   -0.000000
 Sum of Mulliken charges =  -0.00000

 Dipole moment (field-independent basis, Debye):
    X=             -0.0000    Y=              0.0000    Z=              0.0000  Tot=              0.0000
 Quadrupole moment (field-independent basis, Debye-Ang):
   XX=            -10.9666   YY=            -10.9666   ZZ=            -11.5907
   XY=              0.0000   XZ=              0.0000   YZ=             -0.0000

 09.288485\CCSD=-109.2771273\CCSD(T)=-109.3054301\RMSD=9.018e-10\PG=D*H
 Normal termination of Gaussian 16 at Sat Feb 10 15:29:26 2024.
