 Gaussian 16, Revision A.03,
 Gaussian 16:  ES64L-G16RevA.03 25-Dec-2016

 ---------------------------------------------
 #p CCSD(T,MaxCyc=200)/cc-pVTZ SCF(MaxCyc=200)
 ---------------------------------------------

 -----
 N2_11
 -----
 Symbolic Z-matrix:
 Charge =  0 Multiplicity = 1

                         Standard orientation:
 ---------------------------------------------------------------------
 Center     Atomic      Atomic             Coordinates (Angstroms)
 Number     Number       Type             X           Y           Z
 ---------------------------------------------------------------------
      1          7           0        0.000000    0.000000    0.565000
      2          7           0        0.000000    0.000000   -0.565000
 ---------------------------------------------------------------------

 SCF Done:  E(RHF) =  -108.974390235     A.U. after    9 cycles
 E2 =    -0.3827810032D+00 EUMP2 =    -0.10935717123773D+03
 CCSD(T)
 CCSD(T)= -0.10937225409D+03

 The electronic state is 1-SGG.
 Alpha  occ. eigenvalues --  -15.69291 -15.68997  -1.44625  -0.78782  -0.62923
 Alpha  occ. eigenvalues --   -0.59856  -0.59856
 Alpha virt. eigenvalues --    0.14628   0.14628   0.42181   0.56632   0.56764
 Alpha virt. eigenvalues --    0.56764   0.66985   0.72659   0.72659   0.90302
 Alpha virt. eigenvalues --    1.05019   1.05019   1.05577   1.32149   1.32149

 Mulliken charges:
               1
     1  N   -0.000000
     2  N   -0.000000
 Sum of Mulliken charges =  -0.00000

 Dipole moment (field-independent basis, Debye):
    X=             -0.0000    Y=             -0.0000    Z=              0.0000  Tot=              0.0000
 Quadrupole moment (field-independent basis, Debye-Ang):
   XX=            -10.3915   YY=            -10.3915   ZZ=            -11.6547
   XY=              0.0000   XZ=              0.0000   YZ=             -0.0000

 09.355458\CCSD=-109.3525133\CCSD(T)=-109.3722541\RMSD=1.456e-09\PG=D*H
 Normal termination of Gaussian 16 at Sat Feb 10 15:28:55 2024.
