 Gaussian 16, Revision A.03,
 Gaussian 16:  ES64L-G16RevA.03 25-Dec-2016

 ---------------------------------------------
 #p CCSD(T,MaxCyc=200)/cc-pVTZ SCF(MaxCyc=200)
 ---------------------------------------------

 -----
 N2_14
 -----
 Symbolic Z-matrix:
 Charge =  0 Multiplicity = 1

                         Standard orientation:
 ---------------------------------------------------------------------
 Center     Atomic      Atomic             Coordinates (Angstroms)
 Number     Number       Type             X           Y           Z
 ---------------------------------------------------------------------
      1          7           0        0.000000    0.000000    0.610000
      2          7           0        0.000000    0.000000   -0.610000
 ---------------------------------------------------------------------

 SCF Done:  E(RHF) =  -108.926937446     A.U. after    9 cycles
 E2 =    -0.4114314288D+00 EUMP2 =    -0.10933836887520D+03
 CCSD(T)
 CCSD(T)= -0.10934724672D+03

 The electronic state is 1-SGG.
 Alpha  occ. eigenvalues --  -15.72179 -15.71989  -1.38421  -0.81550  -0.61949
 Alpha  occ. eigenvalues --   -0.56486  -0.56486
 Alpha virt. eigenvalues --    0.10556   0.10556   0.40689   0.57849   0.58055
 Alpha virt. eigenvalues --    0.58055   0.66495   0.71426   0.71426   0.79844
 Alpha virt. eigenvalues --    1.02993   1.05735   1.05735   1.26492   1.26492

 Mulliken charges:
               1
     1  N   -0.000000
     2  N    0.000000
 Sum of Mulliken charges =  -0.00000

 Dipole moment (field-independent basis, Debye):
    X=              0.0000    Y=             -0.0000    Z=             -0.0000  Tot=              0.0000
 Quadrupole moment (field-independent basis, Debye-Ang):
   XX=            -10.6934   YY=            -10.6934   ZZ=            -11.6454
   XY=              0.0000   XZ=              0.0000   YZ=             -0.0000

 9.3294086\CCSD=-109.3235583\CCSD(T)=-109.3472467\RMSD=8.815e-10\PG=D*H
 Normal termination of Gaussian 16 at Sat Feb 10 15:29:10 2024.
