 Gaussian 16, Revision A.03,
 Gaussian 16:  ES64L-G16RevA.03 25-Dec-2016

 ---------------------------------------------
 #p CCSD(T,MaxCyc=200)/cc-pVTZ SCF(MaxCyc=200)
 ---------------------------------------------

 -----
 N2_15
 -----
 Symbolic Z-matrix:
 Charge =  0 Multiplicity = 1

                         Standard orientation:
 ---------------------------------------------------------------------
 Center     Atomic      Atomic             Coordinates (Angstroms)
 Number     Number       Type             X           Y           Z
 ---------------------------------------------------------------------
      1          7           0        0.000000    0.000000    0.625000
      2          7           0        0.000000    0.000000   -0.625000
 ---------------------------------------------------------------------

 SCF Done:  E(RHF) =  -108.906226844     A.U. after    9 cycles
 E2 =    -0.4221236948D+00 EUMP2 =    -0.10932835053858D+03
 CCSD(T)
 CCSD(T)= -0.10933450694D+03

 The electronic state is 1-SGG.
 Alpha  occ. eigenvalues --  -15.73049 -15.72881  -1.36481  -0.82434  -0.61585
 Alpha  occ. eigenvalues --   -0.55474  -0.55474
 Alpha virt. eigenvalues --    0.09297   0.09297   0.39971   0.58235   0.58437
 Alpha virt. eigenvalues --    0.58437   0.66412   0.71086   0.71086   0.76088
 Alpha virt. eigenvalues --    1.03340   1.06029   1.06029   1.24735   1.24735

 Mulliken charges:
               1
     1  N   -0.000000
     2  N   -0.000000
 Sum of Mulliken charges =  -0.00000

 Dipole moment (field-independent basis, Debye):
    X=             -0.0000    Y=             -0.0000    Z=              0.0000  Tot=              0.0000
 Quadrupole moment (field-independent basis, Debye-Ang):
   XX=            -10.7877   YY=            -10.7877   ZZ=            -11.6319
   XY=              0.0000   XZ=              0.0000   YZ=             -0.0000

 09.3166731\CCSD=-109.3093553\CCSD(T)=-109.3345069\RMSD=6.735e-10\PG=D*
 Normal termination of Gaussian 16 at Sat Feb 10 15:29:16 2024.
