 Gaussian 16, Revision A.03,
 Gaussian 16:  ES64L-G16RevA.03 25-Dec-2016

 ---------------------------------------------
 #p CCSD(T,MaxCyc=200)/cc-pVTZ SCF(MaxCyc=200)
 ---------------------------------------------

 -----
 N2_12
 -----
 Symbolic Z-matrix:
 Charge =  0 Multiplicity = 1

                         Standard orientation:
 ---------------------------------------------------------------------
 Center     Atomic      Atomic             Coordinates (Angstroms)
 Number     Number       Type             X           Y           Z
 ---------------------------------------------------------------------
      1          7           0        0.000000    0.000000    0.580000
      2          7           0        0.000000    0.000000   -0.580000
 ---------------------------------------------------------------------

 SCF Done:  E(RHF) =  -108.961650722     A.U. after    9 cycles
 E2 =    -0.3917779400D+00 EUMP2 =    -0.10935342866155D+03
 CCSD(T)
 CCSD(T)= -0.10936674433D+03

 The electronic state is 1-SGG.
 Alpha  occ. eigenvalues --  -15.70298 -15.70046  -1.42500  -0.79724  -0.62618
 Alpha  occ. eigenvalues --   -0.58673  -0.58673
 Alpha virt. eigenvalues --    0.13222   0.13222   0.41771   0.57044   0.57218
 Alpha virt. eigenvalues --    0.57218   0.66782   0.72208   0.72208   0.87300
 Alpha virt. eigenvalues --    1.03760   1.05228   1.05228   1.30205   1.30205

 Mulliken charges:
               1
     1  N   -0.000000
     2  N   -0.000000
 Sum of Mulliken charges =  -0.00000

 Dipole moment (field-independent basis, Debye):
    X=             -0.0000    Y=             -0.0000    Z=              0.0000  Tot=              0.0000
 Quadrupole moment (field-independent basis, Debye-Ang):
   XX=            -10.4953   YY=            -10.4953   ZZ=            -11.6569
   XY=              0.0000   XZ=              0.0000   YZ=             -0.0000

 09.3494713\CCSD=-109.3457604\CCSD(T)=-109.3667443\RMSD=1.307e-09\PG=D*
 Normal termination of Gaussian 16 at Sat Feb 10 15:29:00 2024.
