 Gaussian 16, Revision A.03,
 Gaussian 16:  ES64L-G16RevA.03 25-Dec-2016

 ---------------------------------------------
 #p CCSD(T,MaxCyc=200)/cc-pVTZ SCF(MaxCyc=200)
 ---------------------------------------------

 -----
 N2_16
 -----
 Symbolic Z-matrix:
 Charge =  0 Multiplicity = 1

                         Standard orientation:
 ---------------------------------------------------------------------
 Center     Atomic      Atomic             Coordinates (Angstroms)
 Number     Number       Type             X           Y           Z
 ---------------------------------------------------------------------
      1          7           0        0.000000    0.000000    0.640000
      2          7           0        0.000000    0.000000   -0.640000
 ---------------------------------------------------------------------

 SCF Done:  E(RHF) =  -108.883956186     A.U. after    9 cycles
 E2 =    -0.4334137022D+00 EUMP2 =    -0.10931736988819D+03
 CCSD(T)
 CCSD(T)= -0.10932043668D+03

 The electronic state is 1-SGG.
 Alpha  occ. eigenvalues --  -15.73871 -15.73722  -1.34614  -0.83299  -0.61199
 Alpha  occ. eigenvalues --   -0.54511  -0.54511
 Alpha virt. eigenvalues --    0.08087   0.08087   0.39101   0.58606   0.58794
 Alpha virt. eigenvalues --    0.58794   0.66369   0.70777   0.70777   0.72583
 Alpha virt. eigenvalues --    1.03878   1.06347   1.06347   1.23049   1.23049

 Mulliken charges:
               1
     1  N    0.000000
     2  N    0.000000
 Sum of Mulliken charges =   0.00000

 Dipole moment (field-independent basis, Debye):
    X=              0.0000    Y=              0.0000    Z=              0.0000  Tot=              0.0000
 Quadrupole moment (field-independent basis, Debye-Ang):
   XX=            -10.8788   YY=            -10.8788   ZZ=            -11.6136
   XY=              0.0000   XZ=              0.0000   YZ=             -0.0000

 09.3028763\CCSD=-109.2937471\CCSD(T)=-109.3204367\RMSD=6.856e-10\PG=D*
 Normal termination of Gaussian 16 at Sat Feb 10 15:29:21 2024.
