 Gaussian 16, Revision A.03,
 Gaussian 16:  ES64L-G16RevA.03 25-Dec-2016

 ---------------------------------------------
 #p CCSD(T,MaxCyc=200)/cc-pVTZ SCF(MaxCyc=200)
 ---------------------------------------------

 -----
 N2_19
 -----
 Symbolic Z-matrix:
 Charge =  0 Multiplicity = 1

                         Standard orientation:
 ---------------------------------------------------------------------
 Center     Atomic      Atomic             Coordinates (Angstroms)
 Number     Number       Type             X           Y           Z
 ---------------------------------------------------------------------
      1          7           0        0.000000    0.000000    0.685000
      2          7           0        0.000000    0.000000   -0.685000
 ---------------------------------------------------------------------

 SCF Done:  E(RHF) =  -108.811503383     A.U. after    9 cycles
 E2 =    -0.4709896742D+00 EUMP2 =    -0.10928249305765D+03
 CCSD(T)
 CCSD(T)= -0.10927385707D+03

 The electronic state is 1-SGG.
 Alpha  occ. eigenvalues --  -15.76051 -15.75941  -1.29479  -0.85774  -0.59920
 Alpha  occ. eigenvalues --   -0.51891  -0.51891
 Alpha virt. eigenvalues --    0.04748   0.04748   0.35369   0.59604   0.59706
 Alpha virt. eigenvalues --    0.59706   0.64333   0.66478   0.69999   0.69999
 Alpha virt. eigenvalues --    1.05548   1.07433   1.07433   1.18453   1.18453

 Mulliken charges:
               1
     1  N   -0.000000
     2  N   -0.000000
 Sum of Mulliken charges =  -0.00000

 Dipole moment (field-independent basis, Debye):
    X=             -0.0000    Y=              0.0000    Z=             -0.0000  Tot=              0.0000
 Quadrupole moment (field-independent basis, Debye-Ang):
   XX=            -11.1324   YY=            -11.1324   ZZ=            -11.5321
   XY=              0.0000   XZ=              0.0000   YZ=             -0.0000

 09.2595261\CCSD=-109.2420992\CCSD(T)=-109.2738571\RMSD=1.319e-09\PG=D*
 Normal termination of Gaussian 16 at Sat Feb 10 15:29:37 2024.
