 Gaussian 16, Revision A.03,
 Gaussian 16:  ES64L-G16RevA.03 25-Dec-2016

 ---------------------------------------------
 #p CCSD(T,MaxCyc=200)/cc-pVTZ SCF(MaxCyc=200)
 ---------------------------------------------

 -----
 N2_27
 -----
 Symbolic Z-matrix:
 Charge =  0 Multiplicity = 1

                         Standard orientation:
 ---------------------------------------------------------------------
 Center     Atomic      Atomic             Coordinates (Angstroms)
 Number     Number       Type             X           Y           Z
 ---------------------------------------------------------------------
      1          7           0        0.000000    0.000000    0.805000
      2          7           0        0.000000    0.000000   -0.805000
 ---------------------------------------------------------------------

 SCF Done:  E(RHF) =  -108.614347568     A.U. after    9 cycles
 E2 =    -0.5992121381D+00 EUMP2 =    -0.10921355970653D+03
 CCSD(T)
 CCSD(T)= -0.10915370844D+03

 The electronic state is 1-SGG.
 Alpha  occ. eigenvalues --  -15.80012 -15.79953  -1.19185  -0.91421  -0.55821
 Alpha  occ. eigenvalues --   -0.46492  -0.46492
 Alpha virt. eigenvalues --   -0.02245  -0.02245   0.20363   0.56649   0.60950
 Alpha virt. eigenvalues --    0.60950   0.61255   0.68263   0.68684   0.68684
 Alpha virt. eigenvalues --    1.05045   1.09784   1.09784   1.10945   1.10945

 Mulliken charges:
               1
     1  N   -0.000000
     2  N   -0.000000
 Sum of Mulliken charges =  -0.00000

 Dipole moment (field-independent basis, Debye):
    X=             -0.0000    Y=              0.0000    Z=              0.0000  Tot=              0.0000
 Quadrupole moment (field-independent basis, Debye-Ang):
   XX=            -11.6654   YY=            -11.6654   ZZ=            -11.1825
   XY=              0.0000   XZ=             -0.0000   YZ=              0.0000

 09.1889981\CCSD=-109.1047414\CCSD(T)=-109.1537084\RMSD=1.565e-09\PG=D*
 Normal termination of Gaussian 16 at Sat Feb 10 15:30:23 2024.
