 Gaussian 16, Revision A.03,
 Gaussian 16:  ES64L-G16RevA.03 25-Dec-2016

 ---------------------------------------------
 #p CCSD(T,MaxCyc=200)/cc-pVTZ SCF(MaxCyc=200)
 ---------------------------------------------

 -----
 N2_21
 -----
 Symbolic Z-matrix:
 Charge =  0 Multiplicity = 1

                         Standard orientation:
 ---------------------------------------------------------------------
 Center     Atomic      Atomic             Coordinates (Angstroms)
 Number     Number       Type             X           Y           Z
 ---------------------------------------------------------------------
      1          7           0        0.000000    0.000000    0.715000
      2          7           0        0.000000    0.000000   -0.715000
 ---------------------------------------------------------------------

 SCF Done:  E(RHF) =  -108.761206866     A.U. after    9 cycles
 E2 =    -0.4992095827D+00 EUMP2 =    -0.10926041644890D+03
 CCSD(T)
 CCSD(T)= -0.10924176816D+03

 The electronic state is 1-SGG.
 Alpha  occ. eigenvalues --  -15.77275 -15.77184  -1.26453  -0.87320  -0.58974
 Alpha  occ. eigenvalues --   -0.50344  -0.50344
 Alpha virt. eigenvalues --    0.02753   0.02753   0.31967   0.60155   0.60179
 Alpha virt. eigenvalues --    0.60179   0.60849   0.66744   0.69584   0.69584
 Alpha virt. eigenvalues --    1.06150   1.08247   1.08247   1.15792   1.15792

 Mulliken charges:
               1
     1  N   -0.000000
     2  N   -0.000000
 Sum of Mulliken charges =  -0.00000

 Dipole moment (field-independent basis, Debye):
    X=             -0.0000    Y=             -0.0000    Z=              0.0000  Tot=              0.0000
 Quadrupole moment (field-independent basis, Debye-Ang):
   XX=            -11.2852   YY=            -11.2852   ZZ=            -11.4590
   XY=              0.0000   XZ=             -0.0000   YZ=             -0.0000

 9.2326487\CCSD=-109.2062436\CCSD(T)=-109.2417682\RMSD=1.530e-09\PG=D*H
 Normal termination of Gaussian 16 at Sat Feb 10 15:29:49 2024.
