 Gaussian 16, Revision A.03,
 Gaussian 16:  ES64L-G16RevA.03 25-Dec-2016

 ---------------------------------------------
 #p CCSD(T,MaxCyc=200)/cc-pVTZ SCF(MaxCyc=200)
 ---------------------------------------------

 -----
 N2_25
 -----
 Symbolic Z-matrix:
 Charge =  0 Multiplicity = 1

                         Standard orientation:
 ---------------------------------------------------------------------
 Center     Atomic      Atomic             Coordinates (Angstroms)
 Number     Number       Type             X           Y           Z
 ---------------------------------------------------------------------
      1          7           0        0.000000    0.000000    0.775000
      2          7           0        0.000000    0.000000   -0.775000
 ---------------------------------------------------------------------

 SCF Done:  E(RHF) =  -108.661884479     A.U. after    9 cycles
 E2 =    -0.5633462075D+00 EUMP2 =    -0.10922523068661D+03
 CCSD(T)
 CCSD(T)= -0.10918093502D+03

 The electronic state is 1-SGG.
 Alpha  occ. eigenvalues --  -15.79239 -15.79172  -1.21323  -0.90147  -0.56910
 Alpha  occ. eigenvalues --   -0.47658  -0.47658
 Alpha virt. eigenvalues --   -0.00730  -0.00730   0.24178   0.57373   0.60797
 Alpha virt. eigenvalues --    0.60797   0.60968   0.67665   0.68937   0.68937
 Alpha virt. eigenvalues --    1.05787   1.10019   1.10019   1.11459   1.11459

 Mulliken charges:
               1
     1  N    0.000000
     2  N    0.000000
 Sum of Mulliken charges =   0.00000

 Dipole moment (field-independent basis, Debye):
    X=              0.0000    Y=              0.0000    Z=              0.0000  Tot=              0.0000
 Quadrupole moment (field-independent basis, Debye-Ang):
   XX=            -11.5515   YY=            -11.5515   ZZ=            -11.2811
   XY=              0.0000   XZ=             -0.0000   YZ=              0.0000

 09.1949673\CCSD=-109.1368549\CCSD(T)=-109.180935\RMSD=1.595e-09\PG=D*H
 Normal termination of Gaussian 16 at Sat Feb 10 15:30:12 2024.
