 Gaussian 16, Revision A.03,
 Gaussian 16:  ES64L-G16RevA.03 25-Dec-2016

 ---------------------------------------------
 #p CCSD(T,MaxCyc=200)/cc-pVTZ SCF(MaxCyc=200)
 ---------------------------------------------

 -----
 N2_23
 -----
 Symbolic Z-matrix:
 Charge =  0 Multiplicity = 1

                         Standard orientation:
 ---------------------------------------------------------------------
 Center     Atomic      Atomic             Coordinates (Angstroms)
 Number     Number       Type             X           Y           Z
 ---------------------------------------------------------------------
      1          7           0        0.000000    0.000000    0.745000
      2          7           0        0.000000    0.000000   -0.745000
 ---------------------------------------------------------------------

 SCF Done:  E(RHF) =  -108.711030027     A.U. after    9 cycles
 E2 =    -0.5299984807D+00 EUMP2 =    -0.10924102850784D+03
 CCSD(T)
 CCSD(T)= -0.10921049577D+03

 The electronic state is 1-SGG.
 Alpha  occ. eigenvalues --  -15.78333 -15.78255  -1.23739  -0.88779  -0.57966
 Alpha  occ. eigenvalues --   -0.48938  -0.48938
 Alpha virt. eigenvalues --    0.00932   0.00932   0.28126   0.58664   0.60542
 Alpha virt. eigenvalues --    0.60542   0.60607   0.67148   0.69234   0.69234
 Alpha virt. eigenvalues --    1.06202   1.09114   1.09114   1.13461   1.13461

 Mulliken charges:
               1
     1  N    0.000000
     2  N    0.000000
 Sum of Mulliken charges =   0.00000

 Dipole moment (field-independent basis, Debye):
    X=              0.0000    Y=              0.0000    Z=             -0.0000  Tot=              0.0000
 Quadrupole moment (field-independent basis, Debye-Ang):
   XX=            -11.4248   YY=            -11.4248   ZZ=            -11.3742
   XY=              0.0000   XZ=             -0.0000   YZ=             -0.0000

 .2103379\CCSD=-109.1708755\CCSD(T)=-109.2104958\RMSD=1.597e-09\PG=D*H
 Normal termination of Gaussian 16 at Sat Feb 10 15:30:00 2024.
