 Gaussian 16, Revision A.03,
 Gaussian 16:  ES64L-G16RevA.03 25-Dec-2016

 ---------------------------------------------
 #p CCSD(T,MaxCyc=200)/cc-pVTZ SCF(MaxCyc=200)
 ---------------------------------------------

 -----
 N2_20
 -----
 Symbolic Z-matrix:
 Charge =  0 Multiplicity = 1

                         Standard orientation:
 ---------------------------------------------------------------------
 Center     Atomic      Atomic             Coordinates (Angstroms)
 Number     Number       Type             X           Y           Z
 ---------------------------------------------------------------------
      1          7           0        0.000000    0.000000    0.700000
      2          7           0        0.000000    0.000000   -0.700000
 ---------------------------------------------------------------------

 SCF Done:  E(RHF) =  -108.786413820     A.U. after    9 cycles
 E2 =    -0.4847791837D+00 EUMP2 =    -0.10927119300360D+03
 CCSD(T)
 CCSD(T)= -0.10925778140D+03

 The electronic state is 1-SGG.
 Alpha  occ. eigenvalues --  -15.76685 -15.76585  -1.27926  -0.86557  -0.59456
 Alpha  occ. eigenvalues --   -0.51099  -0.51099
 Alpha virt. eigenvalues --    0.03728   0.03728   0.33744   0.59892   0.59956
 Alpha virt. eigenvalues --    0.59956   0.62404   0.66593   0.69783   0.69783
 Alpha virt. eigenvalues --    1.05918   1.07832   1.07832   1.17081   1.17081

 Mulliken charges:
               1
     1  N   -0.000000
     2  N   -0.000000
 Sum of Mulliken charges =  -0.00000

 Dipole moment (field-independent basis, Debye):
    X=             -0.0000    Y=              0.0000    Z=             -0.0000  Tot=              0.0000
 Quadrupole moment (field-independent basis, Debye-Ang):
   XX=            -11.2105   YY=            -11.2105   ZZ=            -11.4972
   XY=              0.0000   XZ=              0.0000   YZ=             -0.0000

 .2456666\CCSD=-109.2241799\CCSD(T)=-109.2577814\RMSD=1.449e-09\PG=D*H
 Normal termination of Gaussian 16 at Sat Feb 10 15:29:43 2024.
