 Gaussian 16, Revision A.03,
 Gaussian 16:  ES64L-G16RevA.03 25-Dec-2016

 ---------------------------------------------
 #p CCSD(T,MaxCyc=200)/cc-pVTZ SCF(MaxCyc=200)
 ---------------------------------------------

 -----
 N2_24
 -----
 Symbolic Z-matrix:
 Charge =  0 Multiplicity = 1

                         Standard orientation:
 ---------------------------------------------------------------------
 Center     Atomic      Atomic             Coordinates (Angstroms)
 Number     Number       Type             X           Y           Z
 ---------------------------------------------------------------------
      1          7           0        0.000000    0.000000    0.760000
      2          7           0        0.000000    0.000000   -0.760000
 ---------------------------------------------------------------------

 SCF Done:  E(RHF) =  -108.686285821     A.U. after    9 cycles
 E2 =    -0.5463543757D+00 EUMP2 =    -0.10923264019648D+03
 CCSD(T)
 CCSD(T)= -0.10919545774D+03

 The electronic state is 1-SGG.
 Alpha  occ. eigenvalues --  -15.78804 -15.78731  -1.22495  -0.89474  -0.57443
 Alpha  occ. eigenvalues --   -0.48283  -0.48283
 Alpha virt. eigenvalues --    0.00081   0.00081   0.26147   0.57930   0.60683
 Alpha virt. eigenvalues --    0.60683   0.60798   0.67395   0.69080   0.69080
 Alpha virt. eigenvalues --    1.06044   1.09563   1.09563   1.12419   1.12419

 Mulliken charges:
               1
     1  N   -0.000000
     2  N   -0.000000
 Sum of Mulliken charges =  -0.00000

 Dipole moment (field-independent basis, Debye):
    X=             -0.0000    Y=              0.0000    Z=             -0.0000  Tot=              0.0000
 Quadrupole moment (field-independent basis, Debye-Ang):
   XX=            -11.4898   YY=            -11.4898   ZZ=            -11.3285
   XY=              0.0000   XZ=             -0.0000   YZ=             -0.0000

 09.2016353\CCSD=-109.1536562\CCSD(T)=-109.1954577\RMSD=1.602e-09\PG=D*
 Normal termination of Gaussian 16 at Sat Feb 10 15:30:06 2024.
