 Gaussian 16, Revision A.03,
 Gaussian 16:  ES64L-G16RevA.03 25-Dec-2016

 ---------------------------------------------
 #p CCSD(T,MaxCyc=200)/cc-pVTZ SCF(MaxCyc=200)
 ---------------------------------------------

 -----
 N2_22
 -----
 Symbolic Z-matrix:
 Charge =  0 Multiplicity = 1

                         Standard orientation:
 ---------------------------------------------------------------------
 Center     Atomic      Atomic             Coordinates (Angstroms)
 Number     Number       Type             X           Y           Z
 ---------------------------------------------------------------------
      1          7           0        0.000000    0.000000    0.730000
      2          7           0        0.000000    0.000000   -0.730000
 ---------------------------------------------------------------------

 SCF Done:  E(RHF) =  -108.736037204     A.U. after    9 cycles
 E2 =    -0.5142827721D+00 EUMP2 =    -0.10925031997649D+03
 CCSD(T)
 CCSD(T)= -0.10922596596D+03

 The electronic state is 1-SGG.
 Alpha  occ. eigenvalues --  -15.77824 -15.77739  -1.25057  -0.88060  -0.58477
 Alpha  occ. eigenvalues --   -0.49624  -0.49624
 Alpha virt. eigenvalues --    0.01822   0.01822   0.30079   0.59621   0.60374
 Alpha virt. eigenvalues --    0.60374   0.60393   0.66930   0.69402   0.69402
 Alpha virt. eigenvalues --    1.06242   1.08675   1.08675   1.14585   1.14585

 Mulliken charges:
               1
     1  N    0.000000
     2  N    0.000000
 Sum of Mulliken charges =   0.00000

 Dipole moment (field-independent basis, Debye):
    X=              0.0000    Y=              0.0000    Z=             -0.0000  Tot=              0.0000
 Quadrupole moment (field-independent basis, Debye-Ang):
   XX=            -11.3567   YY=            -11.3567   ZZ=            -11.4179
   XY=              0.0000   XZ=             -0.0000   YZ=             -0.0000

 .2207741\CCSD=-109.1884363\CCSD(T)=-109.225966\RMSD=1.576e-09\PG=D*H [
 Normal termination of Gaussian 16 at Sat Feb 10 15:29:54 2024.
