 Gaussian 16, Revision A.03,
 Gaussian 16:  ES64L-G16RevA.03 25-Dec-2016

 ---------------------------------------------
 #p CCSD(T,MaxCyc=200)/cc-pVTZ SCF(MaxCyc=200)
 ---------------------------------------------

 ----
 N2_2
 ----
 Symbolic Z-matrix:
 Charge =  0 Multiplicity = 1

                         Standard orientation:
 ---------------------------------------------------------------------
 Center     Atomic      Atomic             Coordinates (Angstroms)
 Number     Number       Type             X           Y           Z
 ---------------------------------------------------------------------
      1          7           0        0.000000    0.000000    0.430000
      2          7           0        0.000000    0.000000   -0.430000
 ---------------------------------------------------------------------

 SCF Done:  E(RHF) =  -108.736840473     A.U. after    9 cycles
 E2 =    -0.3228191899D+00 EUMP2 =    -0.10905965966305D+03
 CCSD(T)
 CCSD(T)= -0.10908127808D+03

 The electronic state is 1-SGG.
 Alpha  occ. eigenvalues --  -15.59945 -15.57829  -1.63322  -0.74180  -0.74180
 Alpha  occ. eigenvalues --   -0.69265  -0.65180
 Alpha virt. eigenvalues --    0.28770   0.28770   0.43674   0.51726   0.51726
 Alpha virt. eigenvalues --    0.53033   0.70652   0.79676   0.79676   1.00307
 Alpha virt. eigenvalues --    1.04777   1.04777   1.49879   1.50835   1.50835

 Mulliken charges:
               1
     1  N   -0.000000
     2  N   -0.000000
 Sum of Mulliken charges =  -0.00000

 Dipole moment (field-independent basis, Debye):
    X=             -0.0000    Y=              0.0000    Z=              0.0000  Tot=              0.0000
 Quadrupole moment (field-independent basis, Debye-Ang):
   XX=             -9.3150   YY=             -9.3150   ZZ=            -11.4032
   XY=              0.0000   XZ=              0.0000   YZ=             -0.0000

 9.0701368\CCSD=-109.0697934\CCSD(T)=-109.0812781\RMSD=3.503e-09\PG=D*H
 Normal termination of Gaussian 16 at Sat Feb 10 15:28:07 2024.
