 Gaussian 16, Revision A.03,
 Gaussian 16:  ES64L-G16RevA.03 25-Dec-2016

 ---------------------------------------------
 #p CCSD(T,MaxCyc=200)/cc-pVTZ SCF(MaxCyc=200)
 ---------------------------------------------

 ----
 N2_3
 ----
 Symbolic Z-matrix:
 Charge =  0 Multiplicity = 1

                         Standard orientation:
 ---------------------------------------------------------------------
 Center     Atomic      Atomic             Coordinates (Angstroms)
 Number     Number       Type             X           Y           Z
 ---------------------------------------------------------------------
      1          7           0        0.000000    0.000000    0.445000
      2          7           0        0.000000    0.000000   -0.445000
 ---------------------------------------------------------------------

 SCF Done:  E(RHF) =  -108.817553630     A.U. after    9 cycles
 E2 =    -0.3278830413D+00 EUMP2 =    -0.10914543667106D+03
 CCSD(T)
 CCSD(T)= -0.10916692247D+03

 The electronic state is 1-SGG.
 Alpha  occ. eigenvalues --  -15.60757 -15.59131  -1.61632  -0.72166  -0.72166
 Alpha  occ. eigenvalues --   -0.70429  -0.64953
 Alpha virt. eigenvalues --    0.27153   0.27153   0.43652   0.52366   0.52366
 Alpha virt. eigenvalues --    0.53402   0.70089   0.78528   0.78528   0.99211
 Alpha virt. eigenvalues --    1.04640   1.04640   1.45031   1.48779   1.48779

 Mulliken charges:
               1
     1  N   -0.000000
     2  N   -0.000000
 Sum of Mulliken charges =  -0.00000

 Dipole moment (field-independent basis, Debye):
    X=              0.0000    Y=              0.0000    Z=             -0.0000  Tot=              0.0000
 Quadrupole moment (field-independent basis, Debye-Ang):
   XX=             -9.4473   YY=             -9.4473   ZZ=            -11.4488
   XY=              0.0000   XZ=              0.0000   YZ=             -0.0000

 9.1551848\CCSD=-109.1547501\CCSD(T)=-109.1669225\RMSD=3.189e-09\PG=D*H
 Normal termination of Gaussian 16 at Sat Feb 10 15:28:12 2024.
