 Gaussian 16, Revision A.03,
 Gaussian 16:  ES64L-G16RevA.03 25-Dec-2016

 ---------------------------------------------
 #p CCSD(T,MaxCyc=200)/cc-pVTZ SCF(MaxCyc=200)
 ---------------------------------------------

 -----
 N2_33
 -----
 Symbolic Z-matrix:
 Charge =  0 Multiplicity = 1

                         Standard orientation:
 ---------------------------------------------------------------------
 Center     Atomic      Atomic             Coordinates (Angstroms)
 Number     Number       Type             X           Y           Z
 ---------------------------------------------------------------------
      1          7           0        0.000000    0.000000    0.895000
      2          7           0        0.000000    0.000000   -0.895000
 ---------------------------------------------------------------------

 SCF Done:  E(RHF) =  -108.484146612     A.U. after    9 cycles
 E2 =    -0.7211752991D+00 EUMP2 =    -0.10920532191106D+03
 CCSD(T)
 CCSD(T)= -0.10909061457D+03

 The electronic state is 1-SGG.
 Alpha  occ. eigenvalues --  -15.81682 -15.81640  -1.14205  -0.94679  -0.52498
 Alpha  occ. eigenvalues --   -0.43578  -0.43578
 Alpha virt. eigenvalues --   -0.06036  -0.06036   0.10634   0.56156   0.60869
 Alpha virt. eigenvalues --    0.60869   0.61835   0.68107   0.68107   0.70219
 Alpha virt. eigenvalues --    1.01982   1.06681   1.06681   1.13687   1.13687

 Mulliken charges:
               1
     1  N   -0.000000
     2  N   -0.000000
 Sum of Mulliken charges =  -0.00000

 Dipole moment (field-independent basis, Debye):
    X=             -0.0000    Y=              0.0000    Z=             -0.0000  Tot=              0.0000
 Quadrupole moment (field-independent basis, Debye-Ang):
   XX=            -11.9352   YY=            -11.9352   ZZ=            -10.8800
   XY=              0.0000   XZ=             -0.0000   YZ=              0.0000

 .2563049\CCSD=-109.0231046\CCSD(T)=-109.0906146\RMSD=1.432e-09\PG=D*H
 Normal termination of Gaussian 16 at Sat Feb 10 15:30:55 2024.
