 Gaussian 16, Revision A.03,
 Gaussian 16:  ES64L-G16RevA.03 25-Dec-2016

 ---------------------------------------------
 #p CCSD(T,MaxCyc=200)/cc-pVTZ SCF(MaxCyc=200)
 ---------------------------------------------

 -----
 N2_38
 -----
 Symbolic Z-matrix:
 Charge =  0 Multiplicity = 1

                         Standard orientation:
 ---------------------------------------------------------------------
 Center     Atomic      Atomic             Coordinates (Angstroms)
 Number     Number       Type             X           Y           Z
 ---------------------------------------------------------------------
      1          7           0        0.000000    0.000000    0.970000
      2          7           0        0.000000    0.000000   -0.970000
 ---------------------------------------------------------------------

 SCF Done:  E(RHF) =  -108.390987175     A.U. after    9 cycles
 E2 =    -0.8377984163D+00 EUMP2 =    -0.10922878559125D+03
 CCSD(T)
 CCSD(T)= -0.10906711792D+03

 The electronic state is 1-SGG.
 Alpha  occ. eigenvalues --  -15.82515 -15.82483  -1.11339  -0.96779  -0.49830
 Alpha  occ. eigenvalues --   -0.41684  -0.41684
 Alpha virt. eigenvalues --   -0.08495  -0.08495   0.04573   0.56563   0.60349
 Alpha virt. eigenvalues --    0.60349   0.62166   0.67758   0.67758   0.71671
 Alpha virt. eigenvalues --    0.99344   1.06184   1.06184   1.15740   1.15740

 Mulliken charges:
               1
     1  N    0.000000
     2  N    0.000000
 Sum of Mulliken charges =   0.00000

 Dipole moment (field-independent basis, Debye):
    X=              0.0000    Y=              0.0000    Z=              0.0000  Tot=              0.0000
 Quadrupole moment (field-independent basis, Debye-Ang):
   XX=            -12.0879   YY=            -12.0879   ZZ=            -10.6480
   XY=              0.0000   XZ=             -0.0000   YZ=              0.0000

 09.4645109\CCSD=-108.9755116\CCSD(T)=-109.0671179\RMSD=1.367e-09\PG=D*
 Normal termination of Gaussian 16 at Sat Feb 10 15:31:22 2024.
