 Gaussian 16, Revision A.03,
 Gaussian 16:  ES64L-G16RevA.03 25-Dec-2016

 ---------------------------------------------
 #p CCSD(T,MaxCyc=200)/cc-pVTZ SCF(MaxCyc=200)
 ---------------------------------------------

 -----
 N2_32
 -----
 Symbolic Z-matrix:
 Charge =  0 Multiplicity = 1

                         Standard orientation:
 ---------------------------------------------------------------------
 Center     Atomic      Atomic             Coordinates (Angstroms)
 Number     Number       Type             X           Y           Z
 ---------------------------------------------------------------------
      1          7           0        0.000000    0.000000    0.880000
      2          7           0        0.000000    0.000000   -0.880000
 ---------------------------------------------------------------------

 SCF Done:  E(RHF) =  -108.504459369     A.U. after    9 cycles
 E2 =    -0.6994191097D+00 EUMP2 =    -0.10920387847834D+03
 CCSD(T)
 CCSD(T)= -0.10909886873D+03

 The electronic state is 1-SGG.
 Alpha  occ. eigenvalues --  -15.81461 -15.81417  -1.14903  -0.94194  -0.53048
 Alpha  occ. eigenvalues --   -0.44010  -0.44010
 Alpha virt. eigenvalues --   -0.05474  -0.05474   0.12060   0.56135   0.60932
 Alpha virt. eigenvalues --    0.60932   0.61758   0.68189   0.68189   0.69896
 Alpha virt. eigenvalues --    1.02523   1.07001   1.07001   1.13244   1.13244

 Mulliken charges:
               1
     1  N    0.000000
     2  N    0.000000
 Sum of Mulliken charges =   0.00000

 Dipole moment (field-independent basis, Debye):
    X=              0.0000    Y=              0.0000    Z=             -0.0000  Tot=              0.0000
 Quadrupole moment (field-independent basis, Debye-Ang):
   XX=            -11.8973   YY=            -11.8973   ZZ=            -10.9295
   XY=              0.0000   XZ=             -0.0000   YZ=              0.0000

 9.2337956\CCSD=-109.0350027\CCSD(T)=-109.0988687\RMSD=1.446e-09\PG=D*H
 Normal termination of Gaussian 16 at Sat Feb 10 15:30:50 2024.
