 Gaussian 16, Revision A.03,
 Gaussian 16:  ES64L-G16RevA.03 25-Dec-2016

 ---------------------------------------------
 #p CCSD(T,MaxCyc=200)/cc-pVTZ SCF(MaxCyc=200)
 ---------------------------------------------

 -----
 N2_30
 -----
 Symbolic Z-matrix:
 Charge =  0 Multiplicity = 1

                         Standard orientation:
 ---------------------------------------------------------------------
 Center     Atomic      Atomic             Coordinates (Angstroms)
 Number     Number       Type             X           Y           Z
 ---------------------------------------------------------------------
      1          7           0        0.000000    0.000000    0.850000
      2          7           0        0.000000    0.000000   -0.850000
 ---------------------------------------------------------------------

 SCF Done:  E(RHF) =  -108.546775957     A.U. after    9 cycles
 E2 =    -0.6575840121D+00 EUMP2 =    -0.10920435996934D+03
 CCSD(T)
 CCSD(T)= -0.10911826876D+03

 The electronic state is 1-SGG.
 Alpha  occ. eigenvalues --  -15.80955 -15.80906  -1.16449  -0.93155  -0.54158
 Alpha  occ. eigenvalues --   -0.44935  -0.44935
 Alpha virt. eigenvalues --   -0.04271  -0.04271   0.15146   0.56191   0.61001
 Alpha virt. eigenvalues --    0.61001   0.61584   0.68367   0.68367   0.69237
 Alpha virt. eigenvalues --    1.03592   1.07876   1.07876   1.12336   1.12336

 Mulliken charges:
               1
     1  N    0.000000
     2  N    0.000000
 Sum of Mulliken charges =   0.00000

 Dipole moment (field-independent basis, Debye):
    X=              0.0000    Y=             -0.0000    Z=              0.0000  Tot=              0.0000
 Quadrupole moment (field-independent basis, Debye-Ang):
   XX=            -11.8132   YY=            -11.8132   ZZ=            -11.0304
   XY=              0.0000   XZ=             -0.0000   YZ=              0.0000

 036698\CCSD=-109.0609312\CCSD(T)=-109.1182688\RMSD=1.509e-09\PG=D*H [C
 Normal termination of Gaussian 16 at Sat Feb 10 15:30:39 2024.
