 Gaussian 16, Revision A.03,
 Gaussian 16:  ES64L-G16RevA.03 25-Dec-2016

 ---------------------------------------------
 #p CCSD(T,MaxCyc=200)/cc-pVTZ SCF(MaxCyc=200)
 ---------------------------------------------

 -----
 N2_34
 -----
 Symbolic Z-matrix:
 Charge =  0 Multiplicity = 1

                         Standard orientation:
 ---------------------------------------------------------------------
 Center     Atomic      Atomic             Coordinates (Angstroms)
 Number     Number       Type             X           Y           Z
 ---------------------------------------------------------------------
      1          7           0        0.000000    0.000000    0.910000
      2          7           0        0.000000    0.000000   -0.910000
 ---------------------------------------------------------------------

 SCF Done:  E(RHF) =  -108.464399475     A.U. after    9 cycles
 E2 =    -0.7434727560D+00 EUMP2 =    -0.10920787223137D+03
 CCSD(T)
 CCSD(T)= -0.10908341884D+03

 The electronic state is 1-SGG.
 Alpha  occ. eigenvalues --  -15.81883 -15.81844  -1.13552  -0.95141  -0.51951
 Alpha  occ. eigenvalues --   -0.43165  -0.43165
 Alpha virt. eigenvalues --   -0.06573  -0.06573   0.09283   0.56202   0.60791
 Alpha virt. eigenvalues --    0.60791   0.61908   0.68030   0.68030   0.70535
 Alpha virt. eigenvalues --    1.01441   1.06437   1.06437   1.14121   1.14121

 Mulliken charges:
               1
     1  N   -0.000000
     2  N   -0.000000
 Sum of Mulliken charges =  -0.00000

 Dipole moment (field-independent basis, Debye):
    X=             -0.0000    Y=              0.0000    Z=              0.0000  Tot=              0.0000
 Quadrupole moment (field-independent basis, Debye-Ang):
   XX=            -11.9706   YY=            -11.9706   ZZ=            -10.8313
   XY=              0.0000   XZ=             -0.0000   YZ=              0.0000

 09.284444\CCSD=-109.0119544\CCSD(T)=-109.0834188\RMSD=1.416e-09\PG=D*H
 Normal termination of Gaussian 16 at Sat Feb 10 15:31:00 2024.
