 Gaussian 16, Revision A.03,
 Gaussian 16:  ES64L-G16RevA.03 25-Dec-2016

 ---------------------------------------------
 #p CCSD(T,MaxCyc=200)/cc-pVTZ SCF(MaxCyc=200)
 ---------------------------------------------

 -----
 N2_35
 -----
 Symbolic Z-matrix:
 Charge =  0 Multiplicity = 1

                         Standard orientation:
 ---------------------------------------------------------------------
 Center     Atomic      Atomic             Coordinates (Angstroms)
 Number     Number       Type             X           Y           Z
 ---------------------------------------------------------------------
      1          7           0        0.000000    0.000000    0.925000
      2          7           0        0.000000    0.000000   -0.925000
 ---------------------------------------------------------------------

 SCF Done:  E(RHF) =  -108.445215633     A.U. after    9 cycles
 E2 =    -0.7662977399D+00 EUMP2 =    -0.10921151337248D+03
 CCSD(T)
 CCSD(T)= -0.10907736595D+03

 The electronic state is 1-SGG.
 Alpha  occ. eigenvalues --  -15.82066 -15.82028  -1.12941  -0.95582  -0.51411
 Alpha  occ. eigenvalues --   -0.42770  -0.42770
 Alpha virt. eigenvalues --   -0.07086  -0.07086   0.08006   0.56269   0.60698
 Alpha virt. eigenvalues --    0.60698   0.61977   0.67957   0.67957   0.70840
 Alpha virt. eigenvalues --    1.00904   1.06267   1.06267   1.14544   1.14544

 Mulliken charges:
               1
     1  N   -0.000000
     2  N   -0.000000
 Sum of Mulliken charges =  -0.00000

 Dipole moment (field-independent basis, Debye):
    X=             -0.0000    Y=             -0.0000    Z=              0.0000  Tot=              0.0000
 Quadrupole moment (field-independent basis, Debye-Ang):
   XX=            -12.0034   YY=            -12.0034   ZZ=            -10.7836
   XY=              0.0000   XZ=             -0.0000   YZ=              0.0000

 09.3187501\CCSD=-109.0015835\CCSD(T)=-109.0773659\RMSD=1.402e-09\PG=D*
 Normal termination of Gaussian 16 at Sat Feb 10 15:31:06 2024.
