 Gaussian 16, Revision A.03,
 Gaussian 16:  ES64L-G16RevA.03 25-Dec-2016

 ---------------------------------------------
 #p CCSD(T,MaxCyc=200)/cc-pVTZ SCF(MaxCyc=200)
 ---------------------------------------------

 -----
 N2_36
 -----
 Symbolic Z-matrix:
 Charge =  0 Multiplicity = 1

                         Standard orientation:
 ---------------------------------------------------------------------
 Center     Atomic      Atomic             Coordinates (Angstroms)
 Number     Number       Type             X           Y           Z
 ---------------------------------------------------------------------
      1          7           0        0.000000    0.000000    0.940000
      2          7           0        0.000000    0.000000   -0.940000
 ---------------------------------------------------------------------

 SCF Done:  E(RHF) =  -108.426590365     A.U. after    9 cycles
 E2 =    -0.7896363391D+00 EUMP2 =    -0.10921622670449D+03
 CCSD(T)
 CCSD(T)= -0.10907255327D+03

 The electronic state is 1-SGG.
 Alpha  occ. eigenvalues --  -15.82231 -15.82196  -1.12371  -0.96001  -0.50876
 Alpha  occ. eigenvalues --   -0.42392  -0.42392
 Alpha virt. eigenvalues --   -0.07577  -0.07577   0.06797   0.56353   0.60593
 Alpha virt. eigenvalues --    0.60593   0.62042   0.67888   0.67888   0.71133
 Alpha virt. eigenvalues --    1.00375   1.06170   1.06170   1.14955   1.14955

 Mulliken charges:
               1
     1  N   -0.000000
     2  N   -0.000000
 Sum of Mulliken charges =  -0.00000

 Dipole moment (field-independent basis, Debye):
    X=             -0.0000    Y=             -0.0000    Z=             -0.0000  Tot=              0.0000
 Quadrupole moment (field-independent basis, Debye-Ang):
   XX=            -12.0338   YY=            -12.0338   ZZ=            -10.7371
   XY=              0.0000   XZ=             -0.0000   YZ=              0.0000

 09.3597917\CCSD=-108.9920261\CCSD(T)=-109.0725533\RMSD=1.389e-09\PG=D*
 Normal termination of Gaussian 16 at Sat Feb 10 15:31:11 2024.
