 Gaussian 16, Revision A.03,
 Gaussian 16:  ES64L-G16RevA.03 25-Dec-2016

 ---------------------------------------------
 #p CCSD(T,MaxCyc=200)/cc-pVTZ SCF(MaxCyc=200)
 ---------------------------------------------

 -----
 N2_44
 -----
 Symbolic Z-matrix:
 Charge =  0 Multiplicity = 1

                         Standard orientation:
 ---------------------------------------------------------------------
 Center     Atomic      Atomic             Coordinates (Angstroms)
 Number     Number       Type             X           Y           Z
 ---------------------------------------------------------------------
      1          7           0        0.000000    0.000000    1.060000
      2          7           0        0.000000    0.000000   -1.060000
 ---------------------------------------------------------------------

 SCF Done:  E(RHF) =  -108.296622144     A.U. after    9 cycles
 E2 =    -0.9931731676D+00 EUMP2 =    -0.10928979531191D+03
 CCSD(T)
 CCSD(T)= -0.10909564837D+03

 The electronic state is 1-SGG.
 Alpha  occ. eigenvalues --  -15.83058 -15.83033  -1.08961  -0.98667  -0.46910
 Alpha  occ. eigenvalues --   -0.39882  -0.39882
 Alpha virt. eigenvalues --   -0.10814  -0.10814  -0.00790   0.57394   0.59485
 Alpha virt. eigenvalues --    0.59485   0.62490   0.67411   0.67411   0.72678
 Alpha virt. eigenvalues --    0.96530   1.07628   1.07628   1.17741   1.17741

 Mulliken charges:
               1
     1  N    0.000000
     2  N    0.000000
 Sum of Mulliken charges =   0.00000

 Dipole moment (field-independent basis, Debye):
    X=              0.0000    Y=             -0.0000    Z=              0.0000  Tot=              0.0000
 Quadrupole moment (field-independent basis, Debye-Ang):
   XX=            -12.2027   YY=            -12.2027   ZZ=            -10.4191
   XY=              0.0000   XZ=             -0.0000   YZ=              0.0000

 10.0090567\CCSD=-108.9503475\CCSD(T)=-109.0956484\RMSD=1.296e-09\PG=D*
 Normal termination of Gaussian 16 at Sat Feb 10 15:31:54 2024.
