 Gaussian 16, Revision A.03,
 Gaussian 16:  ES64L-G16RevA.03 25-Dec-2016

 ---------------------------------------------
 #p CCSD(T,MaxCyc=200)/cc-pVTZ SCF(MaxCyc=200)
 ---------------------------------------------

 -----
 N2_40
 -----
 Symbolic Z-matrix:
 Charge =  0 Multiplicity = 1

                         Standard orientation:
 ---------------------------------------------------------------------
 Center     Atomic      Atomic             Coordinates (Angstroms)
 Number     Number       Type             X           Y           Z
 ---------------------------------------------------------------------
      1          7           0        0.000000    0.000000    1.000000
      2          7           0        0.000000    0.000000   -1.000000
 ---------------------------------------------------------------------

 SCF Done:  E(RHF) =  -108.357518715     A.U. after    9 cycles
 E2 =    -0.8878474957D+00 EUMP2 =    -0.10924536621080D+03
 CCSD(T)
 CCSD(T)= -0.10906823127D+03

 The electronic state is 1-SGG.
 Alpha  occ. eigenvalues --  -15.82743 -15.82714  -1.10438  -0.97478  -0.48818
 Alpha  occ. eigenvalues --   -0.41034  -0.41034
 Alpha virt. eigenvalues --   -0.09336  -0.09336   0.02585   0.56814   0.60074
 Alpha virt. eigenvalues --    0.60074   0.62281   0.67636   0.67636   0.72127
 Alpha virt. eigenvalues --    0.98357   1.06454   1.06454   1.16467   1.16467

 Mulliken charges:
               1
     1  N    0.000000
     2  N    0.000000
 Sum of Mulliken charges =   0.00000

 Dipole moment (field-independent basis, Debye):
    X=              0.0000    Y=             -0.0000    Z=              0.0000  Tot=              0.0000
 Quadrupole moment (field-independent basis, Debye-Ang):
   XX=            -12.1335   YY=            -12.1335   ZZ=            -10.5649
   XY=              0.0000   XZ=             -0.0000   YZ=              0.0000

 .6037717\CCSD=-108.9627807\CCSD(T)=-109.0682313\RMSD=1.346e-09\PG=D*H
 Normal termination of Gaussian 16 at Sat Feb 10 15:31:32 2024.
