 Gaussian 16, Revision A.03,
 Gaussian 16:  ES64L-G16RevA.03 25-Dec-2016

 ---------------------------------------------
 #p CCSD(T,MaxCyc=200)/cc-pVTZ SCF(MaxCyc=200)
 ---------------------------------------------

 -----
 N2_46
 -----
 Symbolic Z-matrix:
 Charge =  0 Multiplicity = 1

                         Standard orientation:
 ---------------------------------------------------------------------
 Center     Atomic      Atomic             Coordinates (Angstroms)
 Number     Number       Type             X           Y           Z
 ---------------------------------------------------------------------
      1          7           0        0.000000    0.000000    1.090000
      2          7           0        0.000000    0.000000   -1.090000
 ---------------------------------------------------------------------

 SCF Done:  E(RHF) =  -108.268991257     A.U. after    9 cycles
 E2 =    -0.1048243791D+01 EUMP2 =    -0.10931723504820D+03
 CCSD(T)
 CCSD(T)= -0.10912403210D+03

 The electronic state is 1-SGG.
 Alpha  occ. eigenvalues --  -15.83156 -15.83134  -1.08356  -0.99167  -0.46016
 Alpha  occ. eigenvalues --   -0.39371  -0.39371
 Alpha virt. eigenvalues --   -0.11463  -0.11463  -0.02225   0.57707   0.59195
 Alpha virt. eigenvalues --    0.59195   0.62580   0.67302   0.67302   0.72702
 Alpha virt. eigenvalues --    0.95689   1.08456   1.08456   1.15860   1.18285

 Mulliken charges:
               1
     1  N   -0.000000
     2  N   -0.000000
 Sum of Mulliken charges =  -0.00000

 Dipole moment (field-independent basis, Debye):
    X=             -0.0000    Y=              0.0000    Z=              0.0000  Tot=              0.0000
 Quadrupole moment (field-independent basis, Debye-Ang):
   XX=            -12.2278   YY=            -12.2278   ZZ=            -10.3570
   XY=              0.0000   XZ=             -0.0000   YZ=              0.0000

 0.287846\CCSD=-108.951073\CCSD(T)=-109.1240321\RMSD=1.266e-09\PG=D*H [
 Normal termination of Gaussian 16 at Sat Feb 10 15:32:07 2024.
