 Gaussian 16, Revision A.03,
 Gaussian 16:  ES64L-G16RevA.03 25-Dec-2016

 ---------------------------------------------
 #p CCSD(T,MaxCyc=200)/cc-pVTZ SCF(MaxCyc=200)
 ---------------------------------------------

 -----
 N2_43
 -----
 Symbolic Z-matrix:
 Charge =  0 Multiplicity = 1

                         Standard orientation:
 ---------------------------------------------------------------------
 Center     Atomic      Atomic             Coordinates (Angstroms)
 Number     Number       Type             X           Y           Z
 ---------------------------------------------------------------------
      1          7           0        0.000000    0.000000    1.045000
      2          7           0        0.000000    0.000000   -1.045000
 ---------------------------------------------------------------------

 SCF Done:  E(RHF) =  -108.311122353     A.U. after    9 cycles
 E2 =    -0.9662210907D+00 EUMP2 =    -0.10927734344369D+03
 CCSD(T)
 CCSD(T)= -0.10908522504D+03

 The electronic state is 1-SGG.
 Alpha  occ. eigenvalues --  -15.82995 -15.82969  -1.09294  -0.98394  -0.47372
 Alpha  occ. eigenvalues --   -0.40153  -0.40153
 Alpha virt. eigenvalues --   -0.10468  -0.10468  -0.00014   0.57242   0.59633
 Alpha virt. eigenvalues --    0.59633   0.62441   0.67466   0.67466   0.72597
 Alpha virt. eigenvalues --    0.96969   1.07267   1.07267   1.17446   1.17446

 Mulliken charges:
               1
     1  N   -0.000000
     2  N   -0.000000
 Sum of Mulliken charges =  -0.00000

 Dipole moment (field-independent basis, Debye):
    X=             -0.0000    Y=              0.0000    Z=             -0.0000  Tot=              0.0000
 Quadrupole moment (field-independent basis, Debye-Ang):
   XX=            -12.1880   YY=            -12.1880   ZZ=            -10.4529
   XY=              0.0000   XZ=             -0.0000   YZ=              0.0000

 09.8899505\CCSD=-108.9517166\CCSD(T)=-109.085225\RMSD=1.310e-09\PG=D*H
 Normal termination of Gaussian 16 at Sat Feb 10 15:31:48 2024.
