 Gaussian 16, Revision A.03,
 Gaussian 16:  ES64L-G16RevA.03 25-Dec-2016

 ---------------------------------------------
 #p CCSD(T,MaxCyc=200)/cc-pVTZ SCF(MaxCyc=200)
 ---------------------------------------------

 -----
 N2_47
 -----
 Symbolic Z-matrix:
 Charge =  0 Multiplicity = 1

                         Standard orientation:
 ---------------------------------------------------------------------
 Center     Atomic      Atomic             Coordinates (Angstroms)
 Number     Number       Type             X           Y           Z
 ---------------------------------------------------------------------
      1          7           0        0.000000    0.000000    1.105000
      2          7           0        0.000000    0.000000   -1.105000
 ---------------------------------------------------------------------

 SCF Done:  E(RHF) =  -108.255834103     A.U. after    9 cycles
 E2 =    -0.1076338631D+01 EUMP2 =    -0.10933217273423D+03
 CCSD(T)
 CCSD(T)= -0.10914173976D+03

 The electronic state is 1-SGG.
 Alpha  occ. eigenvalues --  -15.83193 -15.83172  -1.08082  -0.99396  -0.45585
 Alpha  occ. eigenvalues --   -0.39129  -0.39129
 Alpha virt. eigenvalues --   -0.11768  -0.11768  -0.02887   0.57867   0.59056
 Alpha virt. eigenvalues --    0.59056   0.62620   0.67248   0.67248   0.72634
 Alpha virt. eigenvalues --    0.95286   1.08912   1.08912   1.14564   1.18534

 Mulliken charges:
               1
     1  N    0.000000
     2  N    0.000000
 Sum of Mulliken charges =   0.00000

 Dipole moment (field-independent basis, Debye):
    X=              0.0000    Y=              0.0000    Z=              0.0000  Tot=              0.0000
 Quadrupole moment (field-independent basis, Debye-Ang):
   XX=            -12.2382   YY=            -12.2382   ZZ=            -10.3288
   XY=              0.0000   XZ=             -0.0000   YZ=              0.0000

 0.4492977\CCSD=-108.9530097\CCSD(T)=-109.1417398\RMSD=1.250e-09\PG=D*H
 Normal termination of Gaussian 16 at Sat Feb 10 15:32:13 2024.
