 Gaussian 16, Revision A.03,
 Gaussian 16:  ES64L-G16RevA.03 25-Dec-2016

 ---------------------------------------------
 #p CCSD(T,MaxCyc=200)/cc-pVTZ SCF(MaxCyc=200)
 ---------------------------------------------

 -----
 N2_48
 -----
 Symbolic Z-matrix:
 Charge =  0 Multiplicity = 1

                         Standard orientation:
 ---------------------------------------------------------------------
 Center     Atomic      Atomic             Coordinates (Angstroms)
 Number     Number       Type             X           Y           Z
 ---------------------------------------------------------------------
      1          7           0        0.000000    0.000000    1.120000
      2          7           0        0.000000    0.000000   -1.120000
 ---------------------------------------------------------------------

 SCF Done:  E(RHF) =  -108.243098204     A.U. after    9 cycles
 E2 =    -0.1104791298D+01 EUMP2 =    -0.10934788950195D+03
 CCSD(T)
 CCSD(T)= -0.10916139021D+03

 The electronic state is 1-SGG.
 Alpha  occ. eigenvalues --  -15.83222 -15.83202  -1.07825  -0.99612  -0.45164
 Alpha  occ. eigenvalues --   -0.38896  -0.38896
 Alpha virt. eigenvalues --   -0.12060  -0.12060  -0.03517   0.58028   0.58922
 Alpha virt. eigenvalues --    0.58922   0.62655   0.67194   0.67194   0.72510
 Alpha virt. eigenvalues --    0.94893   1.09391   1.09391   1.13430   1.18768

 Mulliken charges:
               1
     1  N   -0.000000
     2  N   -0.000000
 Sum of Mulliken charges =  -0.00000

 Dipole moment (field-independent basis, Debye):
    X=             -0.0000    Y=             -0.0000    Z=             -0.0000  Tot=              0.0000
 Quadrupole moment (field-independent basis, Debye-Ang):
   XX=            -12.2474   YY=            -12.2474   ZZ=            -10.3024
   XY=              0.0000   XZ=             -0.0000   YZ=              0.0000

 10.626679\CCSD=-108.9558059\CCSD(T)=-109.1613902\RMSD=1.233e-09\PG=D*H
 Normal termination of Gaussian 16 at Sat Feb 10 15:32:18 2024.
