 Gaussian 16, Revision A.03,
 Gaussian 16:  ES64L-G16RevA.03 25-Dec-2016

 ---------------------------------------------
 #p CCSD(T,MaxCyc=200)/cc-pVTZ SCF(MaxCyc=200)
 ---------------------------------------------

 -----
 N2_45
 -----
 Symbolic Z-matrix:
 Charge =  0 Multiplicity = 1

                         Standard orientation:
 ---------------------------------------------------------------------
 Center     Atomic      Atomic             Coordinates (Angstroms)
 Number     Number       Type             X           Y           Z
 ---------------------------------------------------------------------
      1          7           0        0.000000    0.000000    1.075000
      2          7           0        0.000000    0.000000   -1.075000
 ---------------------------------------------------------------------

 SCF Done:  E(RHF) =  -108.282582856     A.U. after    9 cycles
 E2 =    -0.1020518080D+01 EUMP2 =    -0.10930310093581D+03
 CCSD(T)
 CCSD(T)= -0.10910860303D+03

 The electronic state is 1-SGG.
 Alpha  occ. eigenvalues --  -15.83111 -15.83088  -1.08649  -0.98924  -0.46458
 Alpha  occ. eigenvalues --   -0.39622  -0.39622
 Alpha virt. eigenvalues --   -0.11145  -0.11145  -0.01526   0.57549   0.59338
 Alpha virt. eigenvalues --    0.59338   0.62536   0.67356   0.67356   0.72715
 Alpha virt. eigenvalues --    0.96104   1.08026   1.08026   1.17317   1.18020

 Mulliken charges:
               1
     1  N   -0.000000
     2  N   -0.000000
 Sum of Mulliken charges =  -0.00000

 Dipole moment (field-independent basis, Debye):
    X=             -0.0000    Y=              0.0000    Z=             -0.0000  Tot=              0.0000
 Quadrupole moment (field-independent basis, Debye-Ang):
   XX=            -12.2160   YY=            -12.2160   ZZ=            -10.3871
   XY=              0.0000   XZ=             -0.0000   YZ=              0.0000

 10.1413984\CCSD=-108.9501506\CCSD(T)=-109.108603\RMSD=1.282e-09\PG=D*H
 Normal termination of Gaussian 16 at Sat Feb 10 15:32:00 2024.
