 Gaussian 16, Revision A.03,
 Gaussian 16:  ES64L-G16RevA.03 25-Dec-2016

 ---------------------------------------------
 #p CCSD(T,MaxCyc=200)/cc-pVTZ SCF(MaxCyc=200)
 ---------------------------------------------

 -----
 N2_52
 -----
 Symbolic Z-matrix:
 Charge =  0 Multiplicity = 1

                         Standard orientation:
 ---------------------------------------------------------------------
 Center     Atomic      Atomic             Coordinates (Angstroms)
 Number     Number       Type             X           Y           Z
 ---------------------------------------------------------------------
      1          7           0        0.000000    0.000000    1.180000
      2          7           0        0.000000    0.000000   -1.180000
 ---------------------------------------------------------------------

 SCF Done:  E(RHF) =  -108.196108136     A.U. after    9 cycles
 E2 =    -0.1221966742D+01 EUMP2 =    -0.10941807487825D+03
 CCSD(T)
 CCSD(T)= -0.10925021006D+03

 The electronic state is 1-SGG.
 Alpha  occ. eigenvalues --  -15.83276 -15.83258  -1.06943  -1.00355  -0.43580
 Alpha  occ. eigenvalues --   -0.38041  -0.38041
 Alpha virt. eigenvalues --   -0.13116  -0.13116  -0.05742   0.58457   0.58457
 Alpha virt. eigenvalues --    0.58682   0.62733   0.66974   0.66974   0.71426
 Alpha virt. eigenvalues --    0.93426   1.10495   1.11437   1.11437   1.19566

 Mulliken charges:
               1
     1  N    0.000000
     2  N    0.000000
 Sum of Mulliken charges =   0.00000

 Dipole moment (field-independent basis, Debye):
    X=              0.0000    Y=              0.0000    Z=             -0.0000  Tot=              0.0000
 Quadrupole moment (field-independent basis, Debye-Ang):
   XX=            -12.2727   YY=            -12.2727   ZZ=            -10.2151
   XY=              0.0000   XZ=             -0.0000   YZ=              0.0000

 11.5149291\CCSD=-108.9718093\CCSD(T)=-109.2502101\RMSD=1.165e-09\PG=D*
 Normal termination of Gaussian 16 at Sat Feb 10 15:32:41 2024.
