 Gaussian 16, Revision A.03,
 Gaussian 16:  ES64L-G16RevA.03 25-Dec-2016

 ---------------------------------------------
 #p CCSD(T,MaxCyc=200)/cc-pVTZ SCF(MaxCyc=200)
 ---------------------------------------------

 -----
 N2_54
 -----
 Symbolic Z-matrix:
 Charge =  0 Multiplicity = 1

                         Standard orientation:
 ---------------------------------------------------------------------
 Center     Atomic      Atomic             Coordinates (Angstroms)
 Number     Number       Type             X           Y           Z
 ---------------------------------------------------------------------
      1          7           0        0.000000    0.000000    1.210000
      2          7           0        0.000000    0.000000   -1.210000
 ---------------------------------------------------------------------

 SCF Done:  E(RHF) =  -108.174809610     A.U. after    8 cycles
 E2 =    -0.1282433277D+01 EUMP2 =    -0.10945724288757D+03
 CCSD(T)
 CCSD(T)= -0.10929484869D+03

 The electronic state is 1-SGG.
 Alpha  occ. eigenvalues --  -15.83270 -15.83253  -1.06577  -1.00662  -0.42846
 Alpha  occ. eigenvalues --   -0.37654  -0.37654
 Alpha virt. eigenvalues --   -0.13582  -0.13582  -0.06703   0.58274   0.58274
 Alpha virt. eigenvalues --    0.59009   0.62712   0.66858   0.66858   0.70578
 Alpha virt. eigenvalues --    0.92749   1.09910   1.12481   1.12481   1.19889

 Mulliken charges:
               1
     1  N   -0.000000
     2  N   -0.000000
 Sum of Mulliken charges =  -0.00000

 Dipole moment (field-independent basis, Debye):
    X=             -0.0000    Y=              0.0000    Z=              0.0000  Tot=              0.0000
 Quadrupole moment (field-independent basis, Debye-Ang):
   XX=            -12.2796   YY=            -12.2796   ZZ=            -10.1822
   XY=              0.0000   XZ=             -0.0000   YZ=              0.0000

 12.0805859\CCSD=-108.9804511\CCSD(T)=-109.2948487\RMSD=9.872e-09\PG=D*
 Normal termination of Gaussian 16 at Sat Feb 10 15:32:53 2024.
