 Gaussian 16, Revision A.03,
 Gaussian 16:  ES64L-G16RevA.03 25-Dec-2016

 ---------------------------------------------
 #p CCSD(T,MaxCyc=200)/cc-pVTZ SCF(MaxCyc=200)
 ---------------------------------------------

 -----
 N2_55
 -----
 Symbolic Z-matrix:
 Charge =  0 Multiplicity = 1

                         Standard orientation:
 ---------------------------------------------------------------------
 Center     Atomic      Atomic             Coordinates (Angstroms)
 Number     Number       Type             X           Y           Z
 ---------------------------------------------------------------------
      1          7           0        0.000000    0.000000    1.225000
      2          7           0        0.000000    0.000000   -1.225000
 ---------------------------------------------------------------------

 SCF Done:  E(RHF) =  -108.164667336     A.U. after    9 cycles
 E2 =    -0.1313103527D+01 EUMP2 =    -0.10947777086291D+03
 CCSD(T)
 CCSD(T)= -0.10931624076D+03

 The electronic state is 1-SGG.
 Alpha  occ. eigenvalues --  -15.83260 -15.83244  -1.06410  -1.00802  -0.42493
 Alpha  occ. eigenvalues --   -0.37469  -0.37469
 Alpha virt. eigenvalues --   -0.13802  -0.13802  -0.07151   0.58197   0.58197
 Alpha virt. eigenvalues --    0.59172   0.62680   0.66799   0.66799   0.70103
 Alpha virt. eigenvalues --    0.92423   1.09805   1.12996   1.12996   1.20032

 Mulliken charges:
               1
     1  N    0.000000
     2  N    0.000000
 Sum of Mulliken charges =   0.00000

 Dipole moment (field-independent basis, Debye):
    X=              0.0000    Y=             -0.0000    Z=             -0.0000  Tot=              0.0000
 Quadrupole moment (field-independent basis, Debye-Ang):
   XX=            -12.2818   YY=            -12.2818   ZZ=            -10.1682
   XY=              0.0000   XZ=             -0.0000   YZ=              0.0000

 12.3975363\CCSD=-108.9845795\CCSD(T)=-109.3162408\RMSD=1.141e-09\PG=D*
 Normal termination of Gaussian 16 at Sat Feb 10 15:32:59 2024.
