 Gaussian 16, Revision A.03,
 Gaussian 16:  ES64L-G16RevA.03 25-Dec-2016

 ---------------------------------------------
 #p CCSD(T,MaxCyc=200)/cc-pVTZ SCF(MaxCyc=200)
 ---------------------------------------------

 -----
 N2_53
 -----
 Symbolic Z-matrix:
 Charge =  0 Multiplicity = 1

                         Standard orientation:
 ---------------------------------------------------------------------
 Center     Atomic      Atomic             Coordinates (Angstroms)
 Number     Number       Type             X           Y           Z
 ---------------------------------------------------------------------
      1          7           0        0.000000    0.000000    1.195000
      2          7           0        0.000000    0.000000   -1.195000
 ---------------------------------------------------------------------

 SCF Done:  E(RHF) =  -108.185285979     A.U. after    9 cycles
 E2 =    -0.1252051400D+01 EUMP2 =    -0.10943733737886D+03
 CCSD(T)
 CCSD(T)= -0.10927277762D+03

 The electronic state is 1-SGG.
 Alpha  occ. eigenvalues --  -15.83275 -15.83258  -1.06755  -1.00513  -0.43208
 Alpha  occ. eigenvalues --   -0.37844  -0.37844
 Alpha virt. eigenvalues --   -0.13354  -0.13354  -0.06234   0.58361   0.58361
 Alpha virt. eigenvalues --    0.58846   0.62729   0.66916   0.66916   0.71022
 Alpha virt. eigenvalues --    0.93083   1.10136   1.11960   1.11960   1.19733

 Mulliken charges:
               1
     1  N   -0.000000
     2  N   -0.000000
 Sum of Mulliken charges =  -0.00000

 Dipole moment (field-independent basis, Debye):
    X=              0.0000    Y=              0.0000    Z=              0.0000  Tot=              0.0000
 Quadrupole moment (field-independent basis, Debye-Ang):
   XX=            -12.2766   YY=            -12.2766   ZZ=            -10.1978
   XY=              0.0000   XZ=             -0.0000   YZ=              0.0000

 .7867493\CCSD=-108.9761737\CCSD(T)=-109.2727776\RMSD=1.143e-09\PG=D*H
 Normal termination of Gaussian 16 at Sat Feb 10 15:32:47 2024.
