 Gaussian 16, Revision A.03,
 Gaussian 16:  ES64L-G16RevA.03 25-Dec-2016

 ---------------------------------------------
 #p CCSD(T,MaxCyc=200)/cc-pVTZ SCF(MaxCyc=200)
 ---------------------------------------------

 -----
 N2_50
 -----
 Symbolic Z-matrix:
 Charge =  0 Multiplicity = 1

                         Standard orientation:
 ---------------------------------------------------------------------
 Center     Atomic      Atomic             Coordinates (Angstroms)
 Number     Number       Type             X           Y           Z
 ---------------------------------------------------------------------
      1          7           0        0.000000    0.000000    1.150000
      2          7           0        0.000000    0.000000   -1.150000
 ---------------------------------------------------------------------

 SCF Done:  E(RHF) =  -108.218838008     A.U. after    9 cycles
 E2 =    -0.1162726718D+01 EUMP2 =    -0.10938156472672D+03
 CCSD(T)
 CCSD(T)= -0.10920470901D+03

 The electronic state is 1-SGG.
 Alpha  occ. eigenvalues --  -15.83261 -15.83242  -1.07356  -1.00006  -0.44352
 Alpha  occ. eigenvalues --   -0.38454  -0.38454
 Alpha virt. eigenvalues --   -0.12610  -0.12610  -0.04684   0.58354   0.58674
 Alpha virt. eigenvalues --    0.58674   0.62709   0.67085   0.67085   0.72082
 Alpha virt. eigenvalues --    0.94140   1.10397   1.10397   1.11648   1.19194

 Mulliken charges:
               1
     1  N   -0.000000
     2  N   -0.000000
 Sum of Mulliken charges =  -0.00000

 Dipole moment (field-independent basis, Debye):
    X=             -0.0000    Y=              0.0000    Z=             -0.0000  Tot=              0.0000
 Quadrupole moment (field-independent basis, Debye-Ang):
   XX=            -12.2622   YY=            -12.2622   ZZ=            -10.2551
   XY=              0.0000   XZ=             -0.0000   YZ=              0.0000

 .0330651\CCSD=-108.9632181\CCSD(T)=-109.204709\RMSD=1.200e-09\PG=D*H [
 Normal termination of Gaussian 16 at Sat Feb 10 15:32:30 2024.
