 Gaussian 16, Revision A.03,
 Gaussian 16:  ES64L-G16RevA.03 25-Dec-2016

 ---------------------------------------------
 #p CCSD(T,MaxCyc=200)/cc-pVTZ SCF(MaxCyc=200)
 ---------------------------------------------

 -----
 N2_57
 -----
 Symbolic Z-matrix:
 Charge =  0 Multiplicity = 1

                         Standard orientation:
 ---------------------------------------------------------------------
 Center     Atomic      Atomic             Coordinates (Angstroms)
 Number     Number       Type             X           Y           Z
 ---------------------------------------------------------------------
      1          7           0        0.000000    0.000000    1.255000
      2          7           0        0.000000    0.000000   -1.255000
 ---------------------------------------------------------------------

 SCF Done:  E(RHF) =  -108.145339809     A.U. after    9 cycles
 E2 =    -0.1375274095D+01 EUMP2 =    -0.10952061390379D+03
 CCSD(T)
 CCSD(T)= -0.10935655352D+03

 The electronic state is 1-SGG.
 Alpha  occ. eigenvalues --  -15.83229 -15.83215  -1.06103  -1.01056  -0.41815
 Alpha  occ. eigenvalues --   -0.37117  -0.37117
 Alpha virt. eigenvalues --   -0.14216  -0.14216  -0.07989   0.58070   0.58070
 Alpha virt. eigenvalues --    0.59496   0.62551   0.66675   0.66675   0.69103
 Alpha virt. eigenvalues --    0.91796   1.09911   1.13998   1.13998   1.20288

 Mulliken charges:
               1
     1  N   -0.000000
     2  N   -0.000000
 Sum of Mulliken charges =  -0.00000

 Dipole moment (field-independent basis, Debye):
    X=             -0.0000    Y=              0.0000    Z=             -0.0000  Tot=              0.0000
 Quadrupole moment (field-independent basis, Debye-Ang):
   XX=            -12.2841   YY=            -12.2841   ZZ=            -10.1453
   XY=              0.0000   XZ=             -0.0000   YZ=              0.0000

 13.1052646\CCSD=-108.9922484\CCSD(T)=-109.3565535\RMSD=1.106e-09\PG=D*
 Normal termination of Gaussian 16 at Sat Feb 10 15:33:11 2024.
