 Gaussian 16, Revision A.03,
 Gaussian 16:  ES64L-G16RevA.03 25-Dec-2016

 ---------------------------------------------
 #p CCSD(T,MaxCyc=200)/cc-pVTZ SCF(MaxCyc=200)
 ---------------------------------------------

 ----
 N2_5
 ----
 Symbolic Z-matrix:
 Charge =  0 Multiplicity = 1

                         Standard orientation:
 ---------------------------------------------------------------------
 Center     Atomic      Atomic             Coordinates (Angstroms)
 Number     Number       Type             X           Y           Z
 ---------------------------------------------------------------------
      1          7           0        0.000000    0.000000    0.475000
      2          7           0        0.000000    0.000000   -0.475000
 ---------------------------------------------------------------------

 SCF Done:  E(RHF) =  -108.922927972     A.U. after    9 cycles
 E2 =    -0.3390795168D+00 EUMP2 =    -0.10926200748905D+03
 CCSD(T)
 CCSD(T)= -0.10928288814D+03

 The electronic state is 1-SGG.
 Alpha  occ. eigenvalues --  -15.62746 -15.61758  -1.57721  -0.72669  -0.68514
 Alpha  occ. eigenvalues --   -0.68514  -0.64486
 Alpha virt. eigenvalues --    0.23895   0.23895   0.43518   0.53587   0.53587
 Alpha virt. eigenvalues --    0.54171   0.69069   0.76570   0.76570   0.97255
 Alpha virt. eigenvalues --    1.04497   1.04497   1.34490   1.44579   1.44579

 Mulliken charges:
               1
     1  N    0.000000
     2  N    0.000000
 Sum of Mulliken charges =   0.00000

 Dipole moment (field-independent basis, Debye):
    X=              0.0000    Y=             -0.0000    Z=              0.0000  Tot=              0.0000
 Quadrupole moment (field-independent basis, Debye-Ang):
   XX=             -9.7022   YY=             -9.7022   ZZ=            -11.5293
   XY=              0.0000   XZ=              0.0000   YZ=             -0.0000

 2698893\CCSD=-109.2691857\CCSD(T)=-109.2828881\RMSD=2.614e-09\PG=D*H [
 Normal termination of Gaussian 16 at Sat Feb 10 15:28:22 2024.
