 Gaussian 16, Revision A.03,
 Gaussian 16:  ES64L-G16RevA.03 25-Dec-2016

 ---------------------------------------------
 #p CCSD(T,MaxCyc=200)/cc-pVTZ SCF(MaxCyc=200)
 ---------------------------------------------

 -----
 N2_51
 -----
 Symbolic Z-matrix:
 Charge =  0 Multiplicity = 1

                         Standard orientation:
 ---------------------------------------------------------------------
 Center     Atomic      Atomic             Coordinates (Angstroms)
 Number     Number       Type             X           Y           Z
 ---------------------------------------------------------------------
      1          7           0        0.000000    0.000000    1.165000
      2          7           0        0.000000    0.000000   -1.165000
 ---------------------------------------------------------------------

 SCF Done:  E(RHF) =  -108.207288061     A.U. after    9 cycles
 E2 =    -0.1192188651D+01 EUMP2 =    -0.10939947671205D+03
 CCSD(T)
 CCSD(T)= -0.10922740562D+03

 The electronic state is 1-SGG.
 Alpha  occ. eigenvalues --  -15.83271 -15.83253  -1.07143  -1.00186  -0.43961
 Alpha  occ. eigenvalues --   -0.38244  -0.38244
 Alpha virt. eigenvalues --   -0.12868  -0.12868  -0.05226   0.58518   0.58561
 Alpha virt. eigenvalues --    0.58561   0.62725   0.67030   0.67030   0.71781
 Alpha virt. eigenvalues --    0.93778   1.10914   1.10914   1.10996   1.19387

 Mulliken charges:
               1
     1  N   -0.000000
     2  N   -0.000000
 Sum of Mulliken charges =  -0.00000

 Dipole moment (field-independent basis, Debye):
    X=             -0.0000    Y=             -0.0000    Z=             -0.0000  Tot=              0.0000
 Quadrupole moment (field-independent basis, Debye-Ang):
   XX=            -12.2679   YY=            -12.2679   ZZ=            -10.2342
   XY=              0.0000   XZ=             -0.0000   YZ=              0.0000

 1.2640516\CCSD=-108.967449\CCSD(T)=-109.2274056\RMSD=1.183e-09\PG=D*H
 Normal termination of Gaussian 16 at Sat Feb 10 15:32:35 2024.
