 Gaussian 16, Revision A.03,
 Gaussian 16:  ES64L-G16RevA.03 25-Dec-2016

 ---------------------------------------------
 #p CCSD(T,MaxCyc=200)/cc-pVTZ SCF(MaxCyc=200)
 ---------------------------------------------

 -----
 N2_59
 -----
 Symbolic Z-matrix:
 Charge =  0 Multiplicity = 1

                         Standard orientation:
 ---------------------------------------------------------------------
 Center     Atomic      Atomic             Coordinates (Angstroms)
 Number     Number       Type             X           Y           Z
 ---------------------------------------------------------------------
      1          7           0        0.000000    0.000000    1.285000
      2          7           0        0.000000    0.000000   -1.285000
 ---------------------------------------------------------------------

 SCF Done:  E(RHF) =  -108.127216011     A.U. after    9 cycles
 E2 =    -0.1438496516D+01 EUMP2 =    -0.10956571252624D+03
 CCSD(T)
 CCSD(T)= -0.10939327045D+03

 The electronic state is 1-SGG.
 Alpha  occ. eigenvalues --  -15.83185 -15.83171  -1.05829  -1.01278  -0.41172
 Alpha  occ. eigenvalues --   -0.36784  -0.36784
 Alpha virt. eigenvalues --   -0.14598  -0.14598  -0.08756   0.57980   0.57980
 Alpha virt. eigenvalues --    0.59816   0.62306   0.66545   0.66545   0.68119
 Alpha virt. eigenvalues --    0.91197   1.10351   1.14950   1.14950   1.20506

 Mulliken charges:
               1
     1  N   -0.000000
     2  N   -0.000000
 Sum of Mulliken charges =  -0.00000

 Dipole moment (field-independent basis, Debye):
    X=             -0.0000    Y=             -0.0000    Z=             -0.0000  Tot=              0.0000
 Quadrupole moment (field-independent basis, Debye-Ang):
   XX=            -12.2841   YY=            -12.2841   ZZ=            -10.1288
   XY=              0.0000   XZ=             -0.0000   YZ=              0.0000

 3.9191107\CCSD=-108.9990459\CCSD(T)=-109.3932704\RMSD=1.079e-09\PG=D*H
 Normal termination of Gaussian 16 at Sat Feb 10 15:33:23 2024.
