 Gaussian 16, Revision A.03,
 Gaussian 16:  ES64L-G16RevA.03 25-Dec-2016

 ---------------------------------------------
 #p CCSD(T,MaxCyc=200)/cc-pVTZ SCF(MaxCyc=200)
 ---------------------------------------------

 -----
 N2_56
 -----
 Symbolic Z-matrix:
 Charge =  0 Multiplicity = 1

                         Standard orientation:
 ---------------------------------------------------------------------
 Center     Atomic      Atomic             Coordinates (Angstroms)
 Number     Number       Type             X           Y           Z
 ---------------------------------------------------------------------
      1          7           0        0.000000    0.000000    1.240000
      2          7           0        0.000000    0.000000   -1.240000
 ---------------------------------------------------------------------

 SCF Done:  E(RHF) =  -108.154847763     A.U. after    9 cycles
 E2 =    -0.1344053267D+01 EUMP2 =    -0.10949890103040D+03
 CCSD(T)
 CCSD(T)= -0.10933683246D+03

 The electronic state is 1-SGG.
 Alpha  occ. eigenvalues --  -15.83246 -15.83231  -1.06252  -1.00933  -0.42150
 Alpha  occ. eigenvalues --   -0.37290  -0.37290
 Alpha virt. eigenvalues --   -0.14013  -0.14013  -0.07579   0.58129   0.58129
 Alpha virt. eigenvalues --    0.59334   0.62627   0.66738   0.66738   0.69608
 Alpha virt. eigenvalues --    0.92106   1.09810   1.13502   1.13502   1.20166

 Mulliken charges:
               1
     1  N    0.000000
     2  N    0.000000
 Sum of Mulliken charges =   0.00000

 Dipole moment (field-independent basis, Debye):
    X=              0.0000    Y=              0.0000    Z=             -0.0000  Tot=              0.0000
 Quadrupole moment (field-independent basis, Debye-Ang):
   XX=            -12.2833   YY=            -12.2833   ZZ=            -10.1560
   XY=              0.0000   XZ=             -0.0000   YZ=              0.0000

 .7387166\CCSD=-108.9885191\CCSD(T)=-109.3368325\RMSD=1.121e-09\PG=D*H
 Normal termination of Gaussian 16 at Sat Feb 10 15:33:06 2024.
