 Gaussian 16, Revision A.03,
 Gaussian 16:  ES64L-G16RevA.03 25-Dec-2016

 ---------------------------------------------
 #p CCSD(T,MaxCyc=200)/cc-pVTZ SCF(MaxCyc=200)
 ---------------------------------------------

 -----
 N2_58
 -----
 Symbolic Z-matrix:
 Charge =  0 Multiplicity = 1

                         Standard orientation:
 ---------------------------------------------------------------------
 Center     Atomic      Atomic             Coordinates (Angstroms)
 Number     Number       Type             X           Y           Z
 ---------------------------------------------------------------------
      1          7           0        0.000000    0.000000    1.270000
      2          7           0        0.000000    0.000000   -1.270000
 ---------------------------------------------------------------------

 SCF Done:  E(RHF) =  -108.136132707     A.U. after    9 cycles
 E2 =    -0.1406757820D+01 EUMP2 =    -0.10954289052694D+03
 CCSD(T)
 CCSD(T)= -0.10937536908D+03

 The electronic state is 1-SGG.
 Alpha  occ. eigenvalues --  -15.83209 -15.83194  -1.05962  -1.01171  -0.41489
 Alpha  occ. eigenvalues --   -0.36948  -0.36948
 Alpha virt. eigenvalues --   -0.14411  -0.14411  -0.08381   0.58020   0.58020
 Alpha virt. eigenvalues --    0.59657   0.62446   0.66611   0.66611   0.68603
 Alpha virt. eigenvalues --    0.91493   1.10095   1.14481   1.14481   1.20402

 Mulliken charges:
               1
     1  N   -0.000000
     2  N   -0.000000
 Sum of Mulliken charges =  -0.00000

 Dipole moment (field-independent basis, Debye):
    X=             -0.0000    Y=             -0.0000    Z=             -0.0000  Tot=              0.0000
 Quadrupole moment (field-independent basis, Debye-Ang):
   XX=            -12.2844   YY=            -12.2844   ZZ=            -10.1363
   XY=              0.0000   XZ=             -0.0000   YZ=              0.0000

 13.4983374\CCSD=-108.9957577\CCSD(T)=-109.3753691\RMSD=1.092e-09\PG=D*
 Normal termination of Gaussian 16 at Sat Feb 10 15:33:17 2024.
