 Gaussian 16, Revision A.03,
 Gaussian 16:  ES64L-G16RevA.03 25-Dec-2016

 ---------------------------------------------
 #p CCSD(T,MaxCyc=200)/cc-pVTZ SCF(MaxCyc=200)
 ---------------------------------------------

 -----
 N2_66
 -----
 Symbolic Z-matrix:
 Charge =  0 Multiplicity = 1

                         Standard orientation:
 ---------------------------------------------------------------------
 Center     Atomic      Atomic             Coordinates (Angstroms)
 Number     Number       Type             X           Y           Z
 ---------------------------------------------------------------------
      1          7           0        0.000000    0.000000    1.390000
      2          7           0        0.000000    0.000000   -1.390000
 ---------------------------------------------------------------------

 SCF Done:  E(RHF) =  -108.072119327     A.U. after    9 cycles
 E2 =    -0.1667196365D+01 EUMP2 =    -0.10973931569142D+03
 CCSD(T)
 CCSD(T)= -0.10949485741D+03

 The electronic state is 1-SGG.
 Alpha  occ. eigenvalues --  -15.82954 -15.82943  -1.05072  -1.01858  -0.39175
 Alpha  occ. eigenvalues --   -0.35752  -0.35752
 Alpha virt. eigenvalues --   -0.15725  -0.15725  -0.10994   0.57936   0.57936
 Alpha virt. eigenvalues --    0.60122   0.60896   0.65923   0.66024   0.66024
 Alpha virt. eigenvalues --    0.89265   1.13281   1.17726   1.17726   1.21029

 Mulliken charges:
               1
     1  N   -0.000000
     2  N   -0.000000
 Sum of Mulliken charges =  -0.00000

 Dipole moment (field-independent basis, Debye):
    X=             -0.0000    Y=             -0.0000    Z=             -0.0000  Tot=              0.0000
 Quadrupole moment (field-independent basis, Debye-Ang):
   XX=            -12.2711   YY=            -12.2711   ZZ=            -10.1192
   XY=              0.0000   XZ=             -0.0000   YZ=              0.0000

 7425498\CCSD=-109.016559\CCSD(T)=-109.4948574\RMSD=1.005e-09\PG=D*H [C
 Normal termination of Gaussian 16 at Sat Feb 10 15:34:14 2024.
