 Gaussian 16, Revision A.03,
 Gaussian 16:  ES64L-G16RevA.03 25-Dec-2016

 ---------------------------------------------
 #p CCSD(T,MaxCyc=200)/cc-pVTZ SCF(MaxCyc=200)
 ---------------------------------------------

 -----
 N2_62
 -----
 Symbolic Z-matrix:
 Charge =  0 Multiplicity = 1

                         Standard orientation:
 ---------------------------------------------------------------------
 Center     Atomic      Atomic             Coordinates (Angstroms)
 Number     Number       Type             X           Y           Z
 ---------------------------------------------------------------------
      1          7           0        0.000000    0.000000    1.330000
      2          7           0        0.000000    0.000000   -1.330000
 ---------------------------------------------------------------------

 SCF Done:  E(RHF) =  -108.102108671     A.U. after    9 cycles
 E2 =    -0.1535167111D+01 EUMP2 =    -0.10963727578267D+03
 CCSD(T)
 CCSD(T)= -0.10944164080D+03

 The electronic state is 1-SGG.
 Alpha  occ. eigenvalues --  -15.83098 -15.83086  -1.05470  -1.01561  -0.40269
 Alpha  occ. eigenvalues --   -0.36318  -0.36318
 Alpha virt. eigenvalues --   -0.15118  -0.15118  -0.09792   0.57912   0.57912
 Alpha virt. eigenvalues --    0.60288   0.61629   0.66335   0.66335   0.66883
 Alpha virt. eigenvalues --    0.90345   1.11437   1.16254   1.16254   1.20770

 Mulliken charges:
               1
     1  N    0.000000
     2  N    0.000000
 Sum of Mulliken charges =   0.00000

 Dipole moment (field-independent basis, Debye):
    X=              0.0000    Y=              0.0000    Z=             -0.0000  Tot=              0.0000
 Quadrupole moment (field-independent basis, Debye-Ang):
   XX=            -12.2805   YY=            -12.2805   ZZ=            -10.1157
   XY=              0.0000   XZ=             -0.0000   YZ=              0.0000

 15.3596585\CCSD=-109.0076464\CCSD(T)=-109.4416408\RMSD=1.043e-09\PG=D*
 Normal termination of Gaussian 16 at Sat Feb 10 15:33:44 2024.
