 Gaussian 16, Revision A.03,
 Gaussian 16:  ES64L-G16RevA.03 25-Dec-2016

 ---------------------------------------------
 #p CCSD(T,MaxCyc=200)/cc-pVTZ SCF(MaxCyc=200)
 ---------------------------------------------

 -----
 N2_60
 -----
 Symbolic Z-matrix:
 Charge =  0 Multiplicity = 1

                         Standard orientation:
 ---------------------------------------------------------------------
 Center     Atomic      Atomic             Coordinates (Angstroms)
 Number     Number       Type             X           Y           Z
 ---------------------------------------------------------------------
      1          7           0        0.000000    0.000000    1.300000
      2          7           0        0.000000    0.000000   -1.300000
 ---------------------------------------------------------------------

 SCF Done:  E(RHF) =  -108.118579593     A.U. after    9 cycles
 E2 =    -0.1470482518D+01 EUMP2 =    -0.10958906211083D+03
 CCSD(T)
 CCSD(T)= -0.10941026730D+03

 The electronic state is 1-SGG.
 Alpha  occ. eigenvalues --  -15.83158 -15.83145  -1.05703  -1.01379  -0.40863
 Alpha  occ. eigenvalues --   -0.36625  -0.36625
 Alpha virt. eigenvalues --   -0.14778  -0.14778  -0.09116   0.57949   0.57949
 Alpha virt. eigenvalues --    0.59975   0.62126   0.66477   0.66477   0.67665
 Alpha virt. eigenvalues --    0.90908   1.10668   1.15402   1.15402   1.20602

 Mulliken charges:
               1
     1  N   -0.000000
     2  N   -0.000000
 Sum of Mulliken charges =  -0.00000

 Dipole moment (field-independent basis, Debye):
    X=             -0.0000    Y=             -0.0000    Z=             -0.0000  Tot=              0.0000
 Quadrupole moment (field-independent basis, Debye-Ang):
   XX=            -12.2833   YY=            -12.2833   ZZ=            -10.1229
   XY=              0.0000   XZ=             -0.0000   YZ=              0.0000

 687784\CCSD=-109.0021177\CCSD(T)=-109.4102673\RMSD=1.066e-09\PG=D*H [C
 Normal termination of Gaussian 16 at Sat Feb 10 15:33:29 2024.
