 Gaussian 16, Revision A.03,
 Gaussian 16:  ES64L-G16RevA.03 25-Dec-2016

 ---------------------------------------------
 #p CCSD(T,MaxCyc=200)/cc-pVTZ SCF(MaxCyc=200)
 ---------------------------------------------

 ----
 N2_6
 ----
 Symbolic Z-matrix:
 Charge =  0 Multiplicity = 1

                         Standard orientation:
 ---------------------------------------------------------------------
 Center     Atomic      Atomic             Coordinates (Angstroms)
 Number     Number       Type             X           Y           Z
 ---------------------------------------------------------------------
      1          7           0        0.000000    0.000000    0.490000
      2          7           0        0.000000    0.000000   -0.490000
 ---------------------------------------------------------------------

 SCF Done:  E(RHF) =  -108.953804745     A.U. after    9 cycles
 E2 =    -0.3452532162D+00 EUMP2 =    -0.10929905796132D+03
 CCSD(T)
 CCSD(T)= -0.10931943444D+03

 The electronic state is 1-SGG.
 Alpha  occ. eigenvalues --  -15.63836 -15.63053  -1.55599  -0.73747  -0.66853
 Alpha  occ. eigenvalues --   -0.66853  -0.64247
 Alpha virt. eigenvalues --    0.22276   0.22276   0.43401   0.54168   0.54168
 Alpha virt. eigenvalues --    0.54569   0.68618   0.75737   0.75737   0.96391
 Alpha virt. eigenvalues --    1.04489   1.04489   1.28965   1.42462   1.42462

 Mulliken charges:
               1
     1  N   -0.000000
     2  N   -0.000000
 Sum of Mulliken charges =  -0.00000

 Dipole moment (field-independent basis, Debye):
    X=             -0.0000    Y=              0.0000    Z=             -0.0000  Tot=              0.0000
 Quadrupole moment (field-independent basis, Debye-Ang):
   XX=             -9.8250   YY=             -9.8250   ZZ=            -11.5630
   XY=              0.0000   XZ=              0.0000   YZ=             -0.0000

 .3057798\CCSD=-109.3048834\CCSD(T)=-109.3194344\RMSD=2.359e-09\PG=D*H
 Normal termination of Gaussian 16 at Sat Feb 10 15:28:27 2024.
