 Gaussian 16, Revision A.03,
 Gaussian 16:  ES64L-G16RevA.03 25-Dec-2016

 ---------------------------------------------
 #p CCSD(T,MaxCyc=200)/cc-pVTZ SCF(MaxCyc=200)
 ---------------------------------------------

 -----
 N2_67
 -----
 Symbolic Z-matrix:
 Charge =  0 Multiplicity = 1

                         Standard orientation:
 ---------------------------------------------------------------------
 Center     Atomic      Atomic             Coordinates (Angstroms)
 Number     Number       Type             X           Y           Z
 ---------------------------------------------------------------------
      1          7           0        0.000000    0.000000    1.405000
      2          7           0        0.000000    0.000000   -1.405000
 ---------------------------------------------------------------------

 SCF Done:  E(RHF) =  -108.065187394     A.U. after    9 cycles
 E2 =    -0.1700721377D+01 EUMP2 =    -0.10976590877096D+03
 CCSD(T)
 CCSD(T)= -0.10950639289D+03

 The electronic state is 1-SGG.
 Alpha  occ. eigenvalues --  -15.82914 -15.82904  -1.04984  -1.01920  -0.38919
 Alpha  occ. eigenvalues --   -0.35619  -0.35619
 Alpha virt. eigenvalues --   -0.15864  -0.15864  -0.11267   0.57960   0.57960
 Alpha virt. eigenvalues --    0.59679   0.61043   0.65789   0.65941   0.65941
 Alpha virt. eigenvalues --    0.88999   1.13764   1.18045   1.18045   1.21080

 Mulliken charges:
               1
     1  N    0.000000
     2  N    0.000000
 Sum of Mulliken charges =   0.00000

 Dipole moment (field-independent basis, Debye):
    X=             -0.0000    Y=              0.0000    Z=             -0.0000  Tot=              0.0000
 Quadrupole moment (field-independent basis, Debye-Ang):
   XX=            -12.2683   YY=            -12.2683   ZZ=            -10.1237
   XY=              0.0000   XZ=             -0.0000   YZ=              0.0000

 .4293062\CCSD=-109.0184076\CCSD(T)=-109.5063929\RMSD=9.990e-10\PG=D*H
 Normal termination of Gaussian 16 at Sat Feb 10 15:34:22 2024.
