 Gaussian 16, Revision A.03,
 Gaussian 16:  ES64L-G16RevA.03 25-Dec-2016

 ---------------------------------------------
 #p CCSD(T,MaxCyc=200)/cc-pVTZ SCF(MaxCyc=200)
 ---------------------------------------------

 -----
 N2_63
 -----
 Symbolic Z-matrix:
 Charge =  0 Multiplicity = 1

                         Standard orientation:
 ---------------------------------------------------------------------
 Center     Atomic      Atomic             Coordinates (Angstroms)
 Number     Number       Type             X           Y           Z
 ---------------------------------------------------------------------
      1          7           0        0.000000    0.000000    1.345000
      2          7           0        0.000000    0.000000   -1.345000
 ---------------------------------------------------------------------

 SCF Done:  E(RHF) =  -108.094255489     A.U. after    9 cycles
 E2 =    -0.1567851704D+01 EUMP2 =    -0.10966210719276D+03
 CCSD(T)
 CCSD(T)= -0.10945608120D+03

 The electronic state is 1-SGG.
 Alpha  occ. eigenvalues --  -15.83065 -15.83053  -1.05363  -1.01643  -0.39985
 Alpha  occ. eigenvalues --   -0.36171  -0.36171
 Alpha virt. eigenvalues --   -0.15279  -0.15279  -0.10110   0.57907   0.57907
 Alpha virt. eigenvalues --    0.60442   0.61309   0.66260   0.66260   0.66569
 Alpha virt. eigenvalues --    0.90071   1.11872   1.16651   1.16651   1.20844

 Mulliken charges:
               1
     1  N    0.000000
     2  N    0.000000
 Sum of Mulliken charges =   0.00000

 Dipole moment (field-independent basis, Debye):
    X=              0.0000    Y=              0.0000    Z=             -0.0000  Tot=              0.0000
 Quadrupole moment (field-independent basis, Debye-Ang):
   XX=            -12.2785   YY=            -12.2785   ZZ=            -10.1143
   XY=              0.0000   XZ=             -0.0000   YZ=              0.0000

 15.9033436\CCSD=-109.0101251\CCSD(T)=-109.4560812\RMSD=1.032e-09\PG=D*
 Normal termination of Gaussian 16 at Sat Feb 10 15:33:51 2024.
