 Gaussian 16, Revision A.03,
 Gaussian 16:  ES64L-G16RevA.03 25-Dec-2016

 ---------------------------------------------
 #p CCSD(T,MaxCyc=200)/cc-pVTZ SCF(MaxCyc=200)
 ---------------------------------------------

 -----
 N2_79
 -----
 Symbolic Z-matrix:
 Charge =  0 Multiplicity = 1

                         Standard orientation:
 ---------------------------------------------------------------------
 Center     Atomic      Atomic             Coordinates (Angstroms)
 Number     Number       Type             X           Y           Z
 ---------------------------------------------------------------------
      1          7           0        0.000000    0.000000    1.585000
      2          7           0        0.000000    0.000000   -1.585000
 ---------------------------------------------------------------------

 SCF Done:  E(RHF) =  -107.996439066     A.U. after    8 cycles
 E2 =    -0.2116923038D+01 EUMP2 =    -0.11011336210421D+03
 CCSD(T)
 CCSD(T)= -0.10960418405D+03

 The electronic state is 1-SGG.
 Alpha  occ. eigenvalues --  -15.82369 -15.82362  -1.04185  -1.02387  -0.36333
 Alpha  occ. eigenvalues --   -0.34231  -0.34231
 Alpha virt. eigenvalues --   -0.17183  -0.17183  -0.13913   0.55052   0.58642
 Alpha virt. eigenvalues --    0.58642   0.62629   0.64824   0.64824   0.65407
 Alpha virt. eigenvalues --    0.85426   1.18617   1.20512   1.20512   1.21438

 Mulliken charges:
               1
     1  N    0.000000
     2  N    0.000000
 Sum of Mulliken charges =   0.00000

 Dipole moment (field-independent basis, Debye):
    X=              0.0000    Y=             -0.0000    Z=              0.0000  Tot=              0.0000
 Quadrupole moment (field-independent basis, Debye-Ang):
   XX=            -12.2284   YY=            -12.2284   ZZ=            -10.2939
   XY=              0.0000   XZ=             -0.0000   YZ=              0.0000

 0.1057343\CCSD=-109.0328413\CCSD(T)=-109.6041841\RMSD=4.462e-09\PG=D*H
 Normal termination of Gaussian 16 at Sat Feb 10 15:35:54 2024.
