 Gaussian 16, Revision A.03,
 Gaussian 16:  ES64L-G16RevA.03 25-Dec-2016

 ---------------------------------------------
 #p CCSD(T,MaxCyc=200)/cc-pVTZ SCF(MaxCyc=200)
 ---------------------------------------------

 -----
 N2_77
 -----
 Symbolic Z-matrix:
 Charge =  0 Multiplicity = 1

                         Standard orientation:
 ---------------------------------------------------------------------
 Center     Atomic      Atomic             Coordinates (Angstroms)
 Number     Number       Type             X           Y           Z
 ---------------------------------------------------------------------
      1          7           0        0.000000    0.000000    1.555000
      2          7           0        0.000000    0.000000   -1.555000
 ---------------------------------------------------------------------

 SCF Done:  E(RHF) =  -108.006278870     A.U. after    8 cycles
 E2 =    -0.2045934011D+01 EUMP2 =    -0.11005221288086D+03
 CCSD(T)
 CCSD(T)= -0.10959209709D+03

 The electronic state is 1-SGG.
 Alpha  occ. eigenvalues --  -15.82465 -15.82458  -1.04294  -1.02338  -0.36710
 Alpha  occ. eigenvalues --   -0.34440  -0.34440
 Alpha virt. eigenvalues --   -0.17001  -0.17001  -0.13539   0.55625   0.58491
 Alpha virt. eigenvalues --    0.58491   0.62392   0.65019   0.65019   0.65400
 Alpha virt. eigenvalues --    0.86112   1.17992   1.20249   1.20249   1.21400

 Mulliken charges:
               1
     1  N   -0.000000
     2  N   -0.000000
 Sum of Mulliken charges =  -0.00000

 Dipole moment (field-independent basis, Debye):
    X=             -0.0000    Y=              0.0000    Z=              0.0000  Tot=              0.0000
 Quadrupole moment (field-independent basis, Debye-Ang):
   XX=            -12.2351   YY=            -12.2351   ZZ=            -10.2510
   XY=              0.0000   XZ=             -0.0000   YZ=              0.0000

 7.6682057\CCSD=-109.0311713\CCSD(T)=-109.5920971\RMSD=5.665e-09\PG=D*H
 Normal termination of Gaussian 16 at Sat Feb 10 15:35:39 2024.
