 Gaussian 16, Revision A.03,
 Gaussian 16:  ES64L-G16RevA.03 25-Dec-2016

 ---------------------------------------------
 #p CCSD(T,MaxCyc=200)/cc-pVTZ SCF(MaxCyc=200)
 ---------------------------------------------

 -----
 N2_71
 -----
 Symbolic Z-matrix:
 Charge =  0 Multiplicity = 1

                         Standard orientation:
 ---------------------------------------------------------------------
 Center     Atomic      Atomic             Coordinates (Angstroms)
 Number     Number       Type             X           Y           Z
 ---------------------------------------------------------------------
      1          7           0        0.000000    0.000000    1.465000
      2          7           0        0.000000    0.000000   -1.465000
 ---------------------------------------------------------------------

 SCF Done:  E(RHF) =  -108.039488618     A.U. after    9 cycles
 E2 =    -0.1836726401D+01 EUMP2 =    -0.10987621501898D+03
 CCSD(T)
 CCSD(T)= -0.10954653755D+03

 The electronic state is 1-SGG.
 Alpha  occ. eigenvalues --  -15.82744 -15.82734  -1.04672  -1.02127  -0.37964
 Alpha  occ. eigenvalues --   -0.35117  -0.35117
 Alpha virt. eigenvalues --   -0.16368  -0.16368  -0.12268   0.57885   0.58117
 Alpha virt. eigenvalues --    0.58117   0.61612   0.65494   0.65590   0.65590
 Alpha virt. eigenvalues --    0.87918   1.15638   1.19129   1.19129   1.21243

 Mulliken charges:
               1
     1  N   -0.000000
     2  N   -0.000000
 Sum of Mulliken charges =  -0.00000

 Dipole moment (field-independent basis, Debye):
    X=             -0.0000    Y=              0.0000    Z=              0.0000  Tot=              0.0000
 Quadrupole moment (field-independent basis, Debye-Ang):
   XX=            -12.2555   YY=            -12.2555   ZZ=            -10.1569
   XY=              0.0000   XZ=             -0.0000   YZ=              0.0000

 1.580078\CCSD=-109.0245989\CCSD(T)=-109.5465375\RMSD=9.954e-10\PG=D*H
 Normal termination of Gaussian 16 at Sat Feb 10 15:34:54 2024.
