 Gaussian 16, Revision A.03,
 Gaussian 16:  ES64L-G16RevA.03 25-Dec-2016

 ---------------------------------------------
 #p CCSD(T,MaxCyc=200)/cc-pVTZ SCF(MaxCyc=200)
 ---------------------------------------------

 -----
 N2_78
 -----
 Symbolic Z-matrix:
 Charge =  0 Multiplicity = 1

                         Standard orientation:
 ---------------------------------------------------------------------
 Center     Atomic      Atomic             Coordinates (Angstroms)
 Number     Number       Type             X           Y           Z
 ---------------------------------------------------------------------
      1          7           0        0.000000    0.000000    1.570000
      2          7           0        0.000000    0.000000   -1.570000
 ---------------------------------------------------------------------

 SCF Done:  E(RHF) =  -108.001288430     A.U. after    8 cycles
 E2 =    -0.2081354781D+01 EUMP2 =    -0.11008264321113D+03
 CCSD(T)
 CCSD(T)= -0.10959830905D+03

 The electronic state is 1-SGG.
 Alpha  occ. eigenvalues --  -15.82417 -15.82410  -1.04239  -1.02364  -0.36519
 Alpha  occ. eigenvalues --   -0.34335  -0.34335
 Alpha virt. eigenvalues --   -0.17094  -0.17094  -0.13729   0.55326   0.58565
 Alpha virt. eigenvalues --    0.58565   0.62512   0.64922   0.64922   0.65402
 Alpha virt. eigenvalues --    0.85775   1.18315   1.20386   1.20386   1.21420

 Mulliken charges:
               1
     1  N    0.000000
     2  N    0.000000
 Sum of Mulliken charges =   0.00000

 Dipole moment (field-independent basis, Debye):
    X=              0.0000    Y=              0.0000    Z=              0.0000  Tot=              0.0000
 Quadrupole moment (field-independent basis, Debye-Ang):
   XX=            -12.2317   YY=            -12.2317   ZZ=            -10.2718
   XY=              0.0000   XZ=             -0.0000   YZ=              0.0000

 28.8597963\CCSD=-109.0320328\CCSD(T)=-109.598309\RMSD=4.967e-09\PG=D*H
 Normal termination of Gaussian 16 at Sat Feb 10 15:35:46 2024.
