 Gaussian 16, Revision A.03,
 Gaussian 16:  ES64L-G16RevA.03 25-Dec-2016

 ---------------------------------------------
 #p CCSD(T,MaxCyc=200)/cc-pVTZ SCF(MaxCyc=200)
 ---------------------------------------------

 -----
 N2_76
 -----
 Symbolic Z-matrix:
 Charge =  0 Multiplicity = 1

                         Standard orientation:
 ---------------------------------------------------------------------
 Center     Atomic      Atomic             Coordinates (Angstroms)
 Number     Number       Type             X           Y           Z
 ---------------------------------------------------------------------
      1          7           0        0.000000    0.000000    1.540000
      2          7           0        0.000000    0.000000   -1.540000
 ---------------------------------------------------------------------

 SCF Done:  E(RHF) =  -108.011415558     A.U. after    8 cycles
 E2 =    -0.2010664605D+01 EUMP2 =    -0.11002208016275D+03
 CCSD(T)
 CCSD(T)= -0.10958552761D+03

 The electronic state is 1-SGG.
 Alpha  occ. eigenvalues --  -15.82513 -15.82505  -1.04351  -1.02310  -0.36905
 Alpha  occ. eigenvalues --   -0.34547  -0.34547
 Alpha virt. eigenvalues --   -0.16905  -0.16905  -0.13344   0.55948   0.58420
 Alpha virt. eigenvalues --    0.58420   0.62269   0.65117   0.65117   0.65401
 Alpha virt. eigenvalues --    0.86437   1.17649   1.20098   1.20098   1.21379

 Mulliken charges:
               1
     1  N    0.000000
     2  N    0.000000
 Sum of Mulliken charges =   0.00000

 Dipole moment (field-independent basis, Debye):
    X=              0.0000    Y=             -0.0000    Z=              0.0000  Tot=              0.0000
 Quadrupole moment (field-independent basis, Debye-Ang):
   XX=            -12.2385   YY=            -12.2385   ZZ=            -10.2317
   XY=              0.0000   XZ=             -0.0000   YZ=              0.0000

 26.5295298\CCSD=-109.0302518\CCSD(T)=-109.5855276\RMSD=6.530e-09\PG=D*
 Normal termination of Gaussian 16 at Sat Feb 10 15:35:32 2024.
