 Gaussian 16, Revision A.03,
 Gaussian 16:  ES64L-G16RevA.03 25-Dec-2016

 ---------------------------------------------
 #p CCSD(T,MaxCyc=200)/cc-pVTZ SCF(MaxCyc=200)
 ---------------------------------------------

 -----
 N2_70
 -----
 Symbolic Z-matrix:
 Charge =  0 Multiplicity = 1

                         Standard orientation:
 ---------------------------------------------------------------------
 Center     Atomic      Atomic             Coordinates (Angstroms)
 Number     Number       Type             X           Y           Z
 ---------------------------------------------------------------------
      1          7           0        0.000000    0.000000    1.450000
      2          7           0        0.000000    0.000000   -1.450000
 ---------------------------------------------------------------------

 SCF Done:  E(RHF) =  -108.045623428     A.U. after    9 cycles
 E2 =    -0.1802449457D+01 EUMP2 =    -0.10984807288529D+03
 CCSD(T)
 CCSD(T)= -0.10953733439D+03

 The electronic state is 1-SGG.
 Alpha  occ. eigenvalues --  -15.82788 -15.82778  -1.04745  -1.02081  -0.38193
 Alpha  occ. eigenvalues --   -0.35238  -0.35238
 Alpha virt. eigenvalues --   -0.16249  -0.16249  -0.12031   0.58069   0.58069
 Alpha virt. eigenvalues --    0.58324   0.61473   0.65541   0.65680   0.65680
 Alpha virt. eigenvalues --    0.88193   1.15185   1.18885   1.18885   1.21208

 Mulliken charges:
               1
     1  N   -0.000000
     2  N   -0.000000
 Sum of Mulliken charges =  -0.00000

 Dipole moment (field-independent basis, Debye):
    X=             -0.0000    Y=              0.0000    Z=              0.0000  Tot=              0.0000
 Quadrupole moment (field-independent basis, Debye-Ang):
   XX=            -12.2588   YY=            -12.2588   ZZ=            -10.1464
   XY=              0.0000   XZ=             -0.0000   YZ=              0.0000

 0.7291259\CCSD=-109.023213\CCSD(T)=-109.5373344\RMSD=9.926e-10\PG=D*H
 Normal termination of Gaussian 16 at Sat Feb 10 15:34:47 2024.
