 Gaussian 16, Revision A.03,
 Gaussian 16:  ES64L-G16RevA.03 25-Dec-2016

 ---------------------------------------------
 #p CCSD(T,MaxCyc=200)/cc-pVTZ SCF(MaxCyc=200)
 ---------------------------------------------

 ----
 N2_8
 ----
 Symbolic Z-matrix:
 Charge =  0 Multiplicity = 1

                         Standard orientation:
 ---------------------------------------------------------------------
 Center     Atomic      Atomic             Coordinates (Angstroms)
 Number     Number       Type             X           Y           Z
 ---------------------------------------------------------------------
      1          7           0        0.000000    0.000000    0.520000
      2          7           0        0.000000    0.000000   -0.520000
 ---------------------------------------------------------------------

 SCF Done:  E(RHF) =  -108.983798046     A.U. after    9 cycles
 E2 =    -0.3588630893D+00 EUMP2 =    -0.10934266113570D+03
 CCSD(T)
 CCSD(T)= -0.10936153670D+03

 The electronic state is 1-SGG.
 Alpha  occ. eigenvalues --  -15.66065 -15.65556  -1.51208  -0.75829  -0.63814
 Alpha  occ. eigenvalues --   -0.63814  -0.63750
 Alpha virt. eigenvalues --    0.19109   0.19109   0.43050   0.55270   0.55270
 Alpha virt. eigenvalues --    0.55385   0.67840   0.74315   0.74315   0.94751
 Alpha virt. eigenvalues --    1.04591   1.04591   1.18031   1.38252   1.38252

 Mulliken charges:
               1
     1  N   -0.000000
     2  N   -0.000000
 Sum of Mulliken charges =  -0.00000

 Dipole moment (field-independent basis, Debye):
    X=             -0.0000    Y=              0.0000    Z=              0.0000  Tot=              0.0000
 Quadrupole moment (field-independent basis, Debye-Ang):
   XX=            -10.0610   YY=            -10.0610   ZZ=            -11.6156
   XY=              0.0000   XZ=              0.0000   YZ=             -0.0000

 .3465577\CCSD=-109.3451068\CCSD(T)=-109.3615367\RMSD=1.926e-09\PG=D*H
 Normal termination of Gaussian 16 at Sat Feb 10 15:28:39 2024.
