 Gaussian 16, Revision A.03,
 Gaussian 16:  ES64L-G16RevA.03 25-Dec-2016

 ---------------------------------------------
 #p CCSD(T,MaxCyc=200)/cc-pVTZ SCF(MaxCyc=200)
 ---------------------------------------------

 -----
 N2_82
 -----
 Symbolic Z-matrix:
 Charge =  0 Multiplicity = 1

                         Standard orientation:
 ---------------------------------------------------------------------
 Center     Atomic      Atomic             Coordinates (Angstroms)
 Number     Number       Type             X           Y           Z
 ---------------------------------------------------------------------
      1          7           0        0.000000    0.000000    1.630000
      2          7           0        0.000000    0.000000   -1.630000
 ---------------------------------------------------------------------

 SCF Done:  E(RHF) =  -107.982688741     A.U. after    8 cycles
 E2 =    -0.2224473506D+01 EUMP2 =    -0.11020716224686D+03
 CCSD(T)
 CCSD(T)= -0.10961996138D+03

 The electronic state is 1-SGG.
 Alpha  occ. eigenvalues --  -15.82222 -15.82215  -1.04035  -1.02443  -0.35804
 Alpha  occ. eigenvalues --   -0.33931  -0.33931
 Alpha virt. eigenvalues --   -0.17434  -0.17434  -0.14433   0.54379   0.58882
 Alpha virt. eigenvalues --    0.58882   0.62963   0.64532   0.64532   0.65438
 Alpha virt. eigenvalues --    0.84300   1.19403   1.20828   1.20828   1.21487

 Mulliken charges:
               1
     1  N    0.000000
     2  N    0.000000
 Sum of Mulliken charges =   0.00000

 Dipole moment (field-independent basis, Debye):
    X=              0.0000    Y=              0.0000    Z=             -0.0000  Tot=              0.0000
 Quadrupole moment (field-independent basis, Debye-Ang):
   XX=            -12.2185   YY=            -12.2185   ZZ=            -10.3682
   XY=              0.0000   XZ=             -0.0000   YZ=              0.0000

 34.1839696\CCSD=-109.0349841\CCSD(T)=-109.6199614\RMSD=3.993e-09\PG=D*
 Normal termination of Gaussian 16 at Sat Feb 10 15:36:16 2024.
