 Gaussian 16, Revision A.03,
 Gaussian 16:  ES64L-G16RevA.03 25-Dec-2016

 ---------------------------------------------
 #p CCSD(T,MaxCyc=200)/cc-pVTZ SCF(MaxCyc=200)
 ---------------------------------------------

 -----
 N2_80
 -----
 Symbolic Z-matrix:
 Charge =  0 Multiplicity = 1

                         Standard orientation:
 ---------------------------------------------------------------------
 Center     Atomic      Atomic             Coordinates (Angstroms)
 Number     Number       Type             X           Y           Z
 ---------------------------------------------------------------------
      1          7           0        0.000000    0.000000    1.600000
      2          7           0        0.000000    0.000000   -1.600000
 ---------------------------------------------------------------------

 SCF Done:  E(RHF) =  -107.991725809     A.U. after    8 cycles
 E2 =    -0.2152634887D+01 EUMP2 =    -0.11014436069641D+03
 CCSD(T)
 CCSD(T)= -0.10960974009D+03

 The electronic state is 1-SGG.
 Alpha  occ. eigenvalues --  -15.82320 -15.82313  -1.04134  -1.02408  -0.36153
 Alpha  occ. eigenvalues --   -0.34129  -0.34129
 Alpha virt. eigenvalues --   -0.17270  -0.17270  -0.14091   0.54803   0.58720
 Alpha virt. eigenvalues --    0.58720   0.62744   0.64726   0.64726   0.65415
 Alpha virt. eigenvalues --    0.85063   1.18899   1.20627   1.20627   1.21455

 Mulliken charges:
               1
     1  N    0.000000
     2  N    0.000000
 Sum of Mulliken charges =   0.00000

 Dipole moment (field-independent basis, Debye):
    X=              0.0000    Y=              0.0000    Z=             -0.0000  Tot=              0.0000
 Quadrupole moment (field-independent basis, Debye-Ang):
   XX=            -12.2250   YY=            -12.2250   ZZ=            -10.3173
   XY=              0.0000   XZ=             -0.0000   YZ=              0.0000

 1.407454\CCSD=-109.0336004\CCSD(T)=-109.6097401\RMSD=4.155e-09\PG=D*H
 Normal termination of Gaussian 16 at Sat Feb 10 15:36:00 2024.
