 Gaussian 16, Revision A.03,
 Gaussian 16:  ES64L-G16RevA.03 25-Dec-2016

 ---------------------------------------------
 #p CCSD(T,MaxCyc=200)/cc-pVTZ SCF(MaxCyc=200)
 ---------------------------------------------

 -----
 N2_89
 -----
 Symbolic Z-matrix:
 Charge =  0 Multiplicity = 1

                         Standard orientation:
 ---------------------------------------------------------------------
 Center     Atomic      Atomic             Coordinates (Angstroms)
 Number     Number       Type             X           Y           Z
 ---------------------------------------------------------------------
      1          7           0        0.000000    0.000000    1.735000
      2          7           0        0.000000    0.000000   -1.735000
 ---------------------------------------------------------------------

 SCF Done:  E(RHF) =  -107.954706230     A.U. after    8 cycles
 E2 =    -0.2479817034D+01 EUMP2 =    -0.11043452326427D+03
 CCSD(T)
 CCSD(T)= -0.10964795594D+03

 The electronic state is 1-SGG.
 Alpha  occ. eigenvalues --  -15.81872 -15.81866  -1.03729  -1.02510  -0.34710
 Alpha  occ. eigenvalues --   -0.33282  -0.33282
 Alpha virt. eigenvalues --   -0.17922  -0.17922  -0.15483   0.53645   0.59474
 Alpha virt. eigenvalues --    0.59474   0.63632   0.63884   0.63884   0.65562
 Alpha virt. eigenvalues --    0.81258   1.20630   1.21293   1.21293   1.21581

 Mulliken charges:
               1
     1  N   -0.000000
     2  N   -0.000000
 Sum of Mulliken charges =  -0.00000

 Dipole moment (field-independent basis, Debye):
    X=             -0.0000    Y=             -0.0000    Z=             -0.0000  Tot=              0.0000
 Quadrupole moment (field-independent basis, Debye-Ang):
   XX=            -12.1974   YY=            -12.1974   ZZ=            -10.5811
   XY=             -0.0000   XZ=             -0.0000   YZ=              0.0000

 45.8672848\CCSD=-109.038733\CCSD(T)=-109.6479559\RMSD=3.924e-09\PG=D*H
 Normal termination of Gaussian 16 at Sat Feb 10 15:37:08 2024.
