 Gaussian 16, Revision A.03,
 Gaussian 16:  ES64L-G16RevA.03 25-Dec-2016

 ---------------------------------------------
 #p CCSD(T,MaxCyc=200)/cc-pVTZ SCF(MaxCyc=200)
 ---------------------------------------------

 -----
 N2_97
 -----
 Symbolic Z-matrix:
 Charge =  0 Multiplicity = 1

                         Standard orientation:
 ---------------------------------------------------------------------
 Center     Atomic      Atomic             Coordinates (Angstroms)
 Number     Number       Type             X           Y           Z
 ---------------------------------------------------------------------
      1          7           0        0.000000    0.000000    1.855000
      2          7           0        0.000000    0.000000   -1.855000
 ---------------------------------------------------------------------

 SCF Done:  E(RHF) =  -107.928491570     A.U. after    8 cycles
 E2 =    -0.2777387509D+01 EUMP2 =    -0.11070587907969D+03
 CCSD(T)
 CCSD(T)= -0.10966909274D+03

 The electronic state is 1-SGG.
 Alpha  occ. eigenvalues --  -15.81475 -15.81471  -1.03427  -1.02503  -0.33660
 Alpha  occ. eigenvalues --   -0.32612  -0.32612
 Alpha virt. eigenvalues --   -0.18349  -0.18349  -0.16453   0.54019   0.60127
 Alpha virt. eigenvalues --    0.60127   0.63257   0.63257   0.64208   0.65756
 Alpha virt. eigenvalues --    0.77426   1.21317   1.21563   1.21563   1.21681

 Mulliken charges:
               1
     1  N    0.000000
     2  N    0.000000
 Sum of Mulliken charges =   0.00000

 Dipole moment (field-independent basis, Debye):
    X=              0.0000    Y=              0.0000    Z=              0.0000  Tot=              0.0000
 Quadrupole moment (field-independent basis, Debye-Ang):
   XX=            -12.1762   YY=            -12.1762   ZZ=            -10.8651
   XY=             -0.0000   XZ=             -0.0000   YZ=              0.0000

 3.4153116\CCSD=-109.0416195\CCSD(T)=-109.6690927\RMSD=5.361e-09\PG=D*H
 Normal termination of Gaussian 16 at Sat Feb 10 15:38:12 2024.
