 Gaussian 16, Revision A.03,
 Gaussian 16:  ES64L-G16RevA.03 25-Dec-2016

 ---------------------------------------------
 #p CCSD(T,MaxCyc=200)/cc-pVTZ SCF(MaxCyc=200)
 ---------------------------------------------

 -----
 N2_95
 -----
 Symbolic Z-matrix:
 Charge =  0 Multiplicity = 1

                         Standard orientation:
 ---------------------------------------------------------------------
 Center     Atomic      Atomic             Coordinates (Angstroms)
 Number     Number       Type             X           Y           Z
 ---------------------------------------------------------------------
      1          7           0        0.000000    0.000000    1.825000
      2          7           0        0.000000    0.000000   -1.825000
 ---------------------------------------------------------------------

 SCF Done:  E(RHF) =  -107.934545216     A.U. after    8 cycles
 E2 =    -0.2702565456D+01 EUMP2 =    -0.11063711067244D+03
 CCSD(T)
 CCSD(T)= -0.10966463393D+03

 The electronic state is 1-SGG.
 Alpha  occ. eigenvalues --  -15.81573 -15.81568  -1.03499  -1.02511  -0.33905
 Alpha  occ. eigenvalues --   -0.32773  -0.32773
 Alpha virt. eigenvalues --   -0.18253  -0.18253  -0.16231   0.53826   0.59970
 Alpha virt. eigenvalues --    0.59970   0.63400   0.63400   0.64083   0.65704
 Alpha virt. eigenvalues --    0.78385   1.21193   1.21511   1.21511   1.21656

 Mulliken charges:
               1
     1  N   -0.000000
     2  N   -0.000000
 Sum of Mulliken charges =  -0.00000

 Dipole moment (field-independent basis, Debye):
    X=             -0.0000    Y=              0.0000    Z=              0.0000  Tot=              0.0000
 Quadrupole moment (field-independent basis, Debye-Ang):
   XX=            -12.1812   YY=            -12.1812   ZZ=            -10.7923
   XY=             -0.0000   XZ=             -0.0000   YZ=              0.0000

 8.5767983\CCSD=-109.0409938\CCSD(T)=-109.6646339\RMSD=4.836e-09\PG=D*H
 Normal termination of Gaussian 16 at Sat Feb 10 15:37:57 2024.
