 Gaussian 16, Revision A.03,
 Gaussian 16:  ES64L-G16RevA.03 25-Dec-2016

 ---------------------------------------------
 #p CCSD(T,MaxCyc=200)/cc-pVTZ SCF(MaxCyc=200)
 ---------------------------------------------

 ----
 N2_9
 ----
 Symbolic Z-matrix:
 Charge =  0 Multiplicity = 1

                         Standard orientation:
 ---------------------------------------------------------------------
 Center     Atomic      Atomic             Coordinates (Angstroms)
 Number     Number       Type             X           Y           Z
 ---------------------------------------------------------------------
      1          7           0        0.000000    0.000000    0.535000
      2          7           0        0.000000    0.000000   -0.535000
 ---------------------------------------------------------------------

 SCF Done:  E(RHF) =  -108.986527723     A.U. after    9 cycles
 E2 =    -0.3663456176D+00 EUMP2 =    -0.10935287334069D+03
 CCSD(T)
 CCSD(T)= -0.10937071226D+03

 The electronic state is 1-SGG.
 Alpha  occ. eigenvalues --  -15.67168 -15.66749  -1.48993  -0.76835  -0.63488
 Alpha  occ. eigenvalues --   -0.62421  -0.62421
 Alpha virt. eigenvalues --    0.17575   0.17575   0.42812   0.55789   0.55789
 Alpha virt. eigenvalues --    0.55799   0.67514   0.73706   0.73706   0.93781
 Alpha virt. eigenvalues --    1.04699   1.04699   1.13019   1.36180   1.36180

 Mulliken charges:
               1
     1  N    0.000000
     2  N    0.000000
 Sum of Mulliken charges =   0.00000

 Dipole moment (field-independent basis, Debye):
    X=              0.0000    Y=              0.0000    Z=             -0.0000  Tot=              0.0000
 Quadrupole moment (field-independent basis, Debye-Ang):
   XX=            -10.1743   YY=            -10.1743   ZZ=            -11.6340
   XY=              0.0000   XZ=              0.0000   YZ=             -0.0000

 9.3550877\CCSD=-109.3532467\CCSD(T)=-109.3707123\RMSD=1.750e-09\PG=D*H
 Normal termination of Gaussian 16 at Sat Feb 10 15:28:44 2024.
