 Gaussian 16, Revision A.03,
 Gaussian 16:  ES64L-G16RevA.03 25-Dec-2016

 ---------------------------------------------
 #p CCSD(T,MaxCyc=200)/cc-pVTZ SCF(MaxCyc=200)
 ---------------------------------------------

 -----
 N2_90
 -----
 Symbolic Z-matrix:
 Charge =  0 Multiplicity = 1

                         Standard orientation:
 ---------------------------------------------------------------------
 Center     Atomic      Atomic             Coordinates (Angstroms)
 Number     Number       Type             X           Y           Z
 ---------------------------------------------------------------------
      1          7           0        0.000000    0.000000    1.750000
      2          7           0        0.000000    0.000000   -1.750000
 ---------------------------------------------------------------------

 SCF Done:  E(RHF) =  -107.951122053     A.U. after    8 cycles
 E2 =    -0.2516728451D+01 EUMP2 =    -0.11046785050440D+03
 CCSD(T)
 CCSD(T)= -0.10965113361D+03

 The electronic state is 1-SGG.
 Alpha  occ. eigenvalues --  -15.81822 -15.81816  -1.03689  -1.02513  -0.34568
 Alpha  occ. eigenvalues --   -0.33195  -0.33195
 Alpha virt. eigenvalues --   -0.17982  -0.17982  -0.15617   0.53628   0.59559
 Alpha virt. eigenvalues --    0.59559   0.63715   0.63798   0.63798   0.65584
 Alpha virt. eigenvalues --    0.80788   1.20748   1.21338   1.21338   1.21594

 Mulliken charges:
               1
     1  N    0.000000
     2  N    0.000000
 Sum of Mulliken charges =   0.00000

 Dipole moment (field-independent basis, Debye):
    X=              0.0000    Y=              0.0000    Z=             -0.0000  Tot=              0.0000
 Quadrupole moment (field-independent basis, Debye-Ang):
   XX=            -12.1945   YY=            -12.1945   ZZ=            -10.6150
   XY=             -0.0000   XZ=             -0.0000   YZ=              0.0000

 7.804207\CCSD=-109.0391589\CCSD(T)=-109.6511336\RMSD=3.945e-09\PG=D*H
 Normal termination of Gaussian 16 at Sat Feb 10 15:37:18 2024.
