                               Psi4 1.9 release

  ==> Input File <==

--------------------------------------------------------------------------
memory 5 gb

molecule {
0 1
O     -2.326000     0.000000     0.000000
C     -1.163000     0.000000     0.000000
O      0.000000     0.000000     0.000000
O      1.040000     0.000000     0.000000
C      2.203000     0.000000     0.000000
O      3.366000     0.000000     0.000000
}

set basis cc-pVTZ
E, wfn = energy('ccsd(t)', return_wfn=True)
oeprop(wfn,'MULLIKEN_CHARGES')

--------------------------------------------------------------------------

    Molecular point group: d2h

    Geometry (in Angstrom), charge = 0, multiplicity = 1:

       Center              X                  Y                   Z               Mass
    ------------   -----------------  -----------------  -----------------  -----------------
         O           -2.846000000000    -0.000000000000     0.000000000000    15.994914619570
         C           -1.683000000000    -0.000000000000     0.000000000000    12.000000000000
         O           -0.520000000000    -0.000000000000     0.000000000000    15.994914619570
         O            0.520000000000     0.000000000000     0.000000000000    15.994914619570
         C            1.683000000000     0.000000000000     0.000000000000    12.000000000000
         O            2.846000000000     0.000000000000     0.000000000000    15.994914619570

  Charge       = 0
  Multiplicity = 1
  Basis Set: CC-PVTZ
    Blend: CC-PVTZ

    Orbital Energies [Eh]
    ---------------------

    Doubly Occupied:

       1Ag   -20.860681     1B3u  -20.858999     2B3u  -20.589482
       2Ag   -20.589481     3Ag   -11.415143     3B3u  -11.415128
       4Ag    -1.996998     4B3u   -1.537723     5Ag    -1.448001
       5B3u   -1.431895     6Ag    -1.307294     1B2u   -1.033956
       1B1u   -1.031992     6B3u   -0.716389     7Ag    -0.714320
       1B1g   -0.711077     1B2g   -0.700155     2B2u   -0.612902
       2B1u   -0.575907     2B1g   -0.521533     2B2g   -0.500055
       3B2u   -0.128962

  @RHF Final Energy:  -374.46908003122599

   => Energetics <=

    Nuclear Repulsion Energy =            215.0570272756966403
    One-Electron Energy =                -937.6560720081804448
    Two-Electron Energy =                 348.1299647012577907
    Total Energy =                       -374.4690800312259853
 Dipole X            :          0.0000000            0.0000000            0.0000000
 Dipole Y            :          0.0000000            0.0000000            0.0000000
 Dipole Z            :          0.0000000            0.0000000            0.0000000
 Magnitude           :                                                    0.0000000
      * MP2 total energy                      = -375.829311336078661
      * CCSD total energy                     = -375.794060324775955
      * CCSD(T) total energy                  = -375.865941910096922

  Mulliken Charges: (a.u.)
   Center  Symbol    Alpha    Beta     Spin     Total
       1     O     4.17578  4.17578  0.00000 -0.35157
       2     C     2.95011  2.95011  0.00000  0.09977
       3     O     3.87410  3.87410  0.00000  0.25179
       4     O     3.87410  3.87410  0.00000  0.25179
       5     C     2.95011  2.95011  0.00000  0.09977
       6     O     4.17578  4.17578  0.00000 -0.35157

   Total alpha = 22.00000, Total beta = 22.00000, Total charge =  0.00000

*** Psi4 exiting successfully. Buy a developer a beer!
