                               Psi4 1.9.1 release

  ==> Input File <==

--------------------------------------------------------------------------
memory 5 gb

molecule {
0 1
O     -2.326000     0.000000     0.000000
C     -1.163000     0.000000     0.000000
O      0.000000     0.000000     0.000000
O      0.000000     2.000000     0.000000
C      0.000000     3.163000     0.000000
O      0.000000     4.326000     0.000000
}

set basis cc-pVTZ
E, wfn = energy('ccsd(t)', return_wfn=True)
oeprop(wfn,'MULLIKEN_CHARGES')

--------------------------------------------------------------------------

    Molecular point group: cs

    Geometry (in Angstrom), charge = 0, multiplicity = 1:

       Center              X                  Y                   Z               Mass
    ------------   -----------------  -----------------  -----------------  -----------------
         O           -1.744500000000    -1.581500000000     0.000000000000    15.994914619570
         C           -0.581500000000    -1.581500000000     0.000000000000    12.000000000000
         O            0.581500000000    -1.581500000000     0.000000000000    15.994914619570
         O            0.581500000000     0.418500000000     0.000000000000    15.994914619570
         C            0.581500000000     1.581500000000     0.000000000000    12.000000000000
         O            0.581500000000     2.744500000000     0.000000000000    15.994914619570

  Charge       = 0
  Multiplicity = 1
  Basis Set: CC-PVTZ
    Blend: CC-PVTZ

    Orbital Energies [Eh]
    ---------------------

    Doubly Occupied:

       1Ap   -20.655586     2Ap   -20.646998     3Ap   -20.637932
       4Ap   -20.622662     5Ap   -11.462556     6Ap   -11.443205
       7Ap    -1.538368     8Ap    -1.514213     9Ap    -1.482606
      10Ap    -1.458288    11Ap    -0.837648    12Ap    -0.786694
      13Ap    -0.765796    14Ap    -0.731183     1App   -0.722071
      15Ap    -0.713057     2App   -0.696661    16Ap    -0.664113
       3App   -0.553221    17Ap    -0.548381     4App   -0.523225
      18Ap    -0.511445

  @RHF Final Energy:  -375.36582734256797

   => Energetics <=

    Nuclear Repulsion Energy =            195.9828296964641368
    One-Electron Energy =                -903.6654985764246248
    Two-Electron Energy =                 332.3168415373925200
    Total Energy =                       -375.3658273425679681
 Dipole X            :          0.1185955            0.0000000            0.1185955
 Dipole Y            :          0.1179485           -0.0000000            0.1179485
 Dipole Z            :          0.0000000            0.0000000            0.0000000
 Magnitude           :                                                    0.1672625
      * MP2 total energy                      = -376.661838539806240
      * CCSD total energy                     = -376.640104812470042
      * CCSD(T) total energy                  = -376.699671751090818

  Mulliken Charges: (a.u.)
   Center  Symbol    Alpha    Beta     Spin     Total
       1     O     4.14315  4.14315  0.00000 -0.28631
       2     C     2.73492  2.73492  0.00000  0.53016
       3     O     4.12833  4.12833  0.00000 -0.25665
       4     O     4.11699  4.11699  0.00000 -0.23397
       5     C     2.73472  2.73472  0.00000  0.53056
       6     O     4.14190  4.14190  0.00000 -0.28379

   Total alpha = 22.00000, Total beta = 22.00000, Total charge =  0.00000

*** Psi4 exiting successfully. Buy a developer a beer!
