                               Psi4 1.9.1 release

  ==> Input File <==

--------------------------------------------------------------------------
memory 5 gb

molecule {
0 1
O     -2.326000     0.000000     0.000000
C     -1.163000     0.000000     0.000000
O      0.000000     0.000000     0.000000
O      1.560000     0.000000     0.000000
C      2.723000     0.000000     0.000000
O      3.886000     0.000000     0.000000
}

set basis cc-pVTZ
E, wfn = energy('ccsd(t)', return_wfn=True)
oeprop(wfn,'MULLIKEN_CHARGES')

--------------------------------------------------------------------------

    Molecular point group: d2h

    Geometry (in Angstrom), charge = 0, multiplicity = 1:

       Center              X                  Y                   Z               Mass
    ------------   -----------------  -----------------  -----------------  -----------------
         O           -3.106000000000    -0.000000000000     0.000000000000    15.994914619570
         C           -1.943000000000    -0.000000000000     0.000000000000    12.000000000000
         O           -0.780000000000    -0.000000000000     0.000000000000    15.994914619570
         O            0.780000000000     0.000000000000     0.000000000000    15.994914619570
         C            1.943000000000     0.000000000000     0.000000000000    12.000000000000
         O            3.106000000000     0.000000000000     0.000000000000    15.994914619570

  Charge       = 0
  Multiplicity = 1
  Basis Set: CC-PVTZ
    Blend: CC-PVTZ

    Orbital Energies [Eh]
    ---------------------

    Doubly Occupied:

       1B3u  -20.634570     1Ag   -20.634569     2Ag   -20.611045
       2B3u  -20.611043     3B3u  -11.431083     3Ag   -11.431079
       4Ag    -1.538631     4B3u   -1.504466     5Ag    -1.476639
       5B3u   -1.443548     6Ag    -0.957009     6B3u   -0.761303
       7Ag    -0.752638     1B2u   -0.716122     1B1u   -0.716122
       1B1g   -0.685426     1B2g   -0.685426     2B1u   -0.557363
       2B2u   -0.557363     7B3u   -0.518063     2B1g   -0.499287
       2B2g   -0.499287

  @RHF Final Energy:  -375.21897632694186

   => Energetics <=

    Nuclear Repulsion Energy =            194.6950581521416552
    One-Electron Energy =                -901.3839046671246251
    Two-Electron Energy =                 331.4698701880411136
    Total Energy =                       -375.2189763269418563
 Dipole X            :          0.0000000            0.0000000            0.0000000
 Dipole Y            :          0.0000000            0.0000000            0.0000000
 Dipole Z            :          0.0000000            0.0000000            0.0000000
 Magnitude           :                                                    0.0000000
      * MP2 total energy                      = -376.530088560569993
      * CCSD total energy                     = -376.503725027559483
      * CCSD(T) total energy                  = -376.564660797737758

  Mulliken Charges: (a.u.)
   Center  Symbol    Alpha    Beta     Spin     Total
       1     O     4.15972  4.15972  0.00000 -0.31945
       2     C     2.74222  2.74222  0.00000  0.51555
       3     O     4.09805  4.09805  0.00000 -0.19611
       4     O     4.09805  4.09805  0.00000 -0.19611
       5     C     2.74222  2.74222  0.00000  0.51555
       6     O     4.15972  4.15972  0.00000 -0.31945

   Total alpha = 22.00000, Total beta = 22.00000, Total charge =  0.00000

*** Psi4 exiting successfully. Buy a developer a beer!
