                               Psi4 1.9.1 release

  ==> Input File <==

--------------------------------------------------------------------------
memory 5 gb

molecule {
0 1
O     -2.326000     0.000000     0.000000
C     -1.163000     0.000000     0.000000
O      0.000000     0.000000     0.000000
O      0.000000     2.120000     0.000000
C      0.000000     3.283000     0.000000
O      0.000000     4.446000     0.000000
}

set basis cc-pVTZ
E, wfn = energy('ccsd(t)', return_wfn=True)
oeprop(wfn,'MULLIKEN_CHARGES')

--------------------------------------------------------------------------

    Molecular point group: cs

    Geometry (in Angstrom), charge = 0, multiplicity = 1:

       Center              X                  Y                   Z               Mass
    ------------   -----------------  -----------------  -----------------  -----------------
         O           -1.744500000000    -1.641500000000     0.000000000000    15.994914619570
         C           -0.581500000000    -1.641500000000     0.000000000000    12.000000000000
         O            0.581500000000    -1.641500000000     0.000000000000    15.994914619570
         O            0.581500000000     0.478500000000     0.000000000000    15.994914619570
         C            0.581500000000     1.641500000000     0.000000000000    12.000000000000
         O            0.581500000000     2.804500000000     0.000000000000    15.994914619570

  Charge       = 0
  Multiplicity = 1
  Basis Set: CC-PVTZ
    Blend: CC-PVTZ

    Orbital Energies [Eh]
    ---------------------

    Doubly Occupied:

       1Ap   -20.655475     2Ap   -20.649540     3Ap   -20.638894
       4Ap   -20.627041     5Ap   -11.463493     6Ap   -11.445092
       7Ap    -1.536203     8Ap    -1.515053     9Ap    -1.481886
      10Ap    -1.460363    11Ap    -0.827034    12Ap    -0.787074
      13Ap    -0.763050    14Ap    -0.730075     1App   -0.720563
      15Ap    -0.715279     2App   -0.698480    16Ap    -0.673412
       3App   -0.551408    17Ap    -0.548472     4App   -0.526148
      18Ap    -0.519298

  @RHF Final Energy:  -375.38325262257354

   => Energetics <=

    Nuclear Repulsion Energy =            193.1375421394267846
    One-Electron Energy =                -897.9749282002201198
    Two-Electron Energy =                 329.4541334382197419
    Total Energy =                       -375.3832526225735364
 Dipole X            :          0.1021666            0.0000000            0.1021666
 Dipole Y            :          0.1069165            0.0000000            0.1069165
 Dipole Z            :          0.0000000            0.0000000            0.0000000
 Magnitude           :                                                    0.1478822
      * MP2 total energy                      = -376.676553758269790
      * CCSD total energy                     = -376.655528001317577
      * CCSD(T) total energy                  = -376.714769746197305

  Mulliken Charges: (a.u.)
   Center  Symbol    Alpha    Beta     Spin     Total
       1     O     4.14235  4.14235  0.00000 -0.28470
       2     C     2.73282  2.73282  0.00000  0.53437
       3     O     4.13024  4.13024  0.00000 -0.26048
       4     O     4.11867  4.11867  0.00000 -0.23733
       5     C     2.73443  2.73443  0.00000  0.53113
       6     O     4.14149  4.14149  0.00000 -0.28299

   Total alpha = 22.00000, Total beta = 22.00000, Total charge =  0.00000

*** Psi4 exiting successfully. Buy a developer a beer!
