                               Psi4 1.9 release

  ==> Input File <==

--------------------------------------------------------------------------
memory 5 gb

molecule {
0 1
O     -2.326000     0.000000     0.000000
C     -1.163000     0.000000     0.000000
O      0.000000     0.000000     0.000000
O      1.200000     0.000000     0.000000
C      2.363000     0.000000     0.000000
O      3.526000     0.000000     0.000000
}

set basis cc-pVTZ
E, wfn = energy('ccsd(t)', return_wfn=True)
oeprop(wfn,'MULLIKEN_CHARGES')

--------------------------------------------------------------------------

    Molecular point group: d2h

    Geometry (in Angstrom), charge = 0, multiplicity = 1:

       Center              X                  Y                   Z               Mass
    ------------   -----------------  -----------------  -----------------  -----------------
         O           -2.926000000000    -0.000000000000     0.000000000000    15.994914619570
         C           -1.763000000000    -0.000000000000     0.000000000000    12.000000000000
         O           -0.600000000000    -0.000000000000     0.000000000000    15.994914619570
         O            0.600000000000     0.000000000000     0.000000000000    15.994914619570
         C            1.763000000000     0.000000000000     0.000000000000    12.000000000000
         O            2.926000000000     0.000000000000     0.000000000000    15.994914619570

  Charge       = 0
  Multiplicity = 1
  Basis Set: CC-PVTZ
    Blend: CC-PVTZ

    Orbital Energies [Eh]
    ---------------------

    Doubly Occupied:

       1Ag   -20.637101     1B3u  -20.636685     2B3u  -20.622975
       2Ag   -20.622973     3B3u  -11.405766     3Ag   -11.405757
       4Ag    -1.688174     4B3u   -1.491712     5Ag    -1.474504
       5B3u   -1.431499     6Ag    -1.124368     1B2u   -0.791018
       1B1u   -0.791018     6B3u   -0.751250     7Ag    -0.746019
       1B1g   -0.668501     1B2g   -0.668501     2B1u   -0.586136
       2B2u   -0.586136     2B1g   -0.472373     2B2g   -0.472373
       7B3u   -0.232824

  @RHF Final Energy:  -374.73718641645928

   => Energetics <=

    Nuclear Repulsion Energy =            207.4382828539339414
    One-Electron Energy =                -925.7356135155503125
    Two-Electron Energy =                 343.5601442451570620
    Total Energy =                       -374.7371864164592807
 Dipole X            :          0.0000000            0.0000000            0.0000000
 Dipole Y            :          0.0000000            0.0000000            0.0000000
 Dipole Z            :          0.0000000            0.0000000            0.0000000
 Magnitude           :                                                    0.0000000
      * MP2 total energy                      = -376.112096106105867
      * CCSD total energy                     = -376.064062932802699
      * CCSD(T) total energy                  = -376.136133458902407

  Mulliken Charges: (a.u.)
   Center  Symbol    Alpha    Beta     Spin     Total
       1     O     4.14441  4.14441  0.00000 -0.28882
       2     C     2.78780  2.78780  0.00000  0.42439
       3     O     4.06779  4.06779  0.00000 -0.13558
       4     O     4.06779  4.06779  0.00000 -0.13558
       5     C     2.78780  2.78780  0.00000  0.42439
       6     O     4.14441  4.14441  0.00000 -0.28882

   Total alpha = 22.00000, Total beta = 22.00000, Total charge = -0.00000

*** Psi4 exiting successfully. Buy a developer a beer!
