                               Psi4 1.9 release

  ==> Input File <==

--------------------------------------------------------------------------
memory 5 gb

molecule {
0 1
O     -2.326000     0.000000     0.000000
C     -1.163000     0.000000     0.000000
O      0.000000     0.000000     0.000000
O      0.000000     1.240000     0.000000
C      0.000000     2.403000     0.000000
O      0.000000     3.566000     0.000000
}

set basis cc-pVTZ
E, wfn = energy('ccsd(t)', return_wfn=True)
oeprop(wfn,'MULLIKEN_CHARGES')

--------------------------------------------------------------------------

    Molecular point group: cs

    Geometry (in Angstrom), charge = 0, multiplicity = 1:

       Center              X                  Y                   Z               Mass
    ------------   -----------------  -----------------  -----------------  -----------------
         O           -1.744500000000    -1.201500000000     0.000000000000    15.994914619570
         C           -0.581500000000    -1.201500000000     0.000000000000    12.000000000000
         O            0.581500000000    -1.201500000000     0.000000000000    15.994914619570
         O            0.581500000000     0.038500000000     0.000000000000    15.994914619570
         C            0.581500000000     1.201500000000     0.000000000000    12.000000000000
         O            0.581500000000     2.364500000000     0.000000000000    15.994914619570

  Charge       = 0
  Multiplicity = 1
  Basis Set: CC-PVTZ
    Blend: CC-PVTZ

    Orbital Energies [Eh]
    ---------------------

    Doubly Occupied:

       1Ap   -20.694825     2Ap   -20.682538     3Ap   -20.657340
       4Ap   -20.609896     5Ap   -11.454572     6Ap   -11.395874
       7Ap    -1.771867     8Ap    -1.517246     9Ap    -1.468941
      10Ap    -1.448280    11Ap    -1.033577    12Ap    -0.902830
       1App   -0.842661    13Ap    -0.777137    14Ap    -0.731017
      15Ap    -0.703014     2App   -0.685608    16Ap    -0.614515
       3App   -0.587497    17Ap    -0.550812     4App   -0.506354
      18Ap    -0.216127

  @RHF Final Energy:  -374.73721086582134

   => Energetics <=

    Nuclear Repulsion Energy =            221.1098799838575815
    One-Electron Energy =                -951.9891203276198439
    Two-Electron Energy =                 356.1420294779409232
    Total Energy =                       -374.7372108658213392
 Dipole X            :          0.6753025            0.0000000            0.6753025
 Dipole Y            :          0.3492795            0.0000000            0.3492795
 Dipole Z            :          0.0000000            0.0000000            0.0000000
 Magnitude           :                                                    0.7602826
      * MP2 total energy                      = -376.111719150094586
      * CCSD total energy                     = -376.065780357781421
      * CCSD(T) total energy                  = -376.137413547571271

  Mulliken Charges: (a.u.)
   Center  Symbol    Alpha    Beta     Spin     Total
       1     O     4.14734  4.14734  0.00000 -0.29469
       2     C     2.88223  2.88223  0.00000  0.23555
       3     O     4.00687  4.00687  0.00000 -0.01374
       4     O     4.05069  4.05069  0.00000 -0.10138
       5     C     2.79171  2.79171  0.00000  0.41658
       6     O     4.12116  4.12116  0.00000 -0.24231

   Total alpha = 22.00000, Total beta = 22.00000, Total charge =  0.00000

*** Psi4 exiting successfully. Buy a developer a beer!
