                               Psi4 1.9 release

  ==> Input File <==

--------------------------------------------------------------------------
memory 5 gb

molecule {
0 1
O     -2.326000     0.000000     0.000000
C     -1.163000     0.000000     0.000000
O      0.000000     0.000000     0.000000
O      0.000000     1.360000     0.000000
C      0.000000     2.523000     0.000000
O      0.000000     3.686000     0.000000
}

set basis cc-pVTZ
E, wfn = energy('ccsd(t)', return_wfn=True)
oeprop(wfn,'MULLIKEN_CHARGES')

--------------------------------------------------------------------------

    Molecular point group: cs

    Geometry (in Angstrom), charge = 0, multiplicity = 1:

       Center              X                  Y                   Z               Mass
    ------------   -----------------  -----------------  -----------------  -----------------
         O           -1.744500000000    -1.261500000000     0.000000000000    15.994914619570
         C           -0.581500000000    -1.261500000000     0.000000000000    12.000000000000
         O            0.581500000000    -1.261500000000     0.000000000000    15.994914619570
         O            0.581500000000     0.098500000000     0.000000000000    15.994914619570
         C            0.581500000000     1.261500000000     0.000000000000    12.000000000000
         O            0.581500000000     2.424500000000     0.000000000000    15.994914619570

  Charge       = 0
  Multiplicity = 1
  Basis Set: CC-PVTZ
    Blend: CC-PVTZ

    Orbital Energies [Eh]
    ---------------------

    Doubly Occupied:

       1Ap   -20.652365     2Ap   -20.639585     3Ap   -20.628183
       4Ap   -20.628119     5Ap   -11.442808     6Ap   -11.423940
       7Ap    -1.660022     8Ap    -1.511026     9Ap    -1.481197
      10Ap    -1.439944    11Ap    -0.971611    12Ap    -0.841077
       1App   -0.777234    13Ap    -0.771339    14Ap    -0.744381
      15Ap    -0.692745     2App   -0.682619    16Ap    -0.619583
       3App   -0.583124    17Ap    -0.541667     4App   -0.498010
      18Ap    -0.308373

  @RHF Final Energy:  -374.94383216863508

   => Energetics <=

    Nuclear Repulsion Energy =            216.0060434004335548
    One-Electron Energy =                -942.8218460385919570
    Two-Electron Energy =                 351.8719704695233190
    Total Energy =                       -374.9438321686350832
 Dipole X            :          0.3706493            0.0000000            0.3706493
 Dipole Y            :          0.2098189           -0.0000000            0.2098189
 Dipole Z            :          0.0000000            0.0000000            0.0000000
 Magnitude           :                                                    0.4259165
      * MP2 total energy                      = -376.293174921981063
      * CCSD total energy                     = -376.254867850586891
      * CCSD(T) total energy                  = -376.321647998606238

  Mulliken Charges: (a.u.)
   Center  Symbol    Alpha    Beta     Spin     Total
       1     O     4.14572  4.14572  0.00000 -0.29144
       2     C     2.79720  2.79720  0.00000  0.40560
       3     O     4.06426  4.06426  0.00000 -0.12852
       4     O     4.09474  4.09474  0.00000 -0.18948
       5     C     2.75790  2.75790  0.00000  0.48419
       6     O     4.14018  4.14018  0.00000 -0.28036

   Total alpha = 22.00000, Total beta = 22.00000, Total charge =  0.00000

*** Psi4 exiting successfully. Buy a developer a beer!
