                               Psi4 1.9.1 release

  ==> Input File <==

--------------------------------------------------------------------------
memory 5 gb

molecule {
0 1
O     -2.326000     0.000000     0.000000
C     -1.163000     0.000000     0.000000
O      0.000000     0.000000     0.000000
O      1.499066     1.499066     0.000000
C      2.321432     2.321432     0.000000
O      3.143797     3.143797     0.000000
}

set basis cc-pVTZ
E, wfn = energy('ccsd(t)', return_wfn=True)
oeprop(wfn,'MULLIKEN_CHARGES')

--------------------------------------------------------------------------

    Molecular point group: cs

    Geometry (in Angstrom), charge = 0, multiplicity = 1:

       Center              X                  Y                   Z               Mass
    ------------   -----------------  -----------------  -----------------  -----------------
         O           -2.905215818198    -1.160715818198     0.000000000000    15.994914619570
         C           -1.742215818198    -1.160715818198     0.000000000000    12.000000000000
         O           -0.579215818198    -1.160715818198     0.000000000000    15.994914619570
         O            0.919850181802     0.338350181802     0.000000000000    15.994914619570
         C            1.742216181802     1.160716181802     0.000000000000    12.000000000000
         O            2.564581181802     1.983081181802     0.000000000000    15.994914619570

  Charge       = 0
  Multiplicity = 1
  Basis Set: CC-PVTZ
    Blend: CC-PVTZ

    Orbital Energies [Eh]
    ---------------------

    Doubly Occupied:

       1Ap   -20.644808     2Ap   -20.640045     3Ap   -20.638308
       4Ap   -20.634362     5Ap   -11.451604     6Ap   -11.447383
       7Ap    -1.524360     8Ap    -1.516914     9Ap    -1.471897
      10Ap    -1.462516    11Ap    -0.830967    12Ap    -0.777114
      13Ap    -0.752337    14Ap    -0.715161     1App   -0.709559
      15Ap    -0.704642     2App   -0.700806    16Ap    -0.682495
       3App   -0.542875    17Ap    -0.539356     4App   -0.526312
      18Ap    -0.523944

  @RHF Final Energy:  -375.38833837640749

   => Energetics <=

    Nuclear Repulsion Energy =            183.9411962606815791
    One-Electron Energy =                -879.7835381636814418
    Two-Electron Energy =                 320.4540035265923166
    Total Energy =                       -375.3883383764074892
 Dipole X            :          0.0575147           -0.0000000            0.0575147
 Dipole Y            :         -0.0147879           -0.0000000           -0.0147879
 Dipole Z            :          0.0000000            0.0000000            0.0000000
 Magnitude           :                                                    0.0593854
      * MP2 total energy                      = -376.680419936061128
      * CCSD total energy                     = -376.659475083193286
      * CCSD(T) total energy                  = -376.718464615826235

  Mulliken Charges: (a.u.)
   Center  Symbol    Alpha    Beta     Spin     Total
       1     O     4.14269  4.14269  0.00000 -0.28539
       2     C     2.73663  2.73663  0.00000  0.52675
       3     O     4.12216  4.12216  0.00000 -0.24433
       4     O     4.11141  4.11141  0.00000 -0.22282
       5     C     2.74007  2.74007  0.00000  0.51987
       6     O     4.14704  4.14704  0.00000 -0.29409

   Total alpha = 22.00000, Total beta = 22.00000, Total charge =  0.00000

*** Psi4 exiting successfully. Buy a developer a beer!
