                               Psi4 1.9.1 release

  ==> Input File <==

--------------------------------------------------------------------------
memory 5 gb

molecule {
0 1
O     -2.326000     0.000000     0.000000
C     -1.163000     0.000000     0.000000
O      0.000000     0.000000     0.000000
O      1.074802     1.074802     0.000000
C      1.897167     1.897167     0.000000
O      2.719533     2.719533     0.000000
}

set basis cc-pVTZ
E, wfn = energy('ccsd(t)', return_wfn=True)
oeprop(wfn,'MULLIKEN_CHARGES')

--------------------------------------------------------------------------

    Molecular point group: cs

    Geometry (in Angstrom), charge = 0, multiplicity = 1:

       Center              X                  Y                   Z               Mass
    ------------   -----------------  -----------------  -----------------  -----------------
         O           -2.693083681802    -0.948583681802     0.000000000000    15.994914619570
         C           -1.530083681802    -0.948583681802     0.000000000000    12.000000000000
         O           -0.367083681802    -0.948583681802     0.000000000000    15.994914619570
         O            0.707718318198     0.126218318198     0.000000000000    15.994914619570
         C            1.530083318198     0.948583318198     0.000000000000    12.000000000000
         O            2.352449318198     1.770949318198     0.000000000000    15.994914619570

  Charge       = 0
  Multiplicity = 1
  Basis Set: CC-PVTZ
    Blend: CC-PVTZ

    Orbital Energies [Eh]
    ---------------------

    Doubly Occupied:

       1Ap   -20.642491     2Ap   -20.623980     3Ap   -20.622025
       4Ap   -20.620475     5Ap   -11.439815     6Ap   -11.423812
       7Ap    -1.556738     8Ap    -1.505598     9Ap    -1.478020
      10Ap    -1.443145    11Ap    -0.962633    12Ap    -0.766298
      13Ap    -0.751547    14Ap    -0.731252     1App   -0.726569
      15Ap    -0.688918     2App   -0.685186    16Ap    -0.600955
       3App   -0.564052    17Ap    -0.532389     4App   -0.500582
      18Ap    -0.433479

  @RHF Final Energy:  -375.18673518888943

   => Energetics <=

    Nuclear Repulsion Energy =            198.8088247254348175
    One-Electron Energy =                -909.3911988423246839
    Two-Electron Energy =                 335.3956389280004942
    Total Energy =                       -375.1867351888894291
 Dipole X            :          0.2283342            0.0000000            0.2283342
 Dipole Y            :          0.0363927            0.0000000            0.0363927
 Dipole Z            :          0.0000000            0.0000000            0.0000000
 Magnitude           :                                                    0.2312162
      * MP2 total energy                      = -376.505307757966079
      * CCSD total energy                     = -376.476012125881823
      * CCSD(T) total energy                  = -376.538021335730548

  Mulliken Charges: (a.u.)
   Center  Symbol    Alpha    Beta     Spin     Total
       1     O     4.15424  4.15424  0.00000 -0.30849
       2     C     2.75492  2.75492  0.00000  0.49017
       3     O     4.09745  4.09745  0.00000 -0.19491
       4     O     4.09861  4.09861  0.00000 -0.19722
       5     C     2.74042  2.74042  0.00000  0.51916
       6     O     4.15436  4.15436  0.00000 -0.30871

   Total alpha = 22.00000, Total beta = 22.00000, Total charge =  0.00000

*** Psi4 exiting successfully. Buy a developer a beer!
