                               Psi4 1.9 release

  ==> Input File <==

--------------------------------------------------------------------------
memory 5 gb

molecule {
0 1
O     -2.326000     0.000000     0.000000
C     -1.163000     0.000000     0.000000
O      0.000000     0.000000     0.000000
O      0.000000     1.000000     0.000000
C      0.000000     2.163000     0.000000
O      0.000000     3.326000     0.000000
}

set basis cc-pVTZ
E, wfn = energy('ccsd(t)', return_wfn=True)
oeprop(wfn,'MULLIKEN_CHARGES')

--------------------------------------------------------------------------

    Molecular point group: cs

    Geometry (in Angstrom), charge = 0, multiplicity = 1:

       Center              X                  Y                   Z               Mass
    ------------   -----------------  -----------------  -----------------  -----------------
         O           -1.744500000000    -1.081500000000     0.000000000000    15.994914619570
         C           -0.581500000000    -1.081500000000     0.000000000000    12.000000000000
         O            0.581500000000    -1.081500000000     0.000000000000    15.994914619570
         O            0.581500000000    -0.081500000000     0.000000000000    15.994914619570
         C            0.581500000000     1.081500000000     0.000000000000    12.000000000000
         O            0.581500000000     2.244500000000     0.000000000000    15.994914619570

  Charge       = 0
  Multiplicity = 1
  Basis Set: CC-PVTZ
    Blend: CC-PVTZ

    Orbital Energies [Eh]
    ---------------------

    Doubly Occupied:

       1Ap   -20.864439     2Ap   -20.821209     3Ap   -20.604601
       4Ap   -20.594873     5Ap   -11.432076     6Ap   -11.354344
       7Ap    -2.125505     8Ap    -1.516850     9Ap    -1.447454
      10Ap    -1.438998    11Ap    -1.233448     1App   -1.073288
      12Ap    -1.066472    13Ap    -0.728337    14Ap    -0.720018
      15Ap    -0.712420     2App   -0.672161    16Ap    -0.620349
       3App   -0.575520    17Ap    -0.546593     4App   -0.497757
      18Ap    -0.154667

  @RHF Final Energy:  -374.36168961810506

   => Energetics <=

    Nuclear Repulsion Energy =            233.5202722601208620
    One-Electron Energy =                -974.1611642099931032
    Two-Electron Energy =                 366.2792023317671237
    Total Energy =                       -374.3616896181050606
 Dipole X            :          0.8909588            0.0000000            0.8909588
 Dipole Y            :         -0.8061859           -0.0000000           -0.8061859
 Dipole Z            :          0.0000000            0.0000000            0.0000000
 Magnitude           :                                                    1.2015587
      * MP2 total energy                      = -375.709584488192547
      * CCSD total energy                     = -375.681808794369886
      * CCSD(T) total energy                  = -375.750717869084895

  Mulliken Charges: (a.u.)
   Center  Symbol    Alpha    Beta     Spin     Total
       1     O     4.15897  4.15897  0.00000 -0.31794
       2     C     2.96196  2.96196  0.00000  0.07608
       3     O     3.97561  3.97561  0.00000  0.04878
       4     O     3.78410  3.78410  0.00000  0.43181
       5     C     2.95301  2.95301  0.00000  0.09398
       6     O     4.16636  4.16636  0.00000 -0.33272

   Total alpha = 22.00000, Total beta = 22.00000, Total charge =  0.00000

*** Psi4 exiting successfully. Buy a developer a beer!
