                               Psi4 1.9.1 release

  ==> Input File <==

--------------------------------------------------------------------------
memory 5 gb

molecule {
0 1
O     -2.326000     0.000000     0.000000
C     -1.163000     0.000000     0.000000
O      0.000000     0.000000     0.000000
O      2.080000     0.000000     0.000000
C      3.243000     0.000000     0.000000
O      4.406000     0.000000     0.000000
}

set basis cc-pVTZ
E, wfn = energy('ccsd(t)', return_wfn=True)
oeprop(wfn,'MULLIKEN_CHARGES')

--------------------------------------------------------------------------

    Molecular point group: d2h

    Geometry (in Angstrom), charge = 0, multiplicity = 1:

       Center              X                  Y                   Z               Mass
    ------------   -----------------  -----------------  -----------------  -----------------
         O           -3.366000000000    -0.000000000000     0.000000000000    15.994914619570
         C           -2.203000000000    -0.000000000000     0.000000000000    12.000000000000
         O           -1.040000000000    -0.000000000000     0.000000000000    15.994914619570
         O            1.040000000000     0.000000000000     0.000000000000    15.994914619570
         C            2.203000000000     0.000000000000     0.000000000000    12.000000000000
         O            3.366000000000     0.000000000000     0.000000000000    15.994914619570

  Charge       = 0
  Multiplicity = 1
  Basis Set: CC-PVTZ
    Blend: CC-PVTZ

    Orbital Energies [Eh]
    ---------------------

    Doubly Occupied:

       1B3u  -20.641387     1Ag   -20.641386     2B3u  -20.633738
       2Ag   -20.633728     3B3u  -11.447567     3Ag   -11.447565
       4Ag    -1.522058     4B3u   -1.516324     5Ag    -1.469954
       5B3u   -1.461614     6Ag    -0.839884     6B3u   -0.773214
       7Ag    -0.752258     1B2u   -0.707529     1B1u   -0.707529
       1B1g   -0.699865     1B2g   -0.699865     7B3u   -0.674262
       2B2u   -0.541558     2B1u   -0.541558     2B1g   -0.524417
       2B2g   -0.524417

  @RHF Final Energy:  -375.38580372694952

   => Energetics <=

    Nuclear Repulsion Energy =            182.2798082000223587
    One-Electron Energy =                -876.5278725843181746
    Two-Electron Energy =                 318.8622606573463258
    Total Energy =                       -375.3858037269495185
 Dipole X            :          0.0000000            0.0000000            0.0000000
 Dipole Y            :          0.0000000            0.0000000            0.0000000
 Dipole Z            :          0.0000000            0.0000000            0.0000000
 Magnitude           :                                                    0.0000000
      * MP2 total energy                      = -376.678349102792140
      * CCSD total energy                     = -376.657493012284021
      * CCSD(T) total energy                  = -376.716417480567713

  Mulliken Charges: (a.u.)
   Center  Symbol    Alpha    Beta     Spin     Total
       1     O     4.14962  4.14962  0.00000 -0.29924
       2     C     2.74255  2.74255  0.00000  0.51491
       3     O     4.10783  4.10783  0.00000 -0.21566
       4     O     4.10783  4.10783  0.00000 -0.21566
       5     C     2.74255  2.74255  0.00000  0.51491
       6     O     4.14962  4.14962  0.00000 -0.29924

   Total alpha = 22.00000, Total beta = 22.00000, Total charge =  0.00000

*** Psi4 exiting successfully. Buy a developer a beer!
