                               Psi4 1.9.1 release

  ==> Input File <==

--------------------------------------------------------------------------
memory 5 gb

molecule {
0 1
O     -2.326000     0.000000     0.000000
C     -1.163000     0.000000     0.000000
O      0.000000     0.000000     0.000000
O      0.000000     2.040000     0.000000
C      0.000000     3.203000     0.000000
O      0.000000     4.366000     0.000000
}

set basis cc-pVTZ
E, wfn = energy('ccsd(t)', return_wfn=True)
oeprop(wfn,'MULLIKEN_CHARGES')

--------------------------------------------------------------------------

    Molecular point group: cs

    Geometry (in Angstrom), charge = 0, multiplicity = 1:

       Center              X                  Y                   Z               Mass
    ------------   -----------------  -----------------  -----------------  -----------------
         O           -1.744500000000    -1.601500000000     0.000000000000    15.994914619570
         C           -0.581500000000    -1.601500000000     0.000000000000    12.000000000000
         O            0.581500000000    -1.601500000000     0.000000000000    15.994914619570
         O            0.581500000000     0.438500000000     0.000000000000    15.994914619570
         C            0.581500000000     1.601500000000     0.000000000000    12.000000000000
         O            0.581500000000     2.764500000000     0.000000000000    15.994914619570

  Charge       = 0
  Multiplicity = 1
  Basis Set: CC-PVTZ
    Blend: CC-PVTZ

    Orbital Energies [Eh]
    ---------------------

    Doubly Occupied:

       1Ap   -20.655563     2Ap   -20.647936     3Ap   -20.638257
       4Ap   -20.624199     5Ap   -11.462925     6Ap   -11.443858
       7Ap    -1.537512     8Ap    -1.514471     9Ap    -1.482356
      10Ap    -1.459030    11Ap    -0.833733    12Ap    -0.786763
      13Ap    -0.764928    14Ap    -0.730713     1App   -0.721503
      15Ap    -0.713899     2App   -0.697295    16Ap    -0.667360
       3App   -0.552549    17Ap    -0.548443     4App   -0.524274
      18Ap    -0.514454

  @RHF Final Energy:  -375.37249633535373

   => Energetics <=

    Nuclear Repulsion Energy =            195.0103627527704475
    One-Electron Energy =                -901.7216735734962185
    Two-Electron Energy =                 331.3388144853720405
    Total Energy =                       -375.3724963353537305
 Dipole X            :          0.1128155            0.0000000            0.1128155
 Dipole Y            :          0.1142510            0.0000000            0.1142510
 Dipole Z            :          0.0000000            0.0000000            0.0000000
 Magnitude           :                                                    0.1605635
      * MP2 total energy                      = -376.667506977917355
      * CCSD total energy                     = -376.646037612173927
      * CCSD(T) total energy                  = -376.705484823058441

  Mulliken Charges: (a.u.)
   Center  Symbol    Alpha    Beta     Spin     Total
       1     O     4.14290  4.14290  0.00000 -0.28580
       2     C     2.73411  2.73411  0.00000  0.53178
       3     O     4.12907  4.12907  0.00000 -0.25814
       4     O     4.11748  4.11748  0.00000 -0.23497
       5     C     2.73468  2.73468  0.00000  0.53064
       6     O     4.14176  4.14176  0.00000 -0.28352

   Total alpha = 22.00000, Total beta = 22.00000, Total charge =  0.00000

*** Psi4 exiting successfully. Buy a developer a beer!
