                               Psi4 1.9 release

  ==> Input File <==

--------------------------------------------------------------------------
memory 5 gb

molecule {
0 1
O     -2.326000     0.000000     0.000000
C     -1.163000     0.000000     0.000000
O      0.000000     0.000000     0.000000
O      0.791960     0.791960     0.000000
C      1.614325     1.614325     0.000000
O      2.436690     2.436690     0.000000
}

set basis cc-pVTZ
E, wfn = energy('ccsd(t)', return_wfn=True)
oeprop(wfn,'MULLIKEN_CHARGES')

--------------------------------------------------------------------------

    Molecular point group: cs

    Geometry (in Angstrom), charge = 0, multiplicity = 1:

       Center              X                  Y                   Z               Mass
    ------------   -----------------  -----------------  -----------------  -----------------
         O           -2.551662500000    -0.807162500000     0.000000000000    15.994914619570
         C           -1.388662500000    -0.807162500000     0.000000000000    12.000000000000
         O           -0.225662500000    -0.807162500000     0.000000000000    15.994914619570
         O            0.566297500000    -0.015202500000     0.000000000000    15.994914619570
         C            1.388662500000     0.807162500000     0.000000000000    12.000000000000
         O            2.211027500000     1.629527500000     0.000000000000    15.994914619570

  Charge       = 0
  Multiplicity = 1
  Basis Set: CC-PVTZ
    Blend: CC-PVTZ

    Orbital Energies [Eh]
    ---------------------

    Doubly Occupied:

       1Ap   -20.779011     2Ap   -20.752660     3Ap   -20.694012
       4Ap   -20.534045     5Ap   -11.527998     6Ap   -11.308860
       7Ap    -1.864518     8Ap    -1.551736     9Ap    -1.495637
      10Ap    -1.387585    11Ap    -1.196296    12Ap    -0.924881
       1App   -0.923032    13Ap    -0.810357    14Ap    -0.719672
       2App   -0.709183    15Ap    -0.665140    16Ap    -0.596936
       3App   -0.587156    17Ap    -0.534383     4App   -0.478713
      18Ap    -0.170409

  @RHF Final Energy:  -374.65850218921054

   => Energetics <=

    Nuclear Repulsion Energy =            214.3146009936600365
    One-Electron Energy =                -937.5217664194397003
    Two-Electron Energy =                 348.5486632365690980
    Total Energy =                       -374.6585021892105374
 Dipole X            :          1.8551387            0.0000000            1.8551387
 Dipole Y            :          0.4514746           -0.0000000            0.4514746
 Dipole Z            :          0.0000000            0.0000000            0.0000000
 Magnitude           :                                                    1.9092849
      * MP2 total energy                      = -376.016725976663622
      * CCSD total energy                     = -375.981976982173990
      * CCSD(T) total energy                  = -376.055265345883754

  Mulliken Charges: (a.u.)
   Center  Symbol    Alpha    Beta     Spin     Total
       1     O     4.18958  4.18958  0.00000 -0.37916
       2     C     2.95681  2.95681  0.00000  0.08639
       3     O     4.03369  4.03369  0.00000 -0.06739
       4     O     3.87005  3.87005  0.00000  0.25989
       5     C     2.85836  2.85836  0.00000  0.28329
       6     O     4.09151  4.09151  0.00000 -0.18302

   Total alpha = 22.00000, Total beta = 22.00000, Total charge =  0.00000

*** Psi4 exiting successfully. Buy a developer a beer!
