                               Psi4 1.9 release

  ==> Input File <==

--------------------------------------------------------------------------
memory 5 gb

molecule {
0 1
O     -2.326000     0.000000     0.000000
C     -1.163000     0.000000     0.000000
O      0.000000     0.000000     0.000000
O      1.046518     1.046518     0.000000
C      1.868883     1.868883     0.000000
O      2.691248     2.691248     0.000000
}

set basis cc-pVTZ
E, wfn = energy('ccsd(t)', return_wfn=True)
oeprop(wfn,'MULLIKEN_CHARGES')

--------------------------------------------------------------------------

    Molecular point group: cs

    Geometry (in Angstrom), charge = 0, multiplicity = 1:

       Center              X                  Y                   Z               Mass
    ------------   -----------------  -----------------  -----------------  -----------------
         O           -2.678941500000    -0.934441500000     0.000000000000    15.994914619570
         C           -1.515941500000    -0.934441500000     0.000000000000    12.000000000000
         O           -0.352941500000    -0.934441500000     0.000000000000    15.994914619570
         O            0.693576500000     0.112076500000     0.000000000000    15.994914619570
         C            1.515941500000     0.934441500000     0.000000000000    12.000000000000
         O            2.338306500000     1.756806500000     0.000000000000    15.994914619570

  Charge       = 0
  Multiplicity = 1
  Basis Set: CC-PVTZ
    Blend: CC-PVTZ

    Orbital Energies [Eh]
    ---------------------

    Doubly Occupied:

       1Ap   -20.642909     2Ap   -20.622863     3Ap   -20.621838
       4Ap   -20.621196     5Ap   -11.439200     6Ap   -11.419755
       7Ap    -1.565942     8Ap    -1.505135     9Ap    -1.477518
      10Ap    -1.441351    11Ap    -0.978401    12Ap    -0.766518
      13Ap    -0.751249    14Ap    -0.734219     1App   -0.731114
      15Ap    -0.687730     2App   -0.683689    16Ap    -0.598084
       3App   -0.567031    17Ap    -0.530908     4App   -0.498187
      18Ap    -0.415116

  @RHF Final Energy:  -375.15255094912192

   => Energetics <=

    Nuclear Repulsion Energy =            200.0871200874102271
    One-Electron Energy =                -911.8794363860292833
    Two-Electron Energy =                 336.6397653494971678
    Total Energy =                       -375.1525509491219168
 Dipole X            :          0.2657872           -0.0000000            0.2657872
 Dipole Y            :          0.0532224            0.0000000            0.0532224
 Dipole Z            :          0.0000000            0.0000000            0.0000000
 Magnitude           :                                                    0.2710635
      * MP2 total energy                      = -376.475500223843369
      * CCSD total energy                     = -376.444738786860512
      * CCSD(T) total energy                  = -376.507303902224407

  Mulliken Charges: (a.u.)
   Center  Symbol    Alpha    Beta     Spin     Total
       1     O     4.15580  4.15580  0.00000 -0.31160
       2     C     2.75932  2.75932  0.00000  0.48137
       3     O     4.09292  4.09292  0.00000 -0.18583
       4     O     4.09634  4.09634  0.00000 -0.19268
       5     C     2.74162  2.74162  0.00000  0.51677
       6     O     4.15401  4.15401  0.00000 -0.30803

   Total alpha = 22.00000, Total beta = 22.00000, Total charge =  0.00000

*** Psi4 exiting successfully. Buy a developer a beer!
