                               Psi4 1.9 release

  ==> Input File <==

--------------------------------------------------------------------------
memory 5 gb

molecule {
0 1
O     -2.326000     0.000000     0.000000
C     -1.163000     0.000000     0.000000
O      0.000000     0.000000     0.000000
O      0.000000     1.400000     0.000000
C      0.000000     2.563000     0.000000
O      0.000000     3.726000     0.000000
}

set basis cc-pVTZ
E, wfn = energy('ccsd(t)', return_wfn=True)
oeprop(wfn,'MULLIKEN_CHARGES')

--------------------------------------------------------------------------

    Molecular point group: cs

    Geometry (in Angstrom), charge = 0, multiplicity = 1:

       Center              X                  Y                   Z               Mass
    ------------   -----------------  -----------------  -----------------  -----------------
         O           -1.744500000000    -1.281500000000     0.000000000000    15.994914619570
         C           -0.581500000000    -1.281500000000     0.000000000000    12.000000000000
         O            0.581500000000    -1.281500000000     0.000000000000    15.994914619570
         O            0.581500000000     0.118500000000     0.000000000000    15.994914619570
         C            0.581500000000     1.281500000000     0.000000000000    12.000000000000
         O            0.581500000000     2.444500000000     0.000000000000    15.994914619570

  Charge       = 0
  Multiplicity = 1
  Basis Set: CC-PVTZ
    Blend: CC-PVTZ

    Orbital Energies [Eh]
    ---------------------

    Doubly Occupied:

       1Ap   -20.652408     2Ap   -20.634978     3Ap   -20.630242
       4Ap   -20.618845     5Ap   -11.443990     6Ap   -11.427343
       7Ap    -1.636595     8Ap    -1.511025     9Ap    -1.482826
      10Ap    -1.439906    11Ap    -0.957235    12Ap    -0.828828
      13Ap    -0.770988     1App   -0.765782    14Ap    -0.745052
      15Ap    -0.692920     2App   -0.683424    16Ap    -0.620882
       3App   -0.580080    17Ap    -0.541399     4App   -0.498531
      18Ap    -0.335560

  @RHF Final Energy:  -375.00188411097054

   => Energetics <=

    Nuclear Repulsion Energy =            214.4298137155163886
    One-Electron Energy =                -939.8657142100207693
    Two-Electron Energy =                 350.4340163835338444
    Total Energy =                       -375.0018841109705363
 Dipole X            :          0.3226015            0.0000000            0.3226015
 Dipole Y            :          0.1898001           -0.0000000            0.1898001
 Dipole Z            :          0.0000000            0.0000000            0.0000000
 Magnitude           :                                                    0.3742938
      * MP2 total energy                      = -376.343509882821650
      * CCSD total energy                     = -376.307804700153270
      * CCSD(T) total energy                  = -376.373394688110238

  Mulliken Charges: (a.u.)
   Center  Symbol    Alpha    Beta     Spin     Total
       1     O     4.14575  4.14575  0.00000 -0.29150
       2     C     2.78347  2.78347  0.00000  0.43306
       3     O     4.07683  4.07683  0.00000 -0.15366
       4     O     4.09893  4.09893  0.00000 -0.19786
       5     C     2.75274  2.75274  0.00000  0.49453
       6     O     4.14229  4.14229  0.00000 -0.28457

   Total alpha = 22.00000, Total beta = 22.00000, Total charge =  0.00000

*** Psi4 exiting successfully. Buy a developer a beer!
