                               Psi4 1.9.1 release

  ==> Input File <==

--------------------------------------------------------------------------
memory 5 gb

molecule {
0 1
O     -2.326000     0.000000     0.000000
C     -1.163000     0.000000     0.000000
O      0.000000     0.000000     0.000000
O      1.187939     1.187939     0.000000
C      2.010305     2.010305     0.000000
O      2.832670     2.832670     0.000000
}

set basis cc-pVTZ
E, wfn = energy('ccsd(t)', return_wfn=True)
oeprop(wfn,'MULLIKEN_CHARGES')

--------------------------------------------------------------------------

    Molecular point group: cs

    Geometry (in Angstrom), charge = 0, multiplicity = 1:

       Center              X                  Y                   Z               Mass
    ------------   -----------------  -----------------  -----------------  -----------------
         O           -2.749652318198    -1.005152318198     0.000000000000    15.994914619570
         C           -1.586652318198    -1.005152318198     0.000000000000    12.000000000000
         O           -0.423652318198    -1.005152318198     0.000000000000    15.994914619570
         O            0.764286681802     0.182786681802     0.000000000000    15.994914619570
         C            1.586652681802     1.005152681802     0.000000000000    12.000000000000
         O            2.409017681802     1.827517681802     0.000000000000    15.994914619570

  Charge       = 0
  Multiplicity = 1
  Basis Set: CC-PVTZ
    Blend: CC-PVTZ

    Orbital Energies [Eh]
    ---------------------

    Doubly Occupied:

       1Ap   -20.642430     2Ap   -20.631316     3Ap   -20.624750
       4Ap   -20.621535     5Ap   -11.443588     6Ap   -11.434642
       7Ap    -1.535803     8Ap    -1.508850     9Ap    -1.476867
      10Ap    -1.450096    11Ap    -0.910043    12Ap    -0.767879
      13Ap    -0.753983    14Ap    -0.721667     1App   -0.716200
      15Ap    -0.693917     2App   -0.690735    16Ap    -0.620810
       3App   -0.554470    17Ap    -0.537000     4App   -0.509714
      18Ap    -0.482895

  @RHF Final Energy:  -375.28593451784451

   => Energetics <=

    Nuclear Repulsion Energy =            194.1302277455106946
    One-Electron Energy =                -900.1739475863416828
    Two-Electron Energy =                 330.7577853229865354
    Total Energy =                       -375.2859345178445096
 Dipole X            :          0.1396648           -0.0000000            0.1396648
 Dipole Y            :          0.0016104           -0.0000000            0.0016104
 Dipole Z            :          0.0000000            0.0000000            0.0000000
 Magnitude           :                                                    0.1396740
      * MP2 total energy                      = -376.592002699696650
      * CCSD total energy                     = -376.566792041452800
      * CCSD(T) total energy                  = -376.627309897781174

  Mulliken Charges: (a.u.)
   Center  Symbol    Alpha    Beta     Spin     Total
       1     O     4.14945  4.14945  0.00000 -0.29891
       2     C     2.74482  2.74482  0.00000  0.51037
       3     O     4.10992  4.10992  0.00000 -0.21985
       4     O     4.10461  4.10461  0.00000 -0.20922
       5     C     2.73788  2.73788  0.00000  0.52423
       6     O     4.15331  4.15331  0.00000 -0.30662

   Total alpha = 22.00000, Total beta = 22.00000, Total charge =  0.00000

*** Psi4 exiting successfully. Buy a developer a beer!
