                               Psi4 1.9.1 release

  ==> Input File <==

--------------------------------------------------------------------------
memory 5 gb

molecule {
0 1
O     -2.326000     0.000000     0.000000
C     -1.163000     0.000000     0.000000
O      0.000000     0.000000     0.000000
O      1.329361     1.329361     0.000000
C      2.151726     2.151726     0.000000
O      2.974091     2.974091     0.000000
}

set basis cc-pVTZ
E, wfn = energy('ccsd(t)', return_wfn=True)
oeprop(wfn,'MULLIKEN_CHARGES')

--------------------------------------------------------------------------

    Molecular point group: cs

    Geometry (in Angstrom), charge = 0, multiplicity = 1:

       Center              X                  Y                   Z               Mass
    ------------   -----------------  -----------------  -----------------  -----------------
         O           -2.820363000000    -1.075863000000     0.000000000000    15.994914619570
         C           -1.657363000000    -1.075863000000     0.000000000000    12.000000000000
         O           -0.494363000000    -1.075863000000     0.000000000000    15.994914619570
         O            0.834998000000     0.253498000000     0.000000000000    15.994914619570
         C            1.657363000000     1.075863000000     0.000000000000    12.000000000000
         O            2.479728000000     1.898228000000     0.000000000000    15.994914619570

  Charge       = 0
  Multiplicity = 1
  Basis Set: CC-PVTZ
    Blend: CC-PVTZ

    Orbital Energies [Eh]
    ---------------------

    Doubly Occupied:

       1Ap   -20.643482     2Ap   -20.636407     3Ap   -20.631646
       4Ap   -20.627628     5Ap   -11.447971     6Ap   -11.442157
       7Ap    -1.526974     8Ap    -1.513065     9Ap    -1.473882
      10Ap    -1.457004    11Ap    -0.864190    12Ap    -0.771848
      13Ap    -0.754459    14Ap    -0.716355     1App   -0.711326
      15Ap    -0.699490     2App   -0.696197    16Ap    -0.653065
       3App   -0.547221    17Ap    -0.539015     4App   -0.518807
      18Ap    -0.510250

  @RHF Final Energy:  -375.35235113939871

   => Energetics <=

    Nuclear Repulsion Energy =            189.0872833386586080
    One-Electron Energy =                -890.1143945148471630
    Two-Electron Energy =                 325.6747600367898485
    Total Energy =                       -375.3523511393987064
 Dipole X            :          0.0885771            0.0000000            0.0885771
 Dipole Y            :         -0.0115265            0.0000000           -0.0115265
 Dipole Z            :          0.0000000            0.0000000            0.0000000
 Magnitude           :                                                    0.0893239
      * MP2 total energy                      = -376.649787036840735
      * CCSD total energy                     = -376.627265622327798
      * CCSD(T) total energy                  = -376.686830152167431

  Mulliken Charges: (a.u.)
   Center  Symbol    Alpha    Beta     Spin     Total
       1     O     4.14555  4.14555  0.00000 -0.29110
       2     C     2.73933  2.73933  0.00000  0.52133
       3     O     4.11799  4.11799  0.00000 -0.23598
       4     O     4.10837  4.10837  0.00000 -0.21674
       5     C     2.73851  2.73851  0.00000  0.52299
       6     O     4.15025  4.15025  0.00000 -0.30050

   Total alpha = 22.00000, Total beta = 22.00000, Total charge =  0.00000

*** Psi4 exiting successfully. Buy a developer a beer!
