                               Psi4 1.9.1 release

  ==> Input File <==

--------------------------------------------------------------------------
memory 5 gb

molecule {
0 1
O     -2.326000     0.000000     0.000000
C     -1.163000     0.000000     0.000000
O      0.000000     0.000000     0.000000
O      1.414214     1.414214     0.000000
C      2.236579     2.236579     0.000000
O      3.058944     3.058944     0.000000
}

set basis cc-pVTZ
E, wfn = energy('ccsd(t)', return_wfn=True)
oeprop(wfn,'MULLIKEN_CHARGES')

--------------------------------------------------------------------------

    Molecular point group: cs

    Geometry (in Angstrom), charge = 0, multiplicity = 1:

       Center              X                  Y                   Z               Mass
    ------------   -----------------  -----------------  -----------------  -----------------
         O           -2.862789500000    -1.118289500000     0.000000000000    15.994914619570
         C           -1.699789500000    -1.118289500000     0.000000000000    12.000000000000
         O           -0.536789500000    -1.118289500000     0.000000000000    15.994914619570
         O            0.877424500000     0.295924500000     0.000000000000    15.994914619570
         C            1.699789500000     1.118289500000     0.000000000000    12.000000000000
         O            2.522154500000     1.940654500000     0.000000000000    15.994914619570

  Charge       = 0
  Multiplicity = 1
  Basis Set: CC-PVTZ
    Blend: CC-PVTZ

    Orbital Energies [Eh]
    ---------------------

    Doubly Occupied:

       1Ap   -20.644172     2Ap   -20.638452     3Ap   -20.635315
       4Ap   -20.631250     5Ap   -11.449992     6Ap   -11.445119
       7Ap    -1.525141     8Ap    -1.515165     9Ap    -1.472646
      10Ap    -1.460091    11Ap    -0.845108    12Ap    -0.774476
      13Ap    -0.753681    14Ap    -0.715211     1App   -0.710138
      15Ap    -0.702280     2App   -0.698735    16Ap    -0.669601
       3App   -0.544623    17Ap    -0.539289     4App   -0.522968
      18Ap    -0.518502

  @RHF Final Energy:  -375.37428402399240

   => Energetics <=

    Nuclear Repulsion Energy =            186.4065492997993658
    One-Electron Energy =                -884.7377590761160491
    Two-Electron Energy =                 322.9569257523242527
    Total Energy =                       -375.3742840239924021
 Dipole X            :          0.0705993           -0.0000000            0.0705993
 Dipole Y            :         -0.0139461           -0.0000000           -0.0139461
 Dipole Z            :          0.0000000            0.0000000            0.0000000
 Magnitude           :                                                    0.0719635
      * MP2 total energy                      = -376.668588737273694
      * CCSD total energy                     = -376.647001801463432
      * CCSD(T) total energy                  = -376.706230190992699

  Mulliken Charges: (a.u.)
   Center  Symbol    Alpha    Beta     Spin     Total
       1     O     4.14393  4.14393  0.00000 -0.28786
       2     C     2.73761  2.73761  0.00000  0.52478
       3     O     4.12062  4.12062  0.00000 -0.24125
       4     O     4.10981  4.10981  0.00000 -0.21962
       5     C     2.73950  2.73950  0.00000  0.52100
       6     O     4.14853  4.14853  0.00000 -0.29706

   Total alpha = 22.00000, Total beta = 22.00000, Total charge =  0.00000

*** Psi4 exiting successfully. Buy a developer a beer!
