                               Psi4 1.9.1 release

  ==> Input File <==

--------------------------------------------------------------------------
memory 5 gb

molecule {
0 1
O     -2.326000     0.000000     0.000000
C     -1.163000     0.000000     0.000000
O      0.000000     0.000000     0.000000
O      0.000000     2.160000     0.000000
C      0.000000     3.323000     0.000000
O      0.000000     4.486000     0.000000
}

set basis cc-pVTZ
E, wfn = energy('ccsd(t)', return_wfn=True)
oeprop(wfn,'MULLIKEN_CHARGES')

--------------------------------------------------------------------------

    Molecular point group: cs

    Geometry (in Angstrom), charge = 0, multiplicity = 1:

       Center              X                  Y                   Z               Mass
    ------------   -----------------  -----------------  -----------------  -----------------
         O           -1.744500000000    -1.661500000000     0.000000000000    15.994914619570
         C           -0.581500000000    -1.661500000000     0.000000000000    12.000000000000
         O            0.581500000000    -1.661500000000     0.000000000000    15.994914619570
         O            0.581500000000     0.498500000000     0.000000000000    15.994914619570
         C            0.581500000000     1.661500000000     0.000000000000    12.000000000000
         O            0.581500000000     2.824500000000     0.000000000000    15.994914619570

  Charge       = 0
  Multiplicity = 1
  Basis Set: CC-PVTZ
    Blend: CC-PVTZ

    Orbital Energies [Eh]
    ---------------------

    Doubly Occupied:

       1Ap   -20.655413     2Ap   -20.650214     3Ap   -20.639203
       4Ap   -20.628343     5Ap   -11.463704     6Ap   -11.445672
       7Ap    -1.535696     8Ap    -1.515367     9Ap    -1.481666
      10Ap    -1.460964    11Ap    -0.824201    12Ap    -0.787292
      13Ap    -0.762056    14Ap    -0.729897     1App   -0.720171
      15Ap    -0.715819     2App   -0.699033    16Ap    -0.676198
       3App   -0.550922    17Ap    -0.548447     4App   -0.526984
      18Ap    -0.521248

  @RHF Final Energy:  -375.38756203029328

   => Energetics <=

    Nuclear Repulsion Energy =            192.2352756137675840
    One-Electron Energy =                -896.1686546671544420
    Two-Electron Energy =                 328.5458170230935480
    Total Energy =                       -375.3875620302932816
 Dipole X            :          0.0972568            0.0000000            0.0972568
 Dipole Y            :          0.1033045           -0.0000000            0.1033045
 Dipole Z            :          0.0000000            0.0000000            0.0000000
 Magnitude           :                                                    0.1418827
      * MP2 total energy                      = -376.680132504728988
      * CCSD total energy                     = -376.659292716349000
      * CCSD(T) total energy                  = -376.718446104775182

  Mulliken Charges: (a.u.)
   Center  Symbol    Alpha    Beta     Spin     Total
       1     O     4.14206  4.14206  0.00000 -0.28412
       2     C     2.73233  2.73233  0.00000  0.53534
       3     O     4.13068  4.13068  0.00000 -0.26136
       4     O     4.11934  4.11934  0.00000 -0.23868
       5     C     2.73423  2.73423  0.00000  0.53153
       6     O     4.14135  4.14135  0.00000 -0.28271

   Total alpha = 22.00000, Total beta = 22.00000, Total charge = -0.00000

*** Psi4 exiting successfully. Buy a developer a beer!
