                               Psi4 1.9.1 release

  ==> Input File <==

--------------------------------------------------------------------------
memory 5 gb

molecule {
0 1
O     -2.326000     0.000000     0.000000
C     -1.163000     0.000000     0.000000
O      0.000000     0.000000     0.000000
O      0.000000     1.960000     0.000000
C      0.000000     3.123000     0.000000
O      0.000000     4.286000     0.000000
}

set basis cc-pVTZ
E, wfn = energy('ccsd(t)', return_wfn=True)
oeprop(wfn,'MULLIKEN_CHARGES')

--------------------------------------------------------------------------

    Molecular point group: cs

    Geometry (in Angstrom), charge = 0, multiplicity = 1:

       Center              X                  Y                   Z               Mass
    ------------   -----------------  -----------------  -----------------  -----------------
         O           -1.744500000000    -1.561500000000     0.000000000000    15.994914619570
         C           -0.581500000000    -1.561500000000     0.000000000000    12.000000000000
         O            0.581500000000    -1.561500000000     0.000000000000    15.994914619570
         O            0.581500000000     0.398500000000     0.000000000000    15.994914619570
         C            0.581500000000     1.561500000000     0.000000000000    12.000000000000
         O            0.581500000000     2.724500000000     0.000000000000    15.994914619570

  Charge       = 0
  Multiplicity = 1
  Basis Set: CC-PVTZ
    Blend: CC-PVTZ

    Orbital Energies [Eh]
    ---------------------

    Doubly Occupied:

       1Ap   -20.655591     2Ap   -20.645964     3Ap   -20.637602
       4Ap   -20.621054     5Ap   -11.462120     6Ap   -11.442527
       7Ap    -1.539406     8Ap    -1.513980     9Ap    -1.482864
      10Ap    -1.457488    11Ap    -0.841973    12Ap    -0.786707
      13Ap    -0.766607    14Ap    -0.731756     1App   -0.722722
      15Ap    -0.712114     2App   -0.695999    16Ap    -0.660742
       3App   -0.553973    17Ap    -0.548279     4App   -0.522094
      18Ap    -0.507948

  @RHF Final Energy:  -375.35812184097739

   => Energetics <=

    Nuclear Repulsion Energy =            196.9807129729419444
    One-Electron Energy =                -905.6586507708816498
    Two-Electron Energy =                 333.3198159569622590
    Total Energy =                       -375.3581218409773896
 Dipole X            :          0.1247139            0.0000000            0.1247139
 Dipole Y            :          0.1216470           -0.0000000            0.1216470
 Dipole Z            :          0.0000000            0.0000000            0.0000000
 Magnitude           :                                                    0.1742170
      * MP2 total energy                      = -376.655247979711248
      * CCSD total energy                     = -376.633216099113099
      * CCSD(T) total energy                  = -376.692916230443245

  Mulliken Charges: (a.u.)
   Center  Symbol    Alpha    Beta     Spin     Total
       1     O     4.14340  4.14340  0.00000 -0.28679
       2     C     2.73584  2.73584  0.00000  0.52832
       3     O     4.12746  4.12746  0.00000 -0.25493
       4     O     4.11654  4.11654  0.00000 -0.23307
       5     C     2.73472  2.73472  0.00000  0.53057
       6     O     4.14205  4.14205  0.00000 -0.28410

   Total alpha = 22.00000, Total beta = 22.00000, Total charge =  0.00000

*** Psi4 exiting successfully. Buy a developer a beer!
