                               Psi4 1.9 release

  ==> Input File <==

--------------------------------------------------------------------------
memory 5 gb

molecule {
0 1
O     -2.326000     0.000000     0.000000
C     -1.163000     0.000000     0.000000
O      0.000000     0.000000     0.000000
O      1.240000     0.000000     0.000000
C      2.403000     0.000000     0.000000
O      3.566000     0.000000     0.000000
}

set basis cc-pVTZ
E, wfn = energy('ccsd(t)', return_wfn=True)
oeprop(wfn,'MULLIKEN_CHARGES')

--------------------------------------------------------------------------

    Molecular point group: d2h

    Geometry (in Angstrom), charge = 0, multiplicity = 1:

       Center              X                  Y                   Z               Mass
    ------------   -----------------  -----------------  -----------------  -----------------
         O           -2.946000000000    -0.000000000000     0.000000000000    15.994914619570
         C           -1.783000000000    -0.000000000000     0.000000000000    12.000000000000
         O           -0.620000000000    -0.000000000000     0.000000000000    15.994914619570
         O            0.620000000000     0.000000000000     0.000000000000    15.994914619570
         C            1.783000000000     0.000000000000     0.000000000000    12.000000000000
         O            2.946000000000     0.000000000000     0.000000000000    15.994914619570

  Charge       = 0
  Multiplicity = 1
  Basis Set: CC-PVTZ
    Blend: CC-PVTZ

    Orbital Energies [Eh]
    ---------------------

    Doubly Occupied:

       1B3u  -20.624642     1Ag   -20.624640     2Ag   -20.623427
       2B3u  -20.623135     3B3u  -11.406815     3Ag   -11.406807
       4Ag    -1.651281     4B3u   -1.492362     5Ag    -1.475729
       5B3u   -1.429558     6Ag    -1.100267     1B1u   -0.770078
       1B2u   -0.770078     6B3u   -0.752206     7Ag    -0.746730
       1B2g   -0.669710     1B1g   -0.669710     2B1u   -0.582810
       2B2u   -0.582810     2B2g   -0.473358     2B1g   -0.473358
       7B3u   -0.273182

  @RHF Final Energy:  -374.81597983358239

   => Energetics <=

    Nuclear Repulsion Energy =            205.7629961881605141
    One-Electron Energy =                -922.7125631614114809
    Two-Electron Energy =                 342.1335871396685775
    Total Energy =                       -374.8159798335823893
 Dipole X            :          0.0000000            0.0000000            0.0000000
 Dipole Y            :          0.0000000            0.0000000            0.0000000
 Dipole Z            :          0.0000000            0.0000000            0.0000000
 Magnitude           :                                                    0.0000000
      * MP2 total energy                      = -376.177117285624490
      * CCSD total energy                     = -376.134311150469273
      * CCSD(T) total energy                  = -376.203606610985730

  Mulliken Charges: (a.u.)
   Center  Symbol    Alpha    Beta     Spin     Total
       1     O     4.15272  4.15272  0.00000 -0.30544
       2     C     2.77029  2.77029  0.00000  0.45942
       3     O     4.07699  4.07699  0.00000 -0.15397
       4     O     4.07699  4.07699  0.00000 -0.15397
       5     C     2.77029  2.77029  0.00000  0.45942
       6     O     4.15272  4.15272  0.00000 -0.30544

   Total alpha = 22.00000, Total beta = 22.00000, Total charge =  0.00000

*** Psi4 exiting successfully. Buy a developer a beer!
