                               Psi4 1.9.1 release

  ==> Input File <==

--------------------------------------------------------------------------
memory 5 gb

molecule {
0 1
O     -2.326000     0.000000     0.000000
C     -1.163000     0.000000     0.000000
O      0.000000     0.000000     0.000000
O      2.160000     0.000000     0.000000
C      3.323000     0.000000     0.000000
O      4.486000     0.000000     0.000000
}

set basis cc-pVTZ
E, wfn = energy('ccsd(t)', return_wfn=True)
oeprop(wfn,'MULLIKEN_CHARGES')

--------------------------------------------------------------------------

    Molecular point group: d2h

    Geometry (in Angstrom), charge = 0, multiplicity = 1:

       Center              X                  Y                   Z               Mass
    ------------   -----------------  -----------------  -----------------  -----------------
         O           -3.406000000000    -0.000000000000     0.000000000000    15.994914619570
         C           -2.243000000000    -0.000000000000     0.000000000000    12.000000000000
         O           -1.080000000000    -0.000000000000     0.000000000000    15.994914619570
         O            1.080000000000     0.000000000000     0.000000000000    15.994914619570
         C            2.243000000000     0.000000000000     0.000000000000    12.000000000000
         O            3.406000000000     0.000000000000     0.000000000000    15.994914619570

  Charge       = 0
  Multiplicity = 1
  Basis Set: CC-PVTZ
    Blend: CC-PVTZ

    Orbital Energies [Eh]
    ---------------------

    Doubly Occupied:

       1B3u  -20.642029     1Ag   -20.642028     2B3u  -20.635817
       2Ag   -20.635809     3B3u  -11.448803     3Ag   -11.448802
       4Ag    -1.521959     4B3u   -1.517434     5Ag    -1.469712
       5B3u   -1.463073     6Ag    -0.831085     6B3u   -0.775030
       7Ag    -0.751362     1B2u   -0.707440     1B1u   -0.707440
       1B1g   -0.701152     1B2g   -0.701152     7B3u   -0.685153
       2B2u   -0.540741     2B1u   -0.540741     2B1g   -0.526502
       2B2g   -0.526502

  @RHF Final Energy:  -375.39294504952898

   => Energetics <=

    Nuclear Repulsion Energy =            180.7601033937145587
    One-Electron Energy =                -873.4665651360771790
    Two-Electron Energy =                 317.3135166928336730
    Total Energy =                       -375.3929450495289757
 Dipole X            :          0.0000000            0.0000000            0.0000000
 Dipole Y            :          0.0000000            0.0000000            0.0000000
 Dipole Z            :          0.0000000            0.0000000            0.0000000
 Magnitude           :                                                    0.0000000
      * MP2 total energy                      = -376.684375166800180
      * CCSD total energy                     = -376.663811803938358
      * CCSD(T) total energy                  = -376.722628387283009

  Mulliken Charges: (a.u.)
   Center  Symbol    Alpha    Beta     Spin     Total
       1     O     4.14843  4.14843  0.00000 -0.29686
       2     C     2.74258  2.74258  0.00000  0.51483
       3     O     4.10899  4.10899  0.00000 -0.21797
       4     O     4.10899  4.10899  0.00000 -0.21797
       5     C     2.74258  2.74258  0.00000  0.51483
       6     O     4.14843  4.14843  0.00000 -0.29686

   Total alpha = 22.00000, Total beta = 22.00000, Total charge =  0.00000

*** Psi4 exiting successfully. Buy a developer a beer!
