                               Psi4 1.9.1 release

  ==> Input File <==

--------------------------------------------------------------------------
memory 5 gb

molecule {
0 1
O     -2.326000     0.000000     0.000000
C     -1.163000     0.000000     0.000000
O      0.000000     0.000000     0.000000
O      0.000000     2.200000     0.000000
C      0.000000     3.363000     0.000000
O      0.000000     4.526000     0.000000
}

set basis cc-pVTZ
E, wfn = energy('ccsd(t)', return_wfn=True)
oeprop(wfn,'MULLIKEN_CHARGES')

--------------------------------------------------------------------------

    Molecular point group: cs

    Geometry (in Angstrom), charge = 0, multiplicity = 1:

       Center              X                  Y                   Z               Mass
    ------------   -----------------  -----------------  -----------------  -----------------
         O           -1.744500000000    -1.681500000000     0.000000000000    15.994914619570
         C           -0.581500000000    -1.681500000000     0.000000000000    12.000000000000
         O            0.581500000000    -1.681500000000     0.000000000000    15.994914619570
         O            0.581500000000     0.518500000000     0.000000000000    15.994914619570
         C            0.581500000000     1.681500000000     0.000000000000    12.000000000000
         O            0.581500000000     2.844500000000     0.000000000000    15.994914619570

  Charge       = 0
  Multiplicity = 1
  Basis Set: CC-PVTZ
    Blend: CC-PVTZ

    Orbital Energies [Eh]
    ---------------------

    Doubly Occupied:

       1Ap   -20.655342     2Ap   -20.650810     3Ap   -20.639506
       4Ap   -20.629565     5Ap   -11.463875     6Ap   -11.446227
       7Ap    -1.535261     8Ap    -1.515692     9Ap    -1.481456
      10Ap    -1.461527    11Ap    -0.821676    12Ap    -0.787537
      13Ap    -0.761040    14Ap    -0.729807     1App   -0.719819
      15Ap    -0.716265     2App   -0.699561    16Ap    -0.678816
       3App   -0.550483    17Ap    -0.548401     4App   -0.527760
      18Ap    -0.522948

  @RHF Final Energy:  -375.39128319735875

   => Energetics <=

    Nuclear Repulsion Energy =            191.3545896091462168
    One-Electron Energy =                -894.4049968637568782
    Two-Electron Energy =                 327.6591240572519723
    Total Energy =                       -375.3912831973587458
 Dipole X            :          0.0926015            0.0000000            0.0926015
 Dipole Y            :          0.0997436            0.0000000            0.0997436
 Dipole Z            :          0.0000000            0.0000000            0.0000000
 Magnitude           :                                                    0.1361022
      * MP2 total energy                      = -376.683193511912407
      * CCSD total energy                     = -376.662519529380290
      * CCSD(T) total energy                  = -376.721592706204717

  Mulliken Charges: (a.u.)
   Center  Symbol    Alpha    Beta     Spin     Total
       1     O     4.14176  4.14176  0.00000 -0.28351
       2     C     2.73195  2.73195  0.00000  0.53610
       3     O     4.13104  4.13104  0.00000 -0.26207
       4     O     4.12007  4.12007  0.00000 -0.24013
       5     C     2.73399  2.73399  0.00000  0.53202
       6     O     4.14120  4.14120  0.00000 -0.28240

   Total alpha = 22.00000, Total beta = 22.00000, Total charge =  0.00000

*** Psi4 exiting successfully. Buy a developer a beer!
