                               Psi4 1.9.1 release

  ==> Input File <==

--------------------------------------------------------------------------
memory 5 gb

molecule {
0 1
O     -2.326000     0.000000     0.000000
C     -1.163000     0.000000     0.000000
O      0.000000     0.000000     0.000000
O      1.600000     0.000000     0.000000
C      2.763000     0.000000     0.000000
O      3.926000     0.000000     0.000000
}

set basis cc-pVTZ
E, wfn = energy('ccsd(t)', return_wfn=True)
oeprop(wfn,'MULLIKEN_CHARGES')

--------------------------------------------------------------------------

    Molecular point group: d2h

    Geometry (in Angstrom), charge = 0, multiplicity = 1:

       Center              X                  Y                   Z               Mass
    ------------   -----------------  -----------------  -----------------  -----------------
         O           -3.126000000000    -0.000000000000     0.000000000000    15.994914619570
         C           -1.963000000000    -0.000000000000     0.000000000000    12.000000000000
         O           -0.800000000000    -0.000000000000     0.000000000000    15.994914619570
         O            0.800000000000     0.000000000000     0.000000000000    15.994914619570
         C            1.963000000000     0.000000000000     0.000000000000    12.000000000000
         O            3.126000000000     0.000000000000     0.000000000000    15.994914619570

  Charge       = 0
  Multiplicity = 1
  Basis Set: CC-PVTZ
    Blend: CC-PVTZ

    Orbital Energies [Eh]
    ---------------------

    Doubly Occupied:

       1B3u  -20.635337     1Ag   -20.635336     2B3u  -20.613036
       2Ag   -20.613031     3B3u  -11.433194     3Ag   -11.433190
       4Ag    -1.534655     4B3u   -1.505722     5Ag    -1.475895
       5B3u   -1.445611     6Ag    -0.943306     6B3u   -0.762266
       7Ag    -0.752998     1B2u   -0.714280     1B1u   -0.714280
       1B1g   -0.687020     1B2g   -0.687020     2B1u   -0.555105
       2B2u   -0.555105     7B3u   -0.538177     2B1g   -0.502175
       2B2g   -0.502175

  @RHF Final Energy:  -375.24568529493484

   => Energetics <=

    Nuclear Repulsion Energy =            193.5407220621154920
    One-Electron Energy =                -899.0949844422792694
    Two-Electron Energy =                 330.3085770852289329
    Total Energy =                       -375.2456852949348445
 Dipole X            :          0.0000000            0.0000000            0.0000000
 Dipole Y            :          0.0000000            0.0000000            0.0000000
 Dipole Z            :          0.0000000            0.0000000            0.0000000
 Magnitude           :                                                    0.0000000
      * MP2 total energy                      = -376.554040236085200
      * CCSD total energy                     = -376.528530672539830
      * CCSD(T) total energy                  = -376.589131807918932

  Mulliken Charges: (a.u.)
   Center  Symbol    Alpha    Beta     Spin     Total
       1     O     4.15902  4.15902  0.00000 -0.31805
       2     C     2.74158  2.74158  0.00000  0.51684
       3     O     4.09940  4.09940  0.00000 -0.19879
       4     O     4.09940  4.09940  0.00000 -0.19879
       5     C     2.74158  2.74158  0.00000  0.51684
       6     O     4.15902  4.15902  0.00000 -0.31805

   Total alpha = 22.00000, Total beta = 22.00000, Total charge =  0.00000

*** Psi4 exiting successfully. Buy a developer a beer!
