                               Psi4 1.9.1 release

  ==> Input File <==

--------------------------------------------------------------------------
memory 5 gb

molecule {
0 1
O     -2.326000     0.000000     0.000000
C     -1.163000     0.000000     0.000000
O      0.000000     0.000000     0.000000
O      1.520000     0.000000     0.000000
C      2.683000     0.000000     0.000000
O      3.846000     0.000000     0.000000
}

set basis cc-pVTZ
E, wfn = energy('ccsd(t)', return_wfn=True)
oeprop(wfn,'MULLIKEN_CHARGES')

--------------------------------------------------------------------------

    Molecular point group: d2h

    Geometry (in Angstrom), charge = 0, multiplicity = 1:

       Center              X                  Y                   Z               Mass
    ------------   -----------------  -----------------  -----------------  -----------------
         O           -3.086000000000    -0.000000000000     0.000000000000    15.994914619570
         C           -1.923000000000    -0.000000000000     0.000000000000    12.000000000000
         O           -0.760000000000    -0.000000000000     0.000000000000    15.994914619570
         O            0.760000000000     0.000000000000     0.000000000000    15.994914619570
         C            1.923000000000     0.000000000000     0.000000000000    12.000000000000
         O            3.086000000000     0.000000000000     0.000000000000    15.994914619570

  Charge       = 0
  Multiplicity = 1
  Basis Set: CC-PVTZ
    Blend: CC-PVTZ

    Orbital Energies [Eh]
    ---------------------

    Doubly Occupied:

       1B3u  -20.633737     1Ag   -20.633736     2Ag   -20.609247
       2B3u  -20.609236     3B3u  -11.428747     3Ag   -11.428743
       4Ag    -1.543754     4B3u   -1.503141     5Ag    -1.477309
       5B3u   -1.441381     6Ag    -0.971620     6B3u   -0.760314
       7Ag    -0.752201     1B2u   -0.718435     1B1u   -0.718435
       1B1g   -0.683732     1B2g   -0.683732     2B1u   -0.559866
       2B2u   -0.559866     2B1g   -0.496212     2B2g   -0.496212
       7B3u   -0.495932

  @RHF Final Energy:  -375.18822583544522

   => Energetics <=

    Nuclear Repulsion Energy =            195.8924612660575519
    One-Electron Energy =                -903.7501970366424757
    Two-Electron Energy =                 332.6695099351396721
    Total Energy =                       -375.1882258354452233
 Dipole X            :          0.0000000           -0.0000000           -0.0000000
 Dipole Y            :          0.0000000            0.0000000            0.0000000
 Dipole Z            :          0.0000000            0.0000000            0.0000000
 Magnitude           :                                                    0.0000000
      * MP2 total energy                      = -376.502528246214695
      * CCSD total energy                     = -376.475169989200424
      * CCSD(T) total energy                  = -376.536510559454825

  Mulliken Charges: (a.u.)
   Center  Symbol    Alpha    Beta     Spin     Total
       1     O     4.16032  4.16032  0.00000 -0.32064
       2     C     2.74310  2.74310  0.00000  0.51381
       3     O     4.09658  4.09658  0.00000 -0.19317
       4     O     4.09658  4.09658  0.00000 -0.19317
       5     C     2.74310  2.74310  0.00000  0.51381
       6     O     4.16032  4.16032  0.00000 -0.32064

   Total alpha = 22.00000, Total beta = 22.00000, Total charge =  0.00000

*** Psi4 exiting successfully. Buy a developer a beer!
