                               Psi4 1.9 release

  ==> Input File <==

--------------------------------------------------------------------------
memory 5 gb

molecule {
0 1
O     -2.326000     0.000000     0.000000
C     -1.163000     0.000000     0.000000
O      0.000000     0.000000     0.000000
O      1.000000     0.000000     0.000000
C      2.163000     0.000000     0.000000
O      3.326000     0.000000     0.000000
}

set basis cc-pVTZ
E, wfn = energy('ccsd(t)', return_wfn=True)
oeprop(wfn,'MULLIKEN_CHARGES')

--------------------------------------------------------------------------

    Molecular point group: d2h

    Geometry (in Angstrom), charge = 0, multiplicity = 1:

       Center              X                  Y                   Z               Mass
    ------------   -----------------  -----------------  -----------------  -----------------
         O           -2.826000000000    -0.000000000000     0.000000000000    15.994914619570
         C           -1.663000000000    -0.000000000000     0.000000000000    12.000000000000
         O           -0.500000000000    -0.000000000000     0.000000000000    15.994914619570
         O            0.500000000000     0.000000000000     0.000000000000    15.994914619570
         C            1.663000000000     0.000000000000     0.000000000000    12.000000000000
         O            2.826000000000     0.000000000000     0.000000000000    15.994914619570

  Charge       = 0
  Multiplicity = 1
  Basis Set: CC-PVTZ
    Blend: CC-PVTZ

    Orbital Energies [Eh]
    ---------------------

    Doubly Occupied:

       1Ag   -20.867566     1B3u  -20.865284     2B3u  -20.587403
       2Ag   -20.587402     3Ag   -11.413105     3B3u  -11.413090
       4Ag    -2.053884     4B3u   -1.537061     5Ag    -1.448006
       5B3u   -1.430376     6Ag    -1.326463     1B1u   -1.064973
       1B2u   -1.063824     6B3u   -0.714777     7Ag    -0.712987
       1B2g   -0.706053     1B1g   -0.694120     2B1u   -0.613355
       2B2u   -0.575970     2B2g   -0.514260     2B1g   -0.492752
       3B1u   -0.134849

  @RHF Final Energy:  -374.42194490695459

   => Energetics <=

    Nuclear Repulsion Energy =            217.2381953777009755
    One-Electron Energy =                -941.6851617457512020
    Two-Electron Energy =                 350.0250214610956050
    Total Energy =                       -374.4219449069545931
 Dipole X            :          0.0000000           -0.0000000           -0.0000000
 Dipole Y            :          0.0000000           -0.0000000           -0.0000000
 Dipole Z            :          0.0000000            0.0000000            0.0000000
 Magnitude           :                                                    0.0000000
      * MP2 total energy                      = -375.777447675900703
      * CCSD total energy                     = -375.743816551105738
      * CCSD(T) total energy                  = -375.813911530830637

  Mulliken Charges: (a.u.)
   Center  Symbol    Alpha    Beta     Spin     Total
       1     O     4.17920  4.17920  0.00000 -0.35841
       2     C     2.95707  2.95707  0.00000  0.08585
       3     O     3.86372  3.86372  0.00000  0.27255
       4     O     3.86372  3.86372  0.00000  0.27255
       5     C     2.95707  2.95707  0.00000  0.08585
       6     O     4.17920  4.17920  0.00000 -0.35841

   Total alpha = 22.00000, Total beta = 22.00000, Total charge = -0.00000

*** Psi4 exiting successfully. Buy a developer a beer!
