                               Psi4 1.9.1 release

  ==> Input File <==

--------------------------------------------------------------------------
memory 5 gb

molecule {
0 1
O     -2.326000     0.000000     0.000000
C     -1.163000     0.000000     0.000000
O      0.000000     0.000000     0.000000
O      1.527351     1.527351     0.000000
C      2.349716     2.349716     0.000000
O      3.172081     3.172081     0.000000
}

set basis cc-pVTZ
E, wfn = energy('ccsd(t)', return_wfn=True)
oeprop(wfn,'MULLIKEN_CHARGES')

--------------------------------------------------------------------------

    Molecular point group: cs

    Geometry (in Angstrom), charge = 0, multiplicity = 1:

       Center              X                  Y                   Z               Mass
    ------------   -----------------  -----------------  -----------------  -----------------
         O           -2.919358000000    -1.174858000000     0.000000000000    15.994914619570
         C           -1.756358000000    -1.174858000000     0.000000000000    12.000000000000
         O           -0.593358000000    -1.174858000000     0.000000000000    15.994914619570
         O            0.933993000000     0.352493000000     0.000000000000    15.994914619570
         C            1.756358000000     1.174858000000     0.000000000000    12.000000000000
         O            2.578723000000     1.997223000000     0.000000000000    15.994914619570

  Charge       = 0
  Multiplicity = 1
  Basis Set: CC-PVTZ
    Blend: CC-PVTZ

    Orbital Energies [Eh]
    ---------------------

    Doubly Occupied:

       1Ap   -20.645003     2Ap   -20.640499     3Ap   -20.639157
       4Ap   -20.635274     5Ap   -11.452062     6Ap   -11.448019
       7Ap    -1.524234     8Ap    -1.517424     9Ap    -1.471736
      10Ap    -1.463200    11Ap    -0.827171    12Ap    -0.777981
      13Ap    -0.751795    14Ap    -0.715387     1App   -0.709452
      15Ap    -0.705327     2App   -0.701406    16Ap    -0.685970
       3App   -0.542434    17Ap    -0.539362     4App   -0.527270
      18Ap    -0.525350

  @RHF Final Energy:  -375.39178794215871

   => Energetics <=

    Nuclear Repulsion Energy =            183.1623735085543956
    One-Electron Energy =                -878.2172973161558502
    Two-Electron Energy =                 319.6631358654427117
    Total Energy =                       -375.3917879421587145
 Dipole X            :          0.0539189            0.0000000            0.0539189
 Dipole Y            :         -0.0148813           -0.0000000           -0.0148813
 Dipole Z            :          0.0000000            0.0000000            0.0000000
 Magnitude           :                                                    0.0559348
      * MP2 total energy                      = -376.683274707753696
      * CCSD total energy                     = -376.662497315183941
      * CCSD(T) total energy                  = -376.721422525633727

  Mulliken Charges: (a.u.)
   Center  Symbol    Alpha    Beta     Spin     Total
       1     O     4.14235  4.14235  0.00000 -0.28469
       2     C     2.73643  2.73643  0.00000  0.52714
       3     O     4.12250  4.12250  0.00000 -0.24500
       4     O     4.11203  4.11203  0.00000 -0.22406
       5     C     2.74010  2.74010  0.00000  0.51979
       6     O     4.14659  4.14659  0.00000 -0.29318

   Total alpha = 22.00000, Total beta = 22.00000, Total charge =  0.00000

*** Psi4 exiting successfully. Buy a developer a beer!
