                               Psi4 1.9.1 release

  ==> Input File <==

--------------------------------------------------------------------------
memory 5 gb

molecule {
0 1
O     -2.326000     0.000000     0.000000
C     -1.163000     0.000000     0.000000
O      0.000000     0.000000     0.000000
O      1.840000     0.000000     0.000000
C      3.003000     0.000000     0.000000
O      4.166000     0.000000     0.000000
}

set basis cc-pVTZ
E, wfn = energy('ccsd(t)', return_wfn=True)
oeprop(wfn,'MULLIKEN_CHARGES')

--------------------------------------------------------------------------

    Molecular point group: d2h

    Geometry (in Angstrom), charge = 0, multiplicity = 1:

       Center              X                  Y                   Z               Mass
    ------------   -----------------  -----------------  -----------------  -----------------
         O           -3.246000000000    -0.000000000000     0.000000000000    15.994914619570
         C           -2.083000000000    -0.000000000000     0.000000000000    12.000000000000
         O           -0.920000000000    -0.000000000000     0.000000000000    15.994914619570
         O            0.920000000000     0.000000000000     0.000000000000    15.994914619570
         C            2.083000000000     0.000000000000     0.000000000000    12.000000000000
         O            3.246000000000     0.000000000000     0.000000000000    15.994914619570

  Charge       = 0
  Multiplicity = 1
  Basis Set: CC-PVTZ
    Blend: CC-PVTZ

    Orbital Energies [Eh]
    ---------------------

    Doubly Occupied:

       1B3u  -20.638930     1Ag   -20.638929     2B3u  -20.625066
       2Ag   -20.625052     3B3u  -11.442304     3Ag   -11.442302
       4Ag    -1.524052     4B3u   -1.511967     5Ag    -1.471828
       5B3u   -1.455466     6Ag    -0.878966     6B3u   -0.767773
       7Ag    -0.753728     1B1u   -0.708826     1B2u   -0.708826
       1B1g   -0.694718     1B2g   -0.694718     7B3u   -0.625441
       2B2u   -0.545877     2B1u   -0.545877     2B2g   -0.515796
       2B1g   -0.515796

  @RHF Final Energy:  -375.34516443496295

   => Energetics <=

    Nuclear Repulsion Energy =            187.3870699293307212
    One-Electron Energy =                -886.7999934019667307
    Two-Electron Energy =                 324.0677590376731132
    Total Energy =                       -375.3451644349629532
 Dipole X            :          0.0000000            0.0000000            0.0000000
 Dipole Y            :          0.0000000            0.0000000            0.0000000
 Dipole Z            :          0.0000000            0.0000000            0.0000000
 Magnitude           :                                                    0.0000000
      * MP2 total energy                      = -376.642893937795350
      * CCSD total energy                     = -376.620584822117280
      * CCSD(T) total energy                  = -376.680020659959155

  Mulliken Charges: (a.u.)
   Center  Symbol    Alpha    Beta     Spin     Total
       1     O     4.15402  4.15402  0.00000 -0.30803
       2     C     2.74118  2.74118  0.00000  0.51764
       3     O     4.10481  4.10481  0.00000 -0.20961
       4     O     4.10481  4.10481  0.00000 -0.20961
       5     C     2.74118  2.74118  0.00000  0.51764
       6     O     4.15402  4.15402  0.00000 -0.30803

   Total alpha = 22.00000, Total beta = 22.00000, Total charge = -0.00000

*** Psi4 exiting successfully. Buy a developer a beer!
