                               Psi4 1.9.1 release

  ==> Input File <==

--------------------------------------------------------------------------
memory 5 gb

molecule {
0 1
O     -2.326000     0.000000     0.000000
C     -1.163000     0.000000     0.000000
O      0.000000     0.000000     0.000000
O      1.555635     1.555635     0.000000
C      2.378000     2.378000     0.000000
O      3.200365     3.200365     0.000000
}

set basis cc-pVTZ
E, wfn = energy('ccsd(t)', return_wfn=True)
oeprop(wfn,'MULLIKEN_CHARGES')

--------------------------------------------------------------------------

    Molecular point group: cs

    Geometry (in Angstrom), charge = 0, multiplicity = 1:

       Center              X                  Y                   Z               Mass
    ------------   -----------------  -----------------  -----------------  -----------------
         O           -2.933500000000    -1.189000000000     0.000000000000    15.994914619570
         C           -1.770500000000    -1.189000000000     0.000000000000    12.000000000000
         O           -0.607500000000    -1.189000000000     0.000000000000    15.994914619570
         O            0.948135000000     0.366635000000     0.000000000000    15.994914619570
         C            1.770500000000     1.189000000000     0.000000000000    12.000000000000
         O            2.592865000000     2.011365000000     0.000000000000    15.994914619570

  Charge       = 0
  Multiplicity = 1
  Basis Set: CC-PVTZ
    Blend: CC-PVTZ

    Orbital Energies [Eh]
    ---------------------

    Doubly Occupied:

       1Ap   -20.645190     2Ap   -20.640920     3Ap   -20.639937
       4Ap   -20.636123     5Ap   -11.452486     6Ap   -11.448605
       7Ap    -1.524153     8Ap    -1.517901     9Ap    -1.471611
      10Ap    -1.463829    11Ap    -0.823773    12Ap    -0.778838
      13Ap    -0.751219    14Ap    -0.715744     1App   -0.709375
      15Ap    -0.705953     2App   -0.701964    16Ap    -0.689049
       3App   -0.542049    17Ap    -0.539365     4App   -0.528159
      18Ap    -0.526600

  @RHF Final Energy:  -375.39475658748518

   => Energetics <=

    Nuclear Repulsion Energy =            182.4034546896153017
    One-Electron Energy =                -876.6907422695313699
    Two-Electron Energy =                 318.8925309924309204
    Total Energy =                       -375.3947565874851762
 Dipole X            :          0.0506353           -0.0000000            0.0506353
 Dipole Y            :         -0.0149099            0.0000000           -0.0149099
 Dipole Z            :          0.0000000            0.0000000            0.0000000
 Magnitude           :                                                    0.0527848
      * MP2 total energy                      = -376.685707481592885
      * CCSD total energy                     = -376.665078910420789
      * CCSD(T) total energy                  = -376.723945955630541

  Mulliken Charges: (a.u.)
   Center  Symbol    Alpha    Beta     Spin     Total
       1     O     4.14203  4.14203  0.00000 -0.28406
       2     C     2.73628  2.73628  0.00000  0.52744
       3     O     4.12278  4.12278  0.00000 -0.24556
       4     O     4.11270  4.11270  0.00000 -0.22540
       5     C     2.74006  2.74006  0.00000  0.51987
       6     O     4.14615  4.14615  0.00000 -0.29230

   Total alpha = 22.00000, Total beta = 22.00000, Total charge =  0.00000

*** Psi4 exiting successfully. Buy a developer a beer!
