                               Psi4 1.9 release

  ==> Input File <==

--------------------------------------------------------------------------
memory 5 gb

molecule {
0 1
O     -2.326000     0.000000     0.000000
C     -1.163000     0.000000     0.000000
O      0.000000     0.000000     0.000000
O      0.000000     1.160000     0.000000
C      0.000000     2.323000     0.000000
O      0.000000     3.486000     0.000000
}

set basis cc-pVTZ
E, wfn = energy('ccsd(t)', return_wfn=True)
oeprop(wfn,'MULLIKEN_CHARGES')

--------------------------------------------------------------------------

    Molecular point group: cs

    Geometry (in Angstrom), charge = 0, multiplicity = 1:

       Center              X                  Y                   Z               Mass
    ------------   -----------------  -----------------  -----------------  -----------------
         O           -1.744500000000    -1.161500000000     0.000000000000    15.994914619570
         C           -0.581500000000    -1.161500000000     0.000000000000    12.000000000000
         O            0.581500000000    -1.161500000000     0.000000000000    15.994914619570
         O            0.581500000000    -0.001500000000     0.000000000000    15.994914619570
         C            0.581500000000     1.161500000000     0.000000000000    12.000000000000
         O            0.581500000000     2.324500000000     0.000000000000    15.994914619570

  Charge       = 0
  Multiplicity = 1
  Basis Set: CC-PVTZ
    Blend: CC-PVTZ

    Orbital Energies [Eh]
    ---------------------

    Doubly Occupied:

       1Ap   -20.797956     2Ap   -20.774759     3Ap   -20.657975
       4Ap   -20.575949     5Ap   -11.483304     6Ap   -11.339807
       7Ap    -1.904422     8Ap    -1.530118     9Ap    -1.481592
      10Ap    -1.424777    11Ap    -1.114548    12Ap    -0.980037
       1App   -0.940074    13Ap    -0.776746    14Ap    -0.734192
       2App   -0.699644    15Ap    -0.698500    16Ap    -0.614444
       3App   -0.581001    17Ap    -0.562023     4App   -0.517900
      18Ap    -0.161273

  @RHF Final Energy:  -374.59868286396431

   => Energetics <=

    Nuclear Repulsion Energy =            224.8748587785023005
    One-Electron Energy =                -958.2450014280734649
    Two-Electron Energy =                 358.7714597856067940
    Total Energy =                       -374.5986828639643136
 Dipole X            :          1.0215749            0.0000000            1.0215749
 Dipole Y            :          0.2051862           -0.0000000            0.2051862
 Dipole Z            :          0.0000000            0.0000000            0.0000000
 Magnitude           :                                                    1.0419773
      * MP2 total energy                      = -375.966249971573745
      * CCSD total energy                     = -375.930945298473375
      * CCSD(T) total energy                  = -376.004714913247653

  Mulliken Charges: (a.u.)
   Center  Symbol    Alpha    Beta     Spin     Total
       1     O     4.16300  4.16300  0.00000 -0.32599
       2     C     2.97431  2.97431  0.00000  0.05138
       3     O     3.98263  3.98263  0.00000  0.03474
       4     O     3.89869  3.89869  0.00000  0.20262
       5     C     2.87263  2.87263  0.00000  0.25474
       6     O     4.10875  4.10875  0.00000 -0.21749

   Total alpha = 22.00000, Total beta = 22.00000, Total charge =  0.00000

*** Psi4 exiting successfully. Buy a developer a beer!
