                               Psi4 1.9.1 release

  ==> Input File <==

--------------------------------------------------------------------------
memory 5 gb

molecule {
0 1
O     -2.326000     0.000000     0.000000
C     -1.163000     0.000000     0.000000
O      0.000000     0.000000     0.000000
O      1.760000     0.000000     0.000000
C      2.923000     0.000000     0.000000
O      4.086000     0.000000     0.000000
}

set basis cc-pVTZ
E, wfn = energy('ccsd(t)', return_wfn=True)
oeprop(wfn,'MULLIKEN_CHARGES')

--------------------------------------------------------------------------

    Molecular point group: d2h

    Geometry (in Angstrom), charge = 0, multiplicity = 1:

       Center              X                  Y                   Z               Mass
    ------------   -----------------  -----------------  -----------------  -----------------
         O           -3.206000000000    -0.000000000000     0.000000000000    15.994914619570
         C           -2.043000000000    -0.000000000000     0.000000000000    12.000000000000
         O           -0.880000000000    -0.000000000000     0.000000000000    15.994914619570
         O            0.880000000000     0.000000000000     0.000000000000    15.994914619570
         C            2.043000000000     0.000000000000     0.000000000000    12.000000000000
         O            3.206000000000     0.000000000000     0.000000000000    15.994914619570

  Charge       = 0
  Multiplicity = 1
  Basis Set: CC-PVTZ
    Blend: CC-PVTZ

    Orbital Energies [Eh]
    ---------------------

    Doubly Occupied:

       1B3u  -20.637889     1Ag   -20.637888     2B3u  -20.621312
       2Ag   -20.621297     3B3u  -11.439824     3Ag   -11.439822
       4Ag    -1.525961     4B3u   -1.510116     5Ag    -1.472966
       5B3u   -1.452655     6Ag    -0.897212     6B3u   -0.765963
       7Ag    -0.753745     1B1u   -0.709916     1B2u   -0.709916
       1B1g   -0.692478     1B2g   -0.692478     7B3u   -0.601767
       2B1u   -0.548244     2B2u   -0.548244     2B2g   -0.511912
       2B1g   -0.511912

  @RHF Final Energy:  -375.32115711647975

   => Energetics <=

    Nuclear Repulsion Energy =            189.3049557890463177
    One-Electron Energy =                -890.6451888800456800
    Two-Electron Energy =                 326.0190759745196374
    Total Energy =                       -375.3211571164797533
 Dipole X            :          0.0000000           -0.0000000           -0.0000000
 Dipole Y            :          0.0000000            0.0000000            0.0000000
 Dipole Z            :          0.0000000            0.0000000            0.0000000
 Magnitude           :                                                    0.0000000
      * MP2 total energy                      = -376.621575737257047
      * CCSD total energy                     = -376.598476159973870
      * CCSD(T) total energy                  = -376.658189601367098

  Mulliken Charges: (a.u.)
   Center  Symbol    Alpha    Beta     Spin     Total
       1     O     4.15571  4.15571  0.00000 -0.31142
       2     C     2.74082  2.74082  0.00000  0.51836
       3     O     4.10347  4.10347  0.00000 -0.20694
       4     O     4.10347  4.10347  0.00000 -0.20694
       5     C     2.74082  2.74082  0.00000  0.51836
       6     O     4.15571  4.15571  0.00000 -0.31142

   Total alpha = 22.00000, Total beta = 22.00000, Total charge =  0.00000

*** Psi4 exiting successfully. Buy a developer a beer!
