                               Psi4 1.9.1 release

  ==> Input File <==

--------------------------------------------------------------------------
memory 5 gb

molecule {
0 1
O     -2.326000     0.000000     0.000000
C     -1.163000     0.000000     0.000000
O      0.000000     0.000000     0.000000
O      1.583919     1.583919     0.000000
C      2.406284     2.406284     0.000000
O      3.228650     3.228650     0.000000
}

set basis cc-pVTZ
E, wfn = energy('ccsd(t)', return_wfn=True)
oeprop(wfn,'MULLIKEN_CHARGES')

--------------------------------------------------------------------------

    Molecular point group: cs

    Geometry (in Angstrom), charge = 0, multiplicity = 1:

       Center              X                  Y                   Z               Mass
    ------------   -----------------  -----------------  -----------------  -----------------
         O           -2.947642181802    -1.203142181802     0.000000000000    15.994914619570
         C           -1.784642181802    -1.203142181802     0.000000000000    12.000000000000
         O           -0.621642181802    -1.203142181802     0.000000000000    15.994914619570
         O            0.962276818198     0.380776818198     0.000000000000    15.994914619570
         C            1.784641818198     1.203141818198     0.000000000000    12.000000000000
         O            2.607007818198     2.025507818198     0.000000000000    15.994914619570

  Charge       = 0
  Multiplicity = 1
  Basis Set: CC-PVTZ
    Blend: CC-PVTZ

    Orbital Energies [Eh]
    ---------------------

    Doubly Occupied:

       1Ap   -20.645367     2Ap   -20.641312     3Ap   -20.640651
       4Ap   -20.636912     5Ap   -11.452878     6Ap   -11.449146
       7Ap    -1.524108     8Ap    -1.518346     9Ap    -1.471518
      10Ap    -1.464407    11Ap    -0.820737    12Ap    -0.779680
      13Ap    -0.750615    14Ap    -0.716235     1App   -0.709323
      15Ap    -0.706516     2App   -0.702483    16Ap    -0.691748
       3App   -0.541714    17Ap    -0.539367     4App   -0.528982
      18Ap    -0.527716

  @RHF Final Energy:  -375.39731024162495

   => Energetics <=

    Nuclear Repulsion Energy =            181.6635789706484729
    One-Electron Energy =                -875.2022542325415770
    Two-Electron Energy =                 318.1413650202681538
    Total Energy =                       -375.3973102416249503
 Dipole X            :          0.0476226            0.0000000            0.0476226
 Dipole Y            :         -0.0148926            0.0000000           -0.0148926
 Dipole Z            :          0.0000000            0.0000000            0.0000000
 Magnitude           :                                                    0.0498969
      * MP2 total energy                      = -376.687777165738737
      * CCSD total energy                     = -376.667281063492339
      * CCSD(T) total energy                  = -376.726095366434549

  Mulliken Charges: (a.u.)
   Center  Symbol    Alpha    Beta     Spin     Total
       1     O     4.14174  4.14174  0.00000 -0.28347
       2     C     2.73617  2.73617  0.00000  0.52766
       3     O     4.12301  4.12301  0.00000 -0.24602
       4     O     4.11341  4.11341  0.00000 -0.22683
       5     C     2.73995  2.73995  0.00000  0.52010
       6     O     4.14572  4.14572  0.00000 -0.29145

   Total alpha = 22.00000, Total beta = 22.00000, Total charge =  0.00000

*** Psi4 exiting successfully. Buy a developer a beer!
