                               Psi4 1.9 release

  ==> Input File <==

--------------------------------------------------------------------------
memory 5 gb

molecule {
0 1
O     -2.326000     0.000000     0.000000
C     -1.163000     0.000000     0.000000
O      0.000000     0.000000     0.000000
O      1.120000     0.000000     0.000000
C      2.283000     0.000000     0.000000
O      3.446000     0.000000     0.000000
}

set basis cc-pVTZ
E, wfn = energy('ccsd(t)', return_wfn=True)
oeprop(wfn,'MULLIKEN_CHARGES')

--------------------------------------------------------------------------

    Molecular point group: d2h

    Geometry (in Angstrom), charge = 0, multiplicity = 1:

       Center              X                  Y                   Z               Mass
    ------------   -----------------  -----------------  -----------------  -----------------
         O           -2.886000000000    -0.000000000000     0.000000000000    15.994914619570
         C           -1.723000000000    -0.000000000000     0.000000000000    12.000000000000
         O           -0.560000000000    -0.000000000000     0.000000000000    15.994914619570
         O            0.560000000000     0.000000000000     0.000000000000    15.994914619570
         C            1.723000000000     0.000000000000     0.000000000000    12.000000000000
         O            2.886000000000     0.000000000000     0.000000000000    15.994914619570

  Charge       = 0
  Multiplicity = 1
  Basis Set: CC-PVTZ
    Blend: CC-PVTZ

    Orbital Energies [Eh]
    ---------------------

    Doubly Occupied:

       1Ag   -20.852077     1B3u  -20.851094     2B3u  -20.593233
       2Ag   -20.593232     3Ag   -11.418944     3B3u  -11.418928
       4Ag    -1.900381     4B3u   -1.540565     5Ag    -1.448542
       5B3u   -1.434800     6Ag    -1.267454     1B1u   -0.982921
       1B2u   -0.979448     1B2g   -0.721114     6B3u   -0.719304
       7Ag    -0.716647     1B1g   -0.711899     2B1u   -0.611853
       2B2u   -0.575595     2B2g   -0.534198     2B1g   -0.512385
       3B1u   -0.118787

  @RHF Final Energy:  -374.51995168613507

   => Energetics <=

    Nuclear Repulsion Energy =            211.0471983264363018
    One-Electron Energy =                -930.1274980958983178
    Two-Electron Energy =                 344.5603480833269714
    Total Energy =                       -374.5199516861350730
 Dipole X            :          0.0000000           -0.0000000           -0.0000000
 Dipole Y            :          0.0000000            0.0000000            0.0000000
 Dipole Z            :          0.0000000            0.0000000            0.0000000
 Magnitude           :                                                    0.0000000
      * MP2 total energy                      = -375.890901138596632
      * CCSD total energy                     = -375.851896252051063
      * CCSD(T) total energy                  = -375.927923460135389

  Mulliken Charges: (a.u.)
   Center  Symbol    Alpha    Beta     Spin     Total
       1     O     4.16967  4.16967  0.00000 -0.33933
       2     C     2.93858  2.93858  0.00000  0.12284
       3     O     3.89175  3.89175  0.00000  0.21649
       4     O     3.89175  3.89175  0.00000  0.21649
       5     C     2.93858  2.93858  0.00000  0.12284
       6     O     4.16967  4.16967  0.00000 -0.33933

   Total alpha = 22.00000, Total beta = 22.00000, Total charge =  0.00000

*** Psi4 exiting successfully. Buy a developer a beer!
