                               Psi4 1.9 release

  ==> Input File <==

--------------------------------------------------------------------------
memory 5 gb

molecule {
0 1
O     -2.326000     0.000000     0.000000
C     -1.163000     0.000000     0.000000
O      0.000000     0.000000     0.000000
O      1.400000     0.000000     0.000000
C      2.563000     0.000000     0.000000
O      3.726000     0.000000     0.000000
}

set basis cc-pVTZ
E, wfn = energy('ccsd(t)', return_wfn=True)
oeprop(wfn,'MULLIKEN_CHARGES')

--------------------------------------------------------------------------

    Molecular point group: d2h

    Geometry (in Angstrom), charge = 0, multiplicity = 1:

       Center              X                  Y                   Z               Mass
    ------------   -----------------  -----------------  -----------------  -----------------
         O           -3.026000000000    -0.000000000000     0.000000000000    15.994914619570
         C           -1.863000000000    -0.000000000000     0.000000000000    12.000000000000
         O           -0.700000000000    -0.000000000000     0.000000000000    15.994914619570
         O            0.700000000000     0.000000000000     0.000000000000    15.994914619570
         C            1.863000000000     0.000000000000     0.000000000000    12.000000000000
         O            3.026000000000     0.000000000000     0.000000000000    15.994914619570

  Charge       = 0
  Multiplicity = 1
  Basis Set: CC-PVTZ
    Blend: CC-PVTZ

    Orbital Energies [Eh]
    ---------------------

    Doubly Occupied:

       1B3u  -20.630690     1Ag   -20.630689     2Ag   -20.606596
       2B3u  -20.606533     3B3u  -11.420173     3Ag   -11.420166
       4Ag    -1.569503     4B3u   -1.498722     5Ag    -1.478336
       5B3u   -1.434598     6Ag    -1.020913     6B3u   -0.757113
       7Ag    -0.750377     1B2u   -0.729835     1B1u   -0.729835
       1B2g   -0.678022     1B1g   -0.678022     2B1u   -0.568852
       2B2u   -0.568852     2B1g   -0.486018     2B2g   -0.486018
       7B3u   -0.415714

  @RHF Final Energy:  -375.06630313843300

   => Energetics <=

    Nuclear Repulsion Energy =            199.7732520587404110
    One-Electron Energy =                -911.3479539177626521
    Two-Electron Energy =                 336.5083987205892981
    Total Energy =                       -375.0663031384329997
 Dipole X            :          0.0000000           -0.0000000           -0.0000000
 Dipole Y            :          0.0000000            0.0000000            0.0000000
 Dipole Z            :          0.0000000            0.0000000            0.0000000
 Magnitude           :                                                    0.0000000
      * MP2 total energy                      = -376.393809887291809
      * CCSD total energy                     = -376.362280609338598
      * CCSD(T) total energy                  = -376.425501092016759

  Mulliken Charges: (a.u.)
   Center  Symbol    Alpha    Beta     Spin     Total
       1     O     4.16100  4.16100  0.00000 -0.32200
       2     C     2.74770  2.74770  0.00000  0.50461
       3     O     4.09131  4.09131  0.00000 -0.18261
       4     O     4.09131  4.09131  0.00000 -0.18261
       5     C     2.74770  2.74770  0.00000  0.50461
       6     O     4.16100  4.16100  0.00000 -0.32200

   Total alpha = 22.00000, Total beta = 22.00000, Total charge = -0.00000

*** Psi4 exiting successfully. Buy a developer a beer!
