                               Psi4 1.9.1 release

  ==> Input File <==

--------------------------------------------------------------------------
memory 5 gb

molecule {
0 1
O     -2.326000     0.000000     0.000000
C     -1.163000     0.000000     0.000000
O      0.000000     0.000000     0.000000
O      1.442498     1.442498     0.000000
C      2.264863     2.264863     0.000000
O      3.087228     3.087228     0.000000
}

set basis cc-pVTZ
E, wfn = energy('ccsd(t)', return_wfn=True)
oeprop(wfn,'MULLIKEN_CHARGES')

--------------------------------------------------------------------------

    Molecular point group: cs

    Geometry (in Angstrom), charge = 0, multiplicity = 1:

       Center              X                  Y                   Z               Mass
    ------------   -----------------  -----------------  -----------------  -----------------
         O           -2.876931500000    -1.132431500000     0.000000000000    15.994914619570
         C           -1.713931500000    -1.132431500000     0.000000000000    12.000000000000
         O           -0.550931500000    -1.132431500000     0.000000000000    15.994914619570
         O            0.891566500000     0.310066500000     0.000000000000    15.994914619570
         C            1.713931500000     1.132431500000     0.000000000000    12.000000000000
         O            2.536296500000     1.954796500000     0.000000000000    15.994914619570

  Charge       = 0
  Multiplicity = 1
  Basis Set: CC-PVTZ
    Blend: CC-PVTZ

    Orbital Energies [Eh]
    ---------------------

    Doubly Occupied:

       1Ap   -20.644391     2Ap   -20.639026     3Ap   -20.636389
       4Ap   -20.632350     5Ap   -11.450571     6Ap   -11.445940
       7Ap    -1.524797     8Ap    -1.515785     9Ap    -1.472347
      10Ap    -1.460966    11Ap    -0.839898    12Ap    -0.775359
      13Ap    -0.753287    14Ap    -0.715077     1App   -0.709894
      15Ap    -0.703116     2App   -0.699474    16Ap    -0.674315
       3App   -0.543961    17Ap    -0.539324     4App   -0.524166
      18Ap    -0.520556

  @RHF Final Energy:  -375.37968149509413

   => Energetics <=

    Nuclear Repulsion Energy =            185.5623302655253042
    One-Electron Energy =                -883.0420465820526488
    Two-Electron Energy =                 322.1000348214332689
    Total Energy =                       -375.3796814950941325
 Dipole X            :          0.0657973            0.0000000            0.0657973
 Dipole Y            :         -0.0143489            0.0000000           -0.0143489
 Dipole Z            :          0.0000000            0.0000000            0.0000000
 Magnitude           :                                                    0.0673437
      * MP2 total energy                      = -376.673161731599578
      * CCSD total energy                     = -376.651815484954341
      * CCSD(T) total energy                  = -376.710955457138027

  Mulliken Charges: (a.u.)
   Center  Symbol    Alpha    Beta     Spin     Total
       1     O     4.14348  4.14348  0.00000 -0.28696
       2     C     2.73721  2.73721  0.00000  0.52558
       3     O     4.12124  4.12124  0.00000 -0.24248
       4     O     4.11030  4.11030  0.00000 -0.22061
       5     C     2.73976  2.73976  0.00000  0.52049
       6     O     4.14801  4.14801  0.00000 -0.29603

   Total alpha = 22.00000, Total beta = 22.00000, Total charge = -0.00000

*** Psi4 exiting successfully. Buy a developer a beer!
