                               Psi4 1.9 release

  ==> Input File <==

--------------------------------------------------------------------------
memory 5 gb

molecule {
0 1
O     -2.326000     0.000000     0.000000
C     -1.163000     0.000000     0.000000
O      0.000000     0.000000     0.000000
O      0.000000     1.480000     0.000000
C      0.000000     2.643000     0.000000
O      0.000000     3.806000     0.000000
}

set basis cc-pVTZ
E, wfn = energy('ccsd(t)', return_wfn=True)
oeprop(wfn,'MULLIKEN_CHARGES')

--------------------------------------------------------------------------

    Molecular point group: cs

    Geometry (in Angstrom), charge = 0, multiplicity = 1:

       Center              X                  Y                   Z               Mass
    ------------   -----------------  -----------------  -----------------  -----------------
         O           -1.744500000000    -1.321500000000     0.000000000000    15.994914619570
         C           -0.581500000000    -1.321500000000     0.000000000000    12.000000000000
         O            0.581500000000    -1.321500000000     0.000000000000    15.994914619570
         O            0.581500000000     0.158500000000     0.000000000000    15.994914619570
         C            0.581500000000     1.321500000000     0.000000000000    12.000000000000
         O            0.581500000000     2.484500000000     0.000000000000    15.994914619570

  Charge       = 0
  Multiplicity = 1
  Basis Set: CC-PVTZ
    Blend: CC-PVTZ

    Orbital Energies [Eh]
    ---------------------

    Doubly Occupied:

       1Ap   -20.653108     2Ap   -20.632599     3Ap   -20.631707
       4Ap   -20.609472     5Ap   -11.447802     6Ap   -11.431494
       7Ap    -1.602020     8Ap    -1.511654     9Ap    -1.484328
      10Ap    -1.441913    11Ap    -0.932671    12Ap    -0.811490
      13Ap    -0.770886     1App   -0.750185    14Ap    -0.744367
      15Ap    -0.695032     2App   -0.685473    16Ap    -0.623980
       3App   -0.574066    17Ap    -0.542330     4App   -0.501517
      18Ap    -0.382530

  @RHF Final Energy:  -375.09992032486366

   => Energetics <=

    Nuclear Repulsion Energy =            211.4410302387374543
    One-Electron Energy =                -934.1606495889986945
    Two-Electron Energy =                 347.6196990253976082
    Total Energy =                       -375.0999203248636604
 Dipole X            :          0.2601297            0.0000000            0.2601297
 Dipole Y            :          0.1682366            0.0000000            0.1682366
 Dipole Z            :          0.0000000            0.0000000            0.0000000
 Magnitude           :                                                    0.3097919
      * MP2 total energy                      = -376.429007267291468
      * CCSD total energy                     = -376.397422078805960
      * CCSD(T) total energy                  = -376.461200541889923

  Mulliken Charges: (a.u.)
   Center  Symbol    Alpha    Beta     Spin     Total
       1     O     4.14567  4.14567  0.00000 -0.29134
       2     C     2.76598  2.76598  0.00000  0.46804
       3     O     4.09450  4.09450  0.00000 -0.18901
       4     O     4.10436  4.10436  0.00000 -0.20872
       5     C     2.74536  2.74536  0.00000  0.50928
       6     O     4.14412  4.14412  0.00000 -0.28825

   Total alpha = 22.00000, Total beta = 22.00000, Total charge =  0.00000

*** Psi4 exiting successfully. Buy a developer a beer!
