                               Psi4 1.9.1 release

  ==> Input File <==

--------------------------------------------------------------------------
memory 5 gb

molecule {
0 1
O     -2.326000     0.000000     0.000000
C     -1.163000     0.000000     0.000000
O      0.000000     0.000000     0.000000
O      0.000000     1.920000     0.000000
C      0.000000     3.083000     0.000000
O      0.000000     4.246000     0.000000
}

set basis cc-pVTZ
E, wfn = energy('ccsd(t)', return_wfn=True)
oeprop(wfn,'MULLIKEN_CHARGES')

--------------------------------------------------------------------------

    Molecular point group: cs

    Geometry (in Angstrom), charge = 0, multiplicity = 1:

       Center              X                  Y                   Z               Mass
    ------------   -----------------  -----------------  -----------------  -----------------
         O           -1.744500000000    -1.541500000000     0.000000000000    15.994914619570
         C           -0.581500000000    -1.541500000000     0.000000000000    12.000000000000
         O            0.581500000000    -1.541500000000     0.000000000000    15.994914619570
         O            0.581500000000     0.378500000000     0.000000000000    15.994914619570
         C            0.581500000000     1.541500000000     0.000000000000    12.000000000000
         O            0.581500000000     2.704500000000     0.000000000000    15.994914619570

  Charge       = 0
  Multiplicity = 1
  Basis Set: CC-PVTZ
    Blend: CC-PVTZ

    Orbital Energies [Eh]
    ---------------------

    Doubly Occupied:

       1Ap   -20.655576     2Ap   -20.644833     3Ap   -20.637268
       4Ap   -20.619383     5Ap   -11.461609     6Ap   -11.441826
       7Ap    -1.540676     8Ap    -1.513777     9Ap    -1.483127
      10Ap    -1.456621    11Ap    -0.846728    12Ap    -0.786822
      13Ap    -0.767355    14Ap    -0.732435     1App   -0.723472
      15Ap    -0.711072     2App   -0.695307    16Ap    -0.657271
       3App   -0.554816    17Ap    -0.548133     4App   -0.520875
      18Ap    -0.503876

  @RHF Final Energy:  -375.34922360580089

   => Energetics <=

    Nuclear Repulsion Energy =            198.0051326457642062
    One-Electron Energy =                -907.7029950062556054
    Two-Electron Energy =                 334.3486387546905121
    Total Energy =                       -375.3492236058008871
 Dipole X            :          0.1312048            0.0000000            0.1312048
 Dipole Y            :          0.1253307            0.0000000            0.1253307
 Dipole Z            :          0.0000000            0.0000000            0.0000000
 Magnitude           :                                                    0.1814455
      * MP2 total energy                      = -376.647594443048263
      * CCSD total energy                     = -376.625225667689847
      * CCSD(T) total energy                  = -376.685074433009106

  Mulliken Charges: (a.u.)
   Center  Symbol    Alpha    Beta     Spin     Total
       1     O     4.14363  4.14363  0.00000 -0.28726
       2     C     2.73688  2.73688  0.00000  0.52625
       3     O     4.12647  4.12647  0.00000 -0.25294
       4     O     4.11612  4.11612  0.00000 -0.23223
       5     C     2.73469  2.73469  0.00000  0.53062
       6     O     4.14222  4.14222  0.00000 -0.28444

   Total alpha = 22.00000, Total beta = 22.00000, Total charge =  0.00000

*** Psi4 exiting successfully. Buy a developer a beer!
