                               Psi4 1.9 release

  ==> Input File <==

--------------------------------------------------------------------------
memory 5 gb

molecule {
0 1
O     -2.326000     0.000000     0.000000
C     -1.163000     0.000000     0.000000
O      0.000000     0.000000     0.000000
O      0.989949     0.989949     0.000000
C      1.812315     1.812315     0.000000
O      2.634680     2.634680     0.000000
}

set basis cc-pVTZ
E, wfn = energy('ccsd(t)', return_wfn=True)
oeprop(wfn,'MULLIKEN_CHARGES')

--------------------------------------------------------------------------

    Molecular point group: cs

    Geometry (in Angstrom), charge = 0, multiplicity = 1:

       Center              X                  Y                   Z               Mass
    ------------   -----------------  -----------------  -----------------  -----------------
         O           -2.650657318198    -0.906157318198     0.000000000000    15.994914619570
         C           -1.487657318198    -0.906157318198     0.000000000000    12.000000000000
         O           -0.324657318198    -0.906157318198     0.000000000000    15.994914619570
         O            0.665291681802     0.083791681802     0.000000000000    15.994914619570
         C            1.487657681802     0.906157681802     0.000000000000    12.000000000000
         O            2.310022681802     1.728522681802     0.000000000000    15.994914619570

  Charge       = 0
  Multiplicity = 1
  Basis Set: CC-PVTZ
    Blend: CC-PVTZ

    Orbital Energies [Eh]
    ---------------------

    Doubly Occupied:

       1Ap   -20.644875     2Ap   -20.628691     3Ap   -20.628496
       4Ap   -20.613484     5Ap   -11.439447     6Ap   -11.408685
       7Ap    -1.592299     8Ap    -1.505434     9Ap    -1.474725
      10Ap    -1.437928    11Ap    -1.013557    12Ap    -0.768838
      13Ap    -0.756531     1App   -0.744638    14Ap    -0.735773
      15Ap    -0.685794     2App   -0.680845    16Ap    -0.594715
       3App   -0.573412    17Ap    -0.528303     4App   -0.493636
      18Ap    -0.370192

  @RHF Final Energy:  -375.07025396873667

   => Energetics <=

    Nuclear Repulsion Energy =            202.7949154571051338
    One-Electron Energy =                -917.0897459844582045
    Two-Electron Energy =                 339.2245765586163770
    Total Energy =                       -375.0702539687366652
 Dipole X            :          0.3776156           -0.0000000            0.3776156
 Dipole Y            :          0.1064059           -0.0000000            0.1064059
 Dipole Z            :          0.0000000            0.0000000            0.0000000
 Magnitude           :                                                    0.3923210
      * MP2 total energy                      = -376.403931170485009
      * CCSD total energy                     = -376.369531705703082
      * CCSD(T) total energy                  = -376.433540712257127

  Mulliken Charges: (a.u.)
   Center  Symbol    Alpha    Beta     Spin     Total
       1     O     4.15954  4.15954  0.00000 -0.31908
       2     C     2.77269  2.77269  0.00000  0.45462
       3     O     4.08144  4.08144  0.00000 -0.16289
       4     O     4.08953  4.08953  0.00000 -0.17906
       5     C     2.74492  2.74492  0.00000  0.51016
       6     O     4.15187  4.15187  0.00000 -0.30375

   Total alpha = 22.00000, Total beta = 22.00000, Total charge =  0.00000

*** Psi4 exiting successfully. Buy a developer a beer!
