                               Psi4 1.9.1 release

  ==> Input File <==

--------------------------------------------------------------------------
memory 5 gb

molecule {
0 1
O     -2.326000     0.000000     0.000000
C     -1.163000     0.000000     0.000000
O      0.000000     0.000000     0.000000
O      2.000000     0.000000     0.000000
C      3.163000     0.000000     0.000000
O      4.326000     0.000000     0.000000
}

set basis cc-pVTZ
E, wfn = energy('ccsd(t)', return_wfn=True)
oeprop(wfn,'MULLIKEN_CHARGES')

--------------------------------------------------------------------------

    Molecular point group: d2h

    Geometry (in Angstrom), charge = 0, multiplicity = 1:

       Center              X                  Y                   Z               Mass
    ------------   -----------------  -----------------  -----------------  -----------------
         O           -3.326000000000    -0.000000000000     0.000000000000    15.994914619570
         C           -2.163000000000    -0.000000000000     0.000000000000    12.000000000000
         O           -1.000000000000    -0.000000000000     0.000000000000    15.994914619570
         O            1.000000000000     0.000000000000     0.000000000000    15.994914619570
         C            2.163000000000     0.000000000000     0.000000000000    12.000000000000
         O            3.326000000000     0.000000000000     0.000000000000    15.994914619570

  Charge       = 0
  Multiplicity = 1
  Basis Set: CC-PVTZ
    Blend: CC-PVTZ

    Orbital Energies [Eh]
    ---------------------

    Doubly Occupied:

       1B3u  -20.640663     1Ag   -20.640663     2B3u  -20.631277
       2Ag   -20.631265     3B3u  -11.446105     3Ag   -11.446104
       4Ag    -1.522351     4B3u   -1.515055     5Ag    -1.470357
       5B3u   -1.459892     6Ag    -0.850603     6B3u   -0.771395
       7Ag    -0.752969     1B2u   -0.707744     1B1u   -0.707744
       1B2g   -0.698381     1B1g   -0.698381     7B3u   -0.661025
       2B1u   -0.542634     2B2u   -0.542634     2B1g   -0.521978
       2B2g   -0.521978

  @RHF Final Energy:  -375.37610570386335

   => Energetics <=

    Nuclear Repulsion Energy =            183.8850122959216264
    One-Electron Energy =                -879.7598385300202608
    Two-Electron Energy =                 320.4987205302353459
    Total Energy =                       -375.3761057038633453
 Dipole X            :          0.0000000            0.0000000            0.0000000
 Dipole Y            :          0.0000000           -0.0000000           -0.0000000
 Dipole Z            :          0.0000000            0.0000000            0.0000000
 Magnitude           :                                                    0.0000000
      * MP2 total energy                      = -376.670018195983459
      * CCSD total energy                     = -376.648791348434997
      * CCSD(T) total energy                  = -376.707848557520890

  Mulliken Charges: (a.u.)
   Center  Symbol    Alpha    Beta     Spin     Total
       1     O     4.15095  4.15095  0.00000 -0.30190
       2     C     2.74223  2.74223  0.00000  0.51555
       3     O     4.10683  4.10683  0.00000 -0.21365
       4     O     4.10683  4.10683  0.00000 -0.21365
       5     C     2.74223  2.74223  0.00000  0.51555
       6     O     4.15095  4.15095  0.00000 -0.30190

   Total alpha = 22.00000, Total beta = 22.00000, Total charge =  0.00000

*** Psi4 exiting successfully. Buy a developer a beer!
