                               Psi4 1.9.1 release

  ==> Input File <==

--------------------------------------------------------------------------
memory 5 gb

molecule {
0 1
O     -2.326000     0.000000     0.000000
C     -1.163000     0.000000     0.000000
O      0.000000     0.000000     0.000000
O      0.000000     1.680000     0.000000
C      0.000000     2.843000     0.000000
O      0.000000     4.006000     0.000000
}

set basis cc-pVTZ
E, wfn = energy('ccsd(t)', return_wfn=True)
oeprop(wfn,'MULLIKEN_CHARGES')

--------------------------------------------------------------------------

    Molecular point group: cs

    Geometry (in Angstrom), charge = 0, multiplicity = 1:

       Center              X                  Y                   Z               Mass
    ------------   -----------------  -----------------  -----------------  -----------------
         O           -1.744500000000    -1.421500000000     0.000000000000    15.994914619570
         C           -0.581500000000    -1.421500000000     0.000000000000    12.000000000000
         O            0.581500000000    -1.421500000000     0.000000000000    15.994914619570
         O            0.581500000000     0.258500000000     0.000000000000    15.994914619570
         C            0.581500000000     1.421500000000     0.000000000000    12.000000000000
         O            0.581500000000     2.584500000000     0.000000000000    15.994914619570

  Charge       = 0
  Multiplicity = 1
  Basis Set: CC-PVTZ
    Blend: CC-PVTZ

    Orbital Energies [Eh]
    ---------------------

    Doubly Occupied:

       1Ap   -20.654863     2Ap   -20.636389     3Ap   -20.635171
       4Ap   -20.609344     5Ap   -11.456318     6Ap   -11.437075
       7Ap    -1.557779     8Ap    -1.512978     9Ap    -1.484542
      10Ap    -1.449645    11Ap    -0.885277    12Ap    -0.791876
      13Ap    -0.770383    14Ap    -0.738599     1App   -0.731607
      15Ap    -0.702943     2App   -0.690481    16Ap    -0.636474
       3App   -0.562532    17Ap    -0.545957     4App   -0.511454
      18Ap    -0.460635

  @RHF Final Energy:  -375.25885712943267

   => Energetics <=

    Nuclear Repulsion Energy =            204.7823528996653693
    One-Electron Energy =                -921.1577793353336574
    Two-Electron Energy =                 341.1165693062355899
    Total Energy =                       -375.2588571294326698
 Dipole X            :          0.1815601            0.0000000            0.1815601
 Dipole Y            :          0.1464028            0.0000000            0.1464028
 Dipole Z            :          0.0000000            0.0000000            0.0000000
 Magnitude           :                                                    0.2332335
      * MP2 total energy                      = -376.568668106465282
      * CCSD total energy                     = -376.543044104657554
      * CCSD(T) total energy                  = -376.604283489010413

  Mulliken Charges: (a.u.)
   Center  Symbol    Alpha    Beta     Spin     Total
       1     O     4.14488  4.14488  0.00000 -0.28976
       2     C     2.74642  2.74642  0.00000  0.50717
       3     O     4.11631  4.11631  0.00000 -0.23261
       4     O     4.11235  4.11235  0.00000 -0.22470
       5     C     2.73625  2.73625  0.00000  0.52751
       6     O     4.14381  4.14381  0.00000 -0.28761

   Total alpha = 22.00000, Total beta = 22.00000, Total charge =  0.00000

*** Psi4 exiting successfully. Buy a developer a beer!
