                               Psi4 1.9.1 release

  ==> Input File <==

--------------------------------------------------------------------------
memory 5 gb

molecule {
0 1
O     -2.326000     0.000000     0.000000
C     -1.163000     0.000000     0.000000
O      0.000000     0.000000     0.000000
O      1.272792     1.272792     0.000000
C      2.095157     2.095157     0.000000
O      2.917523     2.917523     0.000000
}

set basis cc-pVTZ
E, wfn = energy('ccsd(t)', return_wfn=True)
oeprop(wfn,'MULLIKEN_CHARGES')

--------------------------------------------------------------------------

    Molecular point group: cs

    Geometry (in Angstrom), charge = 0, multiplicity = 1:

       Center              X                  Y                   Z               Mass
    ------------   -----------------  -----------------  -----------------  -----------------
         O           -2.792078681802    -1.047578681802     0.000000000000    15.994914619570
         C           -1.629078681802    -1.047578681802     0.000000000000    12.000000000000
         O           -0.466078681802    -1.047578681802     0.000000000000    15.994914619570
         O            0.806713318198     0.225213318198     0.000000000000    15.994914619570
         C            1.629078318198     1.047578318198     0.000000000000    12.000000000000
         O            2.451444318198     1.869944318198     0.000000000000    15.994914619570

  Charge       = 0
  Multiplicity = 1
  Basis Set: CC-PVTZ
    Blend: CC-PVTZ

    Orbital Energies [Eh]
    ---------------------

    Doubly Occupied:

       1Ap   -20.643019     2Ap   -20.634692     3Ap   -20.628897
       4Ap   -20.625061     5Ap   -11.446367     6Ap   -11.439640
       7Ap    -1.529273     8Ap    -1.511470     9Ap    -1.474990
      10Ap    -1.454518    11Ap    -0.880206    12Ap    -0.770157
      13Ap    -0.754577    14Ap    -0.717850     1App   -0.712684
      15Ap    -0.697396     2App   -0.694209    16Ap    -0.640400
       3App   -0.549602    17Ap    -0.538556     4App   -0.515510
      18Ap    -0.502118

  @RHF Final Energy:  -375.33133982085661

   => Energetics <=

    Nuclear Repulsion Energy =            191.0105957399158001
    One-Electron Energy =                -893.9614929028969073
    Two-Electron Energy =                 327.6195573421245513
    Total Energy =                       -375.3313398208566127
 Dipole X            :          0.1047536            0.0000000            0.1047536
 Dipole Y            :         -0.0082460            0.0000000           -0.0082460
 Dipole Z            :          0.0000000            0.0000000            0.0000000
 Magnitude           :                                                    0.1050777
      * MP2 total energy                      = -376.631589280877961
      * CCSD total energy                     = -376.608206955393882
      * CCSD(T) total energy                  = -376.668076661802957

  Mulliken Charges: (a.u.)
   Center  Symbol    Alpha    Beta     Spin     Total
       1     O     4.14690  4.14690  0.00000 -0.29380
       2     C     2.74103  2.74103  0.00000  0.51795
       3     O     4.11543  4.11543  0.00000 -0.23086
       4     O     4.10720  4.10720  0.00000 -0.21441
       5     C     2.73793  2.73793  0.00000  0.52413
       6     O     4.15150  4.15150  0.00000 -0.30300

   Total alpha = 22.00000, Total beta = 22.00000, Total charge =  0.00000

*** Psi4 exiting successfully. Buy a developer a beer!
