                               Psi4 1.9 release

  ==> Input File <==

--------------------------------------------------------------------------
memory 5 gb

molecule {
0 1
O     -2.326000     0.000000     0.000000
C     -1.163000     0.000000     0.000000
O      0.000000     0.000000     0.000000
O      0.848528     0.848528     0.000000
C      1.670893     1.670893     0.000000
O      2.493259     2.493259     0.000000
}

set basis cc-pVTZ
E, wfn = energy('ccsd(t)', return_wfn=True)
oeprop(wfn,'MULLIKEN_CHARGES')

--------------------------------------------------------------------------

    Molecular point group: cs

    Geometry (in Angstrom), charge = 0, multiplicity = 1:

       Center              X                  Y                   Z               Mass
    ------------   -----------------  -----------------  -----------------  -----------------
         O           -2.579946681802    -0.835446681802     0.000000000000    15.994914619570
         C           -1.416946681802    -0.835446681802     0.000000000000    12.000000000000
         O           -0.253946681802    -0.835446681802     0.000000000000    15.994914619570
         O            0.594581318198     0.013081318198     0.000000000000    15.994914619570
         C            1.416946318198     0.835446318198     0.000000000000    12.000000000000
         O            2.239312318198     1.657812318198     0.000000000000    15.994914619570

  Charge       = 0
  Multiplicity = 1
  Basis Set: CC-PVTZ
    Blend: CC-PVTZ

    Orbital Energies [Eh]
    ---------------------

    Doubly Occupied:

       1Ap   -20.704739     2Ap   -20.694318     3Ap   -20.669313
       4Ap   -20.565712     5Ap   -11.476404     6Ap   -11.344490
       7Ap    -1.746283     8Ap    -1.526962     9Ap    -1.471865
      10Ap    -1.414412    11Ap    -1.130674    12Ap    -0.846260
       1App   -0.839755    13Ap    -0.788355    14Ap    -0.705521
       2App   -0.687947    15Ap    -0.687243    16Ap    -0.591761
       3App   -0.582979    17Ap    -0.531783     4App   -0.485756
      18Ap    -0.221234

  @RHF Final Energy:  -374.78396762814845

   => Energetics <=

    Nuclear Repulsion Energy =            210.6364318730379637
    One-Electron Energy =                -931.4132699736744598
    Two-Electron Energy =                 345.9928704724880504
    Total Energy =                       -374.7839676281484458
 Dipole X            :          1.1973943            0.0000000            1.1973943
 Dipole Y            :          0.4576460            0.0000000            0.4576460
 Dipole Z            :          0.0000000            0.0000000            0.0000000
 Magnitude           :                                                    1.2818709
      * MP2 total energy                      = -376.147579760222015
      * CCSD total energy                     = -376.105159225772127
      * CCSD(T) total energy                  = -376.175275098470365

  Mulliken Charges: (a.u.)
   Center  Symbol    Alpha    Beta     Spin     Total
       1     O     4.17606  4.17606  0.00000 -0.35212
       2     C     2.87311  2.87311  0.00000  0.25378
       3     O     4.04267  4.04267  0.00000 -0.08534
       4     O     4.00608  4.00608  0.00000 -0.01217
       5     C     2.77954  2.77954  0.00000  0.44093
       6     O     4.12254  4.12254  0.00000 -0.24507

   Total alpha = 22.00000, Total beta = 22.00000, Total charge =  0.00000

*** Psi4 exiting successfully. Buy a developer a beer!
