                               Psi4 1.9.1 release

  ==> Input File <==

--------------------------------------------------------------------------
memory 5 gb

molecule {
0 1
O     -2.326000     0.000000     0.000000
C     -1.163000     0.000000     0.000000
O      0.000000     0.000000     0.000000
O      0.000000     2.080000     0.000000
C      0.000000     3.243000     0.000000
O      0.000000     4.406000     0.000000
}

set basis cc-pVTZ
E, wfn = energy('ccsd(t)', return_wfn=True)
oeprop(wfn,'MULLIKEN_CHARGES')

--------------------------------------------------------------------------

    Molecular point group: cs

    Geometry (in Angstrom), charge = 0, multiplicity = 1:

       Center              X                  Y                   Z               Mass
    ------------   -----------------  -----------------  -----------------  -----------------
         O           -1.744500000000    -1.621500000000     0.000000000000    15.994914619570
         C           -0.581500000000    -1.621500000000     0.000000000000    12.000000000000
         O            0.581500000000    -1.621500000000     0.000000000000    15.994914619570
         O            0.581500000000     0.458500000000     0.000000000000    15.994914619570
         C            0.581500000000     1.621500000000     0.000000000000    12.000000000000
         O            0.581500000000     2.784500000000     0.000000000000    15.994914619570

  Charge       = 0
  Multiplicity = 1
  Basis Set: CC-PVTZ
    Blend: CC-PVTZ

    Orbital Energies [Eh]
    ---------------------

    Doubly Occupied:

       1Ap   -20.655525     2Ap   -20.648782     3Ap   -20.638578
       4Ap   -20.625659     5Ap   -11.463235     6Ap   -11.444487
       7Ap    -1.536800     8Ap    -1.514753     9Ap    -1.482116
      10Ap    -1.459720    11Ap    -0.830203    12Ap    -0.786894
      13Ap    -0.764010    14Ap    -0.730345     1App   -0.721004
      15Ap    -0.714639     2App   -0.697901    16Ap    -0.670464
       3App   -0.551948    17Ap    -0.548472     4App   -0.525246
      18Ap    -0.517051

  @RHF Final Energy:  -375.37826516798918

   => Energetics <=

    Nuclear Repulsion Energy =            194.0622621773575815
    One-Electron Energy =                -899.8253877538091956
    Two-Electron Energy =                 330.3848604084623730
    Total Energy =                       -375.3782651679891842
 Dipole X            :          0.1073466            0.0000000            0.1073466
 Dipole Y            :          0.1105693            0.0000000            0.1105693
 Dipole Z            :          0.0000000            0.0000000            0.0000000
 Magnitude           :                                                    0.1541067
      * MP2 total energy                      = -376.672376320542412
      * CCSD total energy                     = -376.651141741066567
      * CCSD(T) total energy                  = -376.710481024689955

  Mulliken Charges: (a.u.)
   Center  Symbol    Alpha    Beta     Spin     Total
       1     O     4.14263  4.14263  0.00000 -0.28527
       2     C     2.73341  2.73341  0.00000  0.53319
       3     O     4.12971  4.12971  0.00000 -0.25941
       4     O     4.11804  4.11804  0.00000 -0.23609
       5     C     2.73458  2.73458  0.00000  0.53083
       6     O     4.14163  4.14163  0.00000 -0.28325

   Total alpha = 22.00000, Total beta = 22.00000, Total charge =  0.00000

*** Psi4 exiting successfully. Buy a developer a beer!
