                               Psi4 1.9 release

  ==> Input File <==

--------------------------------------------------------------------------
memory 5 gb

molecule {
0 1
O     -2.326000     0.000000     0.000000
C     -1.163000     0.000000     0.000000
O      0.000000     0.000000     0.000000
O      0.735391     0.735391     0.000000
C      1.557756     1.557756     0.000000
O      2.380121     2.380121     0.000000
}

set basis cc-pVTZ
E, wfn = energy('ccsd(t)', return_wfn=True)
oeprop(wfn,'MULLIKEN_CHARGES')

--------------------------------------------------------------------------

    Molecular point group: cs

    Geometry (in Angstrom), charge = 0, multiplicity = 1:

       Center              X                  Y                   Z               Mass
    ------------   -----------------  -----------------  -----------------  -----------------
         O           -2.523378000000    -0.778878000000     0.000000000000    15.994914619570
         C           -1.360378000000    -0.778878000000     0.000000000000    12.000000000000
         O           -0.197378000000    -0.778878000000     0.000000000000    15.994914619570
         O            0.538013000000    -0.043487000000     0.000000000000    15.994914619570
         C            1.360378000000     0.778878000000     0.000000000000    12.000000000000
         O            2.182743000000     1.601243000000     0.000000000000    15.994914619570

  Charge       = 0
  Multiplicity = 1
  Basis Set: CC-PVTZ
    Blend: CC-PVTZ

    Orbital Energies [Eh]
    ---------------------

    Doubly Occupied:

       1Ap   -20.847175     2Ap   -20.802579     3Ap   -20.705189
       4Ap   -20.526052     5Ap   -11.561556     6Ap   -11.307047
       7Ap    -1.992224     8Ap    -1.567579     9Ap    -1.515769
      10Ap    -1.381554    11Ap    -1.260775     1App   -1.009925
      12Ap    -1.009605    13Ap    -0.818567    14Ap    -0.734648
       2App   -0.723999    15Ap    -0.658155    16Ap    -0.603962
       3App   -0.591828    17Ap    -0.535725     4App   -0.474802
      18Ap    -0.149671

  @RHF Final Energy:  -374.54260116331409

   => Energetics <=

    Nuclear Repulsion Energy =            218.3916530027980798
    One-Electron Energy =                -944.3117312427913248
    Two-Electron Energy =                 351.3774770766791562
    Total Energy =                       -374.5426011633140888
 Dipole X            :          2.2632774            0.0000000            2.2632774
 Dipole Y            :         -0.0602544            0.0000000           -0.0602544
 Dipole Z            :          0.0000000            0.0000000            0.0000000
 Magnitude           :                                                    2.2640794
      * MP2 total energy                      = -375.888125929655700
      * CCSD total energy                     = -375.860911488741067
      * CCSD(T) total energy                  = -375.935168694169249

  Mulliken Charges: (a.u.)
   Center  Symbol    Alpha    Beta     Spin     Total
       1     O     4.18621  4.18621  0.00000 -0.37243
       2     C     3.05690  3.05690  0.00000 -0.11379
       3     O     3.98676  3.98676  0.00000  0.02649
       4     O     3.73628  3.73628  0.00000  0.52743
       5     C     2.94609  2.94609  0.00000  0.10781
       6     O     4.08776  4.08776  0.00000 -0.17552

   Total alpha = 22.00000, Total beta = 22.00000, Total charge =  0.00000

*** Psi4 exiting successfully. Buy a developer a beer!
