                               Psi4 1.9.1 release

  ==> Input File <==

--------------------------------------------------------------------------
memory 5 gb

molecule {
0 1
O     -2.326000     0.000000     0.000000
C     -1.163000     0.000000     0.000000
O      0.000000     0.000000     0.000000
O      1.880000     0.000000     0.000000
C      3.043000     0.000000     0.000000
O      4.206000     0.000000     0.000000
}

set basis cc-pVTZ
E, wfn = energy('ccsd(t)', return_wfn=True)
oeprop(wfn,'MULLIKEN_CHARGES')

--------------------------------------------------------------------------

    Molecular point group: d2h

    Geometry (in Angstrom), charge = 0, multiplicity = 1:

       Center              X                  Y                   Z               Mass
    ------------   -----------------  -----------------  -----------------  -----------------
         O           -3.266000000000    -0.000000000000     0.000000000000    15.994914619570
         C           -2.103000000000    -0.000000000000     0.000000000000    12.000000000000
         O           -0.940000000000    -0.000000000000     0.000000000000    15.994914619570
         O            0.940000000000     0.000000000000     0.000000000000    15.994914619570
         C            2.103000000000     0.000000000000     0.000000000000    12.000000000000
         O            3.266000000000     0.000000000000     0.000000000000    15.994914619570

  Charge       = 0
  Multiplicity = 1
  Basis Set: CC-PVTZ
    Blend: CC-PVTZ

    Orbital Energies [Eh]
    ---------------------

    Doubly Occupied:

       1B3u  -20.639403     1Ag   -20.639403     2B3u  -20.626786
       2Ag   -20.626771     3B3u  -11.443384     3Ag   -11.443382
       4Ag    -1.523425     4B3u   -1.512813     5Ag    -1.471364
       5B3u   -1.456712     6Ag    -0.870917     6B3u   -0.768676
       7Ag    -0.753627     1B1u   -0.708444     1B2u   -0.708444
       1B1g   -0.695730     1B2g   -0.695730     7B3u   -0.635667
       2B2u   -0.544900     2B1u   -0.544900     2B1g   -0.517526
       2B2g   -0.517526

  @RHF Final Energy:  -375.35472906324742

   => Energetics <=

    Nuclear Repulsion Energy =            186.4719973679585792
    One-Electron Energy =                -884.9623911677424530
    Two-Electron Energy =                 323.1356647365364552
    Total Energy =                       -375.3547290632474187
 Dipole X            :          0.0000000            0.0000000            0.0000000
 Dipole Y            :          0.0000000            0.0000000            0.0000000
 Dipole Z            :          0.0000000            0.0000000            0.0000000
 Magnitude           :                                                    0.0000000
      * MP2 total energy                      = -376.651336059781272
      * CCSD total energy                     = -376.629350918010573
      * CCSD(T) total energy                  = -376.688673785098786

  Mulliken Charges: (a.u.)
   Center  Symbol    Alpha    Beta     Spin     Total
       1     O     4.15320  4.15320  0.00000 -0.30640
       2     C     2.74144  2.74144  0.00000  0.51712
       3     O     4.10536  4.10536  0.00000 -0.21072
       4     O     4.10536  4.10536  0.00000 -0.21072
       5     C     2.74144  2.74144  0.00000  0.51712
       6     O     4.15320  4.15320  0.00000 -0.30640

   Total alpha = 22.00000, Total beta = 22.00000, Total charge =  0.00000

*** Psi4 exiting successfully. Buy a developer a beer!
