                               Psi4 1.9.1 release

  ==> Input File <==

--------------------------------------------------------------------------
memory 5 gb

molecule {
0 1
O     -2.326000     0.000000     0.000000
C     -1.163000     0.000000     0.000000
O      0.000000     0.000000     0.000000
O      0.000000     1.880000     0.000000
C      0.000000     3.043000     0.000000
O      0.000000     4.206000     0.000000
}

set basis cc-pVTZ
E, wfn = energy('ccsd(t)', return_wfn=True)
oeprop(wfn,'MULLIKEN_CHARGES')

--------------------------------------------------------------------------

    Molecular point group: cs

    Geometry (in Angstrom), charge = 0, multiplicity = 1:

       Center              X                  Y                   Z               Mass
    ------------   -----------------  -----------------  -----------------  -----------------
         O           -1.744500000000    -1.521500000000     0.000000000000    15.994914619570
         C           -0.581500000000    -1.521500000000     0.000000000000    12.000000000000
         O            0.581500000000    -1.521500000000     0.000000000000    15.994914619570
         O            0.581500000000     0.358500000000     0.000000000000    15.994914619570
         C            0.581500000000     1.521500000000     0.000000000000    12.000000000000
         O            0.581500000000     2.684500000000     0.000000000000    15.994914619570

  Charge       = 0
  Multiplicity = 1
  Basis Set: CC-PVTZ
    Blend: CC-PVTZ

    Orbital Energies [Eh]
    ---------------------

    Doubly Occupied:

       1Ap   -20.655538     2Ap   -20.643606     3Ap   -20.636931
       4Ap   -20.617663     5Ap   -11.461011     6Ap   -11.441100
       7Ap    -1.542237     8Ap    -1.513604     9Ap    -1.483393
      10Ap    -1.455682    11Ap    -0.851932    12Ap    -0.787068
      13Ap    -0.768038    14Ap    -0.733221     1App   -0.724342
      15Ap    -0.709933     2App   -0.694586    16Ap    -0.653731
       3App   -0.555762    17Ap    -0.547936     4App   -0.519562
      18Ap    -0.499127

  @RHF Final Energy:  -375.33895402296270

   => Energetics <=

    Nuclear Repulsion Energy =            199.0572855748713152
    One-Electron Energy =                -909.8004735044819427
    Two-Electron Energy =                 335.4042339066479030
    Total Energy =                       -375.3389540229626959
 Dipole X            :          0.1381116            0.0000000            0.1381116
 Dipole Y            :          0.1289828           -0.0000000            0.1289828
 Dipole Z            :          0.0000000            0.0000000            0.0000000
 Magnitude           :                                                    0.1889745
      * MP2 total energy                      = -376.638717132532634
      * CCSD total energy                     = -376.615966880701706
      * CCSD(T) total energy                  = -376.675982085907663

  Mulliken Charges: (a.u.)
   Center  Symbol    Alpha    Beta     Spin     Total
       1     O     4.14385  4.14385  0.00000 -0.28770
       2     C     2.73803  2.73803  0.00000  0.52394
       3     O     4.12533  4.12533  0.00000 -0.25066
       4     O     4.11570  4.11570  0.00000 -0.23140
       5     C     2.73467  2.73467  0.00000  0.53067
       6     O     4.14242  4.14242  0.00000 -0.28484

   Total alpha = 22.00000, Total beta = 22.00000, Total charge =  0.00000

*** Psi4 exiting successfully. Buy a developer a beer!
