                               Psi4 1.9.1 release

  ==> Input File <==

--------------------------------------------------------------------------
memory 5 gb

molecule {
0 1
O     -2.326000     0.000000     0.000000
C     -1.163000     0.000000     0.000000
O      0.000000     0.000000     0.000000
O      2.280000     0.000000     0.000000
C      3.443000     0.000000     0.000000
O      4.606000     0.000000     0.000000
}

set basis cc-pVTZ
E, wfn = energy('ccsd(t)', return_wfn=True)
oeprop(wfn,'MULLIKEN_CHARGES')

--------------------------------------------------------------------------

    Molecular point group: d2h

    Geometry (in Angstrom), charge = 0, multiplicity = 1:

       Center              X                  Y                   Z               Mass
    ------------   -----------------  -----------------  -----------------  -----------------
         O           -3.466000000000    -0.000000000000     0.000000000000    15.994914619570
         C           -2.303000000000    -0.000000000000     0.000000000000    12.000000000000
         O           -1.140000000000    -0.000000000000     0.000000000000    15.994914619570
         O            1.140000000000     0.000000000000     0.000000000000    15.994914619570
         C            2.303000000000     0.000000000000     0.000000000000    12.000000000000
         O            3.466000000000     0.000000000000     0.000000000000    15.994914619570

  Charge       = 0
  Multiplicity = 1
  Basis Set: CC-PVTZ
    Blend: CC-PVTZ

    Orbital Energies [Eh]
    ---------------------

    Doubly Occupied:

       1B3u  -20.642860     1Ag   -20.642859     2B3u  -20.638320
       2Ag   -20.638314     3B3u  -11.450317     3Ag   -11.450316
       4Ag    -1.522021     4B3u   -1.518834     5Ag    -1.469568
       5B3u   -1.464854     6Ag    -0.820895     6B3u   -0.777712
       7Ag    -0.749761     1B2u   -0.707455     1B1u   -0.707455
       1B2g   -0.702768     1B1g   -0.702768     7B3u   -0.697960
       2B2u   -0.539877     2B1u   -0.539877     2B1g   -0.529079
       2B2g   -0.529079

  @RHF Final Energy:  -375.40027238591676

   => Energetics <=

    Nuclear Repulsion Energy =            178.6249084958618312
    One-Electron Energy =                -869.1644551093559130
    Two-Electron Energy =                 315.1392742275772889
    Total Energy =                       -375.4002723859167645
 Dipole X            :          0.0000000            0.0000000            0.0000000
 Dipole Y            :          0.0000000            0.0000000            0.0000000
 Dipole Z            :          0.0000000            0.0000000            0.0000000
 Magnitude           :                                                    0.0000000
      * MP2 total energy                      = -376.690382670228757
      * CCSD total energy                     = -376.670150652944301
      * CCSD(T) total energy                  = -376.728839392852137

  Mulliken Charges: (a.u.)
   Center  Symbol    Alpha    Beta     Spin     Total
       1     O     4.14685  4.14685  0.00000 -0.29371
       2     C     2.74205  2.74205  0.00000  0.51590
       3     O     4.11110  4.11110  0.00000 -0.22219
       4     O     4.11110  4.11110  0.00000 -0.22219
       5     C     2.74205  2.74205  0.00000  0.51590
       6     O     4.14685  4.14685  0.00000 -0.29371

   Total alpha = 22.00000, Total beta = 22.00000, Total charge =  0.00000

*** Psi4 exiting successfully. Buy a developer a beer!
