                               Psi4 1.9.1 release

  ==> Input File <==

--------------------------------------------------------------------------
memory 5 gb

molecule {
0 1
O     -2.326000     0.000000     0.000000
C     -1.163000     0.000000     0.000000
O      0.000000     0.000000     0.000000
O      1.640000     0.000000     0.000000
C      2.803000     0.000000     0.000000
O      3.966000     0.000000     0.000000
}

set basis cc-pVTZ
E, wfn = energy('ccsd(t)', return_wfn=True)
oeprop(wfn,'MULLIKEN_CHARGES')

--------------------------------------------------------------------------

    Molecular point group: d2h

    Geometry (in Angstrom), charge = 0, multiplicity = 1:

       Center              X                  Y                   Z               Mass
    ------------   -----------------  -----------------  -----------------  -----------------
         O           -3.146000000000    -0.000000000000     0.000000000000    15.994914619570
         C           -1.983000000000    -0.000000000000     0.000000000000    12.000000000000
         O           -0.820000000000    -0.000000000000     0.000000000000    15.994914619570
         O            0.820000000000     0.000000000000     0.000000000000    15.994914619570
         C            1.983000000000     0.000000000000     0.000000000000    12.000000000000
         O            3.146000000000     0.000000000000     0.000000000000    15.994914619570

  Charge       = 0
  Multiplicity = 1
  Basis Set: CC-PVTZ
    Blend: CC-PVTZ

    Orbital Energies [Eh]
    ---------------------

    Doubly Occupied:

       1B3u  -20.636045     1Ag   -20.636044     2B3u  -20.615119
       2Ag   -20.615110     3B3u  -11.435102     3Ag   -11.435099
       4Ag    -1.531579     4B3u   -1.506912     5Ag    -1.475123
       5B3u   -1.447557     6Ag    -0.930500     6B3u   -0.763208
       7Ag    -0.753286     1B2u   -0.712806     1B1u   -0.712806
       1B1g   -0.688518     1B2g   -0.688518     7B3u   -0.556448
       2B1u   -0.553081     2B2u   -0.553081     2B1g   -0.504877
       2B2g   -0.504877

  @RHF Final Energy:  -375.26883968189259

   => Energetics <=

    Nuclear Repulsion Energy =            192.4268366803471508
    One-Electron Energy =                -896.8799607736480084
    Two-Electron Energy =                 329.1842844114082709
    Total Energy =                       -375.2688396818925867
 Dipole X            :          0.0000000            0.0000000            0.0000000
 Dipole Y            :          0.0000000            0.0000000            0.0000000
 Dipole Z            :          0.0000000            0.0000000            0.0000000
 Magnitude           :                                                    0.0000000
      * MP2 total energy                      = -376.574798717182489
      * CCSD total energy                     = -376.550025567590183
      * CCSD(T) total energy                  = -376.610347173739171

  Mulliken Charges: (a.u.)
   Center  Symbol    Alpha    Beta     Spin     Total
       1     O     4.15825  4.15825  0.00000 -0.31650
       2     C     2.74114  2.74114  0.00000  0.51772
       3     O     4.10061  4.10061  0.00000 -0.20122
       4     O     4.10061  4.10061  0.00000 -0.20122
       5     C     2.74114  2.74114  0.00000  0.51772
       6     O     4.15825  4.15825  0.00000 -0.31650

   Total alpha = 22.00000, Total beta = 22.00000, Total charge =  0.00000

*** Psi4 exiting successfully. Buy a developer a beer!
