                               Psi4 1.9 release

  ==> Input File <==

--------------------------------------------------------------------------
memory 5 gb

molecule {
0 1
O     -2.326000     0.000000     0.000000
C     -1.163000     0.000000     0.000000
O      0.000000     0.000000     0.000000
O      0.000000     1.040000     0.000000
C      0.000000     2.203000     0.000000
O      0.000000     3.366000     0.000000
}

set basis cc-pVTZ
E, wfn = energy('ccsd(t)', return_wfn=True)
oeprop(wfn,'MULLIKEN_CHARGES')

--------------------------------------------------------------------------

    Molecular point group: cs

    Geometry (in Angstrom), charge = 0, multiplicity = 1:

       Center              X                  Y                   Z               Mass
    ------------   -----------------  -----------------  -----------------  -----------------
         O           -1.744500000000    -1.101500000000     0.000000000000    15.994914619570
         C           -0.581500000000    -1.101500000000     0.000000000000    12.000000000000
         O            0.581500000000    -1.101500000000     0.000000000000    15.994914619570
         O            0.581500000000    -0.061500000000     0.000000000000    15.994914619570
         C            0.581500000000     1.101500000000     0.000000000000    12.000000000000
         O            0.581500000000     2.264500000000     0.000000000000    15.994914619570

  Charge       = 0
  Multiplicity = 1
  Basis Set: CC-PVTZ
    Blend: CC-PVTZ

    Orbital Energies [Eh]
    ---------------------

    Doubly Occupied:

       1Ap   -20.853264     2Ap   -20.824005     3Ap   -20.609092
       4Ap   -20.591724     5Ap   -11.437204     6Ap   -11.351585
       7Ap    -2.069926     8Ap    -1.518569     9Ap    -1.449704
      10Ap    -1.437041    11Ap    -1.207180    12Ap    -1.050212
       1App   -1.042872    13Ap    -0.732105    14Ap    -0.726099
      15Ap    -0.710803     2App   -0.679640    16Ap    -0.619479
       3App   -0.574068    17Ap    -0.552387     4App   -0.507038
      18Ap    -0.152305

  @RHF Final Energy:  -374.43731509800216

   => Energetics <=

    Nuclear Repulsion Energy =            231.1974565435909597
    One-Electron Energy =                -969.8769400220994612
    Two-Electron Energy =                 364.2421683805063140
    Total Energy =                       -374.4373150980021592
 Dipole X            :          0.9068482            0.0000000            0.9068482
 Dipole Y            :         -0.7400109           -0.0000000           -0.7400109
 Dipole Z            :          0.0000000            0.0000000            0.0000000
 Magnitude           :                                                    1.1704656
      * MP2 total energy                      = -375.786257562840660
      * CCSD total energy                     = -375.758230047627251
      * CCSD(T) total energy                  = -375.828004826623555

  Mulliken Charges: (a.u.)
   Center  Symbol    Alpha    Beta     Spin     Total
       1     O     4.16025  4.16025  0.00000 -0.32051
       2     C     2.96404  2.96404  0.00000  0.07191
       3     O     3.97356  3.97356  0.00000  0.05289
       4     O     3.79574  3.79574  0.00000  0.40852
       5     C     2.94586  2.94586  0.00000  0.10828
       6     O     4.16055  4.16055  0.00000 -0.32110

   Total alpha = 22.00000, Total beta = 22.00000, Total charge =  0.00000

*** Psi4 exiting successfully. Buy a developer a beer!
