                               Psi4 1.9 release

  ==> Input File <==

--------------------------------------------------------------------------
memory 5 gb

molecule {
0 1
O     -2.326000     0.000000     0.000000
C     -1.163000     0.000000     0.000000
O      0.000000     0.000000     0.000000
O      0.000000     1.200000     0.000000
C      0.000000     2.363000     0.000000
O      0.000000     3.526000     0.000000
}

set basis cc-pVTZ
E, wfn = energy('ccsd(t)', return_wfn=True)
oeprop(wfn,'MULLIKEN_CHARGES')

--------------------------------------------------------------------------

    Molecular point group: cs

    Geometry (in Angstrom), charge = 0, multiplicity = 1:

       Center              X                  Y                   Z               Mass
    ------------   -----------------  -----------------  -----------------  -----------------
         O           -1.744500000000    -1.181500000000     0.000000000000    15.994914619570
         C           -0.581500000000    -1.181500000000     0.000000000000    12.000000000000
         O            0.581500000000    -1.181500000000     0.000000000000    15.994914619570
         O            0.581500000000     0.018500000000     0.000000000000    15.994914619570
         C            0.581500000000     1.181500000000     0.000000000000    12.000000000000
         O            0.581500000000     2.344500000000     0.000000000000    15.994914619570

  Charge       = 0
  Multiplicity = 1
  Basis Set: CC-PVTZ
    Blend: CC-PVTZ

    Orbital Energies [Eh]
    ---------------------

    Doubly Occupied:

       1Ap   -20.739475     2Ap   -20.717580     3Ap   -20.661500
       4Ap   -20.594658     5Ap   -11.470319     6Ap   -11.371752
       7Ap    -1.831020     8Ap    -1.523798     9Ap    -1.472679
      10Ap    -1.441890    11Ap    -1.067725    12Ap    -0.936782
       1App   -0.883880    13Ap    -0.781015    14Ap    -0.721448
      15Ap    -0.711079     2App   -0.691758    16Ap    -0.612550
       3App   -0.584719    17Ap    -0.557542     4App   -0.513308
      18Ap    -0.185917

  @RHF Final Energy:  -374.66424440000986

   => Energetics <=

    Nuclear Repulsion Energy =            222.9522956076773994
    One-Electron Energy =                -955.0882941941692934
    Two-Electron Energy =                 357.4717541864820873
    Total Energy =                       -374.6642444000098635
 Dipole X            :          0.8582528            0.0000000            0.8582528
 Dipole Y            :          0.3855747           -0.0000000            0.3855747
 Dipole Z            :          0.0000000            0.0000000            0.0000000
 Magnitude           :                                                    0.9408856
      * MP2 total energy                      = -376.041131830983431
      * CCSD total energy                     = -375.996910886051069
      * CCSD(T) total energy                  = -376.070076791889903

  Mulliken Charges: (a.u.)
   Center  Symbol    Alpha    Beta     Spin     Total
       1     O     4.15234  4.15234  0.00000 -0.30468
       2     C     2.92992  2.92992  0.00000  0.14017
       3     O     3.98950  3.98950  0.00000  0.02100
       4     O     3.99742  3.99742  0.00000  0.00516
       5     C     2.82206  2.82206  0.00000  0.35588
       6     O     4.10877  4.10877  0.00000 -0.21754

   Total alpha = 22.00000, Total beta = 22.00000, Total charge =  0.00000

*** Psi4 exiting successfully. Buy a developer a beer!
