                               Psi4 1.9.1 release

  ==> Input File <==

--------------------------------------------------------------------------
memory 5 gb

molecule {
0 1
O     -2.326000     0.000000     0.000000
C     -1.163000     0.000000     0.000000
O      0.000000     0.000000     0.000000
O      0.000000     1.760000     0.000000
C      0.000000     2.923000     0.000000
O      0.000000     4.086000     0.000000
}

set basis cc-pVTZ
E, wfn = energy('ccsd(t)', return_wfn=True)
oeprop(wfn,'MULLIKEN_CHARGES')

--------------------------------------------------------------------------

    Molecular point group: cs

    Geometry (in Angstrom), charge = 0, multiplicity = 1:

       Center              X                  Y                   Z               Mass
    ------------   -----------------  -----------------  -----------------  -----------------
         O           -1.744500000000    -1.461500000000     0.000000000000    15.994914619570
         C           -0.581500000000    -1.461500000000     0.000000000000    12.000000000000
         O            0.581500000000    -1.461500000000     0.000000000000    15.994914619570
         O            0.581500000000     0.298500000000     0.000000000000    15.994914619570
         C            0.581500000000     1.461500000000     0.000000000000    12.000000000000
         O            0.581500000000     2.624500000000     0.000000000000    15.994914619570

  Charge       = 0
  Multiplicity = 1
  Basis Set: CC-PVTZ
    Blend: CC-PVTZ

    Orbital Energies [Eh]
    ---------------------

    Doubly Occupied:

       1Ap   -20.655247     2Ap   -20.639418     3Ap   -20.635897
       4Ap   -20.612442     5Ap   -11.458590     6Ap   -11.438774
       7Ap    -1.549528     8Ap    -1.513221     9Ap    -1.484148
      10Ap    -1.452348    11Ap    -0.870413    12Ap    -0.788991
      13Ap    -0.769668    14Ap    -0.736192     1App   -0.727951
      15Ap    -0.705972     2App   -0.692227    16Ap    -0.643099
       3App   -0.559355    17Ap    -0.546971     4App   -0.515013
      18Ap    -0.479578

  @RHF Final Energy:  -375.29773642169897

   => Energetics <=

    Nuclear Repulsion Energy =            202.3934297873840649
    One-Electron Energy =                -916.4322441543006335
    Two-Electron Energy =                 338.7410779452175689
    Total Energy =                       -375.2977364216989713
 Dipole X            :          0.1619720            0.0000000            0.1619720
 Dipole Y            :          0.1396070            0.0000000            0.1396070
 Dipole Z            :          0.0000000            0.0000000            0.0000000
 Magnitude           :                                                    0.2138342
      * MP2 total energy                      = -376.602788398049995
      * CCSD total energy                     = -376.578549782851724
      * CCSD(T) total energy                  = -376.639202852112533

  Mulliken Charges: (a.u.)
   Center  Symbol    Alpha    Beta     Spin     Total
       1     O     4.14448  4.14448  0.00000 -0.28896
       2     C     2.74240  2.74240  0.00000  0.51520
       3     O     4.12076  4.12076  0.00000 -0.24153
       4     O     4.11409  4.11409  0.00000 -0.22819
       5     C     2.73506  2.73506  0.00000  0.52987
       6     O     4.14320  4.14320  0.00000 -0.28640

   Total alpha = 22.00000, Total beta = 22.00000, Total charge =  0.00000

*** Psi4 exiting successfully. Buy a developer a beer!
