                               Psi4 1.9 release

  ==> Input File <==

--------------------------------------------------------------------------
memory 5 gb

molecule {
0 1
O     -2.326000     0.000000     0.000000
C     -1.163000     0.000000     0.000000
O      0.000000     0.000000     0.000000
O      1.320000     0.000000     0.000000
C      2.483000     0.000000     0.000000
O      3.646000     0.000000     0.000000
}

set basis cc-pVTZ
E, wfn = energy('ccsd(t)', return_wfn=True)
oeprop(wfn,'MULLIKEN_CHARGES')

--------------------------------------------------------------------------

    Molecular point group: d2h

    Geometry (in Angstrom), charge = 0, multiplicity = 1:

       Center              X                  Y                   Z               Mass
    ------------   -----------------  -----------------  -----------------  -----------------
         O           -2.986000000000    -0.000000000000     0.000000000000    15.994914619570
         C           -1.823000000000    -0.000000000000     0.000000000000    12.000000000000
         O           -0.660000000000    -0.000000000000     0.000000000000    15.994914619570
         O            0.660000000000     0.000000000000     0.000000000000    15.994914619570
         C            1.823000000000     0.000000000000     0.000000000000    12.000000000000
         O            2.986000000000     0.000000000000     0.000000000000    15.994914619570

  Charge       = 0
  Multiplicity = 1
  Basis Set: CC-PVTZ
    Blend: CC-PVTZ

    Orbital Energies [Eh]
    ---------------------

    Doubly Occupied:

       1B3u  -20.627995     1Ag   -20.627994     2Ag   -20.610055
       2B3u  -20.609914     3B3u  -11.413212     3Ag   -11.413205
       4Ag    -1.600586     4B3u   -1.495428     5Ag    -1.477688
       5B3u   -1.430712     6Ag    -1.058310     6B3u   -0.754708
       7Ag    -0.748675     1B1u   -0.744181     1B2u   -0.744181
       1B1g   -0.673761     1B2g   -0.673761     2B2u   -0.575801
       2B1u   -0.575801     2B1g   -0.478960     2B2g   -0.478960
       7B3u   -0.349374

  @RHF Final Energy:  -374.95482255250460

   => Energetics <=

    Nuclear Repulsion Energy =            202.6368680198507946
    One-Electron Energy =                -916.8568587156476042
    Two-Electron Energy =                 339.2651681432922146
    Total Energy =                       -374.9548225525045950
 Dipole X            :          0.0000000           -0.0000000           -0.0000000
 Dipole Y            :          0.0000000            0.0000000            0.0000000
 Dipole Z            :          0.0000000            0.0000000            0.0000000
 Magnitude           :                                                    0.0000000
      * MP2 total energy                      = -376.295837605718759
      * CCSD total energy                     = -376.259941173862273
      * CCSD(T) total energy                  = -376.325412750721625

  Mulliken Charges: (a.u.)
   Center  Symbol    Alpha    Beta     Spin     Total
       1     O     4.15942  4.15942  0.00000 -0.31884
       2     C     2.75430  2.75430  0.00000  0.49140
       3     O     4.08628  4.08628  0.00000 -0.17256
       4     O     4.08628  4.08628  0.00000 -0.17256
       5     C     2.75430  2.75430  0.00000  0.49140
       6     O     4.15942  4.15942  0.00000 -0.31884

   Total alpha = 22.00000, Total beta = 22.00000, Total charge = -0.00000

*** Psi4 exiting successfully. Buy a developer a beer!
