                               Psi4 1.9.1 release

  ==> Input File <==

--------------------------------------------------------------------------
memory 5 gb

molecule {
0 1
O     -2.326000     0.000000     0.000000
C     -1.163000     0.000000     0.000000
O      0.000000     0.000000     0.000000
O      0.000000     1.720000     0.000000
C      0.000000     2.883000     0.000000
O      0.000000     4.046000     0.000000
}

set basis cc-pVTZ
E, wfn = energy('ccsd(t)', return_wfn=True)
oeprop(wfn,'MULLIKEN_CHARGES')

--------------------------------------------------------------------------

    Molecular point group: cs

    Geometry (in Angstrom), charge = 0, multiplicity = 1:

       Center              X                  Y                   Z               Mass
    ------------   -----------------  -----------------  -----------------  -----------------
         O           -1.744500000000    -1.441500000000     0.000000000000    15.994914619570
         C           -0.581500000000    -1.441500000000     0.000000000000    12.000000000000
         O            0.581500000000    -1.441500000000     0.000000000000    15.994914619570
         O            0.581500000000     0.278500000000     0.000000000000    15.994914619570
         C            0.581500000000     1.441500000000     0.000000000000    12.000000000000
         O            0.581500000000     2.604500000000     0.000000000000    15.994914619570

  Charge       = 0
  Multiplicity = 1
  Basis Set: CC-PVTZ
    Blend: CC-PVTZ

    Orbital Energies [Eh]
    ---------------------

    Doubly Occupied:

       1Ap   -20.655077     2Ap   -20.637906     3Ap   -20.635540
       4Ap   -20.610813     5Ap   -11.457529     6Ap   -11.437942
       7Ap    -1.553214     8Ap    -1.513108     9Ap    -1.484362
      10Ap    -1.451045    11Ap    -0.877580    12Ap    -0.790219
      13Ap    -0.770065    14Ap    -0.737364     1App   -0.729618
      15Ap    -0.704490     2App   -0.691372    16Ap    -0.639707
       3App   -0.560854    17Ap    -0.546504     4App   -0.513285
      18Ap    -0.470807

  @RHF Final Energy:  -375.27964778251265

   => Energetics <=

    Nuclear Repulsion Energy =            203.5703058073539182
    One-Electron Energy =                -918.7631042481580153
    Two-Electron Energy =                 339.9131506582914994
    Total Energy =                       -375.2796477825126544
 Dipole X            :          0.1712975            0.0000000            0.1712975
 Dipole Y            :          0.1430215            0.0000000            0.1430215
 Dipole Z            :          0.0000000            0.0000000            0.0000000
 Magnitude           :                                                    0.2231546
      * MP2 total energy                      = -376.586930616645532
      * CCSD total energy                     = -376.562047591802468
      * CCSD(T) total energy                  = -376.622973789857156

  Mulliken Charges: (a.u.)
   Center  Symbol    Alpha    Beta     Spin     Total
       1     O     4.14468  4.14468  0.00000 -0.28936
       2     C     2.74426  2.74426  0.00000  0.51148
       3     O     4.11872  4.11872  0.00000 -0.23744
       4     O     4.11331  4.11331  0.00000 -0.22662
       5     C     2.73553  2.73553  0.00000  0.52895
       6     O     4.14351  4.14351  0.00000 -0.28701

   Total alpha = 22.00000, Total beta = 22.00000, Total charge =  0.00000

*** Psi4 exiting successfully. Buy a developer a beer!
