                               Psi4 1.9 release

  ==> Input File <==

--------------------------------------------------------------------------
memory 5 gb

molecule {
0 1
O     -2.326000     0.000000     0.000000
C     -1.163000     0.000000     0.000000
O      0.000000     0.000000     0.000000
O      0.000000     1.320000     0.000000
C      0.000000     2.483000     0.000000
O      0.000000     3.646000     0.000000
}

set basis cc-pVTZ
E, wfn = energy('ccsd(t)', return_wfn=True)
oeprop(wfn,'MULLIKEN_CHARGES')

--------------------------------------------------------------------------

    Molecular point group: cs

    Geometry (in Angstrom), charge = 0, multiplicity = 1:

       Center              X                  Y                   Z               Mass
    ------------   -----------------  -----------------  -----------------  -----------------
         O           -1.744500000000    -1.241500000000     0.000000000000    15.994914619570
         C           -0.581500000000    -1.241500000000     0.000000000000    12.000000000000
         O            0.581500000000    -1.241500000000     0.000000000000    15.994914619570
         O            0.581500000000     0.078500000000     0.000000000000    15.994914619570
         C            0.581500000000     1.241500000000     0.000000000000    12.000000000000
         O            0.581500000000     2.404500000000     0.000000000000    15.994914619570

  Charge       = 0
  Multiplicity = 1
  Basis Set: CC-PVTZ
    Blend: CC-PVTZ

    Orbital Energies [Eh]
    ---------------------

    Doubly Occupied:

       1Ap   -20.652856     2Ap   -20.647617     3Ap   -20.642423
       4Ap   -20.624759     5Ap   -11.443058     6Ap   -11.418717
       7Ap    -1.689098     8Ap    -1.511630     9Ap    -1.478466
      10Ap    -1.441286    11Ap    -0.988205    12Ap    -0.856688
       1App   -0.792536    13Ap    -0.772203    14Ap    -0.742456
      15Ap    -0.693753     2App   -0.682267    16Ap    -0.618251
       3App   -0.585834    17Ap    -0.542941     4App   -0.498721
      18Ap    -0.278939

  @RHF Final Energy:  -374.87973577078111

   => Energetics <=

    Nuclear Repulsion Energy =            217.6418500792214274
    One-Electron Energy =                -945.8377639566481321
    Two-Electron Energy =                 353.3161781066456228
    Total Energy =                       -374.8797357707811102
 Dipole X            :          0.4383041            0.0000000            0.4383041
 Dipole Y            :          0.2411281            0.0000000            0.2411281
 Dipole Z            :          0.0000000            0.0000000            0.0000000
 Magnitude           :                                                    0.5002532
      * MP2 total energy                      = -376.237690765537138
      * CCSD total energy                     = -376.196470522848074
      * CCSD(T) total energy                  = -376.264671813687983

  Mulliken Charges: (a.u.)
   Center  Symbol    Alpha    Beta     Spin     Total
       1     O     4.14571  4.14571  0.00000 -0.29142
       2     C     2.81655  2.81655  0.00000  0.36691
       3     O     4.04828  4.04828  0.00000 -0.09656
       4     O     4.08803  4.08803  0.00000 -0.17605
       5     C     2.76485  2.76485  0.00000  0.47030
       6     O     4.13659  4.13659  0.00000 -0.27319

   Total alpha = 22.00000, Total beta = 22.00000, Total charge =  0.00000

*** Psi4 exiting successfully. Buy a developer a beer!
