                               Psi4 1.9 release

  ==> Input File <==

--------------------------------------------------------------------------
memory 5 gb

molecule {
0 1
O     -2.326000     0.000000     0.000000
C     -1.163000     0.000000     0.000000
O      0.000000     0.000000     0.000000
O      1.018234     1.018234     0.000000
C      1.840599     1.840599     0.000000
O      2.662964     2.662964     0.000000
}

set basis cc-pVTZ
E, wfn = energy('ccsd(t)', return_wfn=True)
oeprop(wfn,'MULLIKEN_CHARGES')

--------------------------------------------------------------------------

    Molecular point group: cs

    Geometry (in Angstrom), charge = 0, multiplicity = 1:

       Center              X                  Y                   Z               Mass
    ------------   -----------------  -----------------  -----------------  -----------------
         O           -2.664799500000    -0.920299500000     0.000000000000    15.994914619570
         C           -1.501799500000    -0.920299500000     0.000000000000    12.000000000000
         O           -0.338799500000    -0.920299500000     0.000000000000    15.994914619570
         O            0.679434500000     0.097934500000     0.000000000000    15.994914619570
         C            1.501799500000     0.920299500000     0.000000000000    12.000000000000
         O            2.324164500000     1.742664500000     0.000000000000    15.994914619570

  Charge       = 0
  Multiplicity = 1
  Basis Set: CC-PVTZ
    Blend: CC-PVTZ

    Orbital Energies [Eh]
    ---------------------

    Doubly Occupied:

       1Ap   -20.643652     2Ap   -20.624913     3Ap   -20.624376
       4Ap   -20.617774     5Ap   -11.438985     6Ap   -11.414811
       7Ap    -1.577587     8Ap    -1.505019     9Ap    -1.476458
      10Ap    -1.439605    11Ap    -0.995345    12Ap    -0.767238
      13Ap    -0.752453     1App   -0.736982    14Ap    -0.736191
      15Ap    -0.686658     2App   -0.682212    16Ap    -0.596051
       3App   -0.570183    17Ap    -0.529488     4App   -0.495845
      18Ap    -0.394026

  @RHF Final Energy:  -375.11382984853003

   => Energetics <=

    Nuclear Repulsion Energy =            201.4146565858540328
    One-Electron Energy =                -914.4452657444163606
    Two-Electron Energy =                 337.9167793100323252
    Total Energy =                       -375.1138298485300311
 Dipole X            :          0.3141253            0.0000000            0.3141253
 Dipole Y            :          0.0758406            0.0000000            0.0758406
 Dipole Z            :          0.0000000            0.0000000            0.0000000
 Magnitude           :                                                    0.3231508
      * MP2 total energy                      = -376.441798438201317
      * CCSD total energy                     = -376.409340423711853
      * CCSD(T) total energy                  = -376.472565935497869

  Mulliken Charges: (a.u.)
   Center  Symbol    Alpha    Beta     Spin     Total
       1     O     4.15755  4.15755  0.00000 -0.31510
       2     C     2.76506  2.76506  0.00000  0.46987
       3     O     4.08761  4.08761  0.00000 -0.17523
       4     O     4.09344  4.09344  0.00000 -0.18688
       5     C     2.74309  2.74309  0.00000  0.51382
       6     O     4.15324  4.15324  0.00000 -0.30649

   Total alpha = 22.00000, Total beta = 22.00000, Total charge = -0.00000

*** Psi4 exiting successfully. Buy a developer a beer!
