                               Psi4 1.9.1 release

  ==> Input File <==

--------------------------------------------------------------------------
memory 5 gb

molecule {
0 1
O     -2.326000     0.000000     0.000000
C     -1.163000     0.000000     0.000000
O      0.000000     0.000000     0.000000
O      1.357645     1.357645     0.000000
C      2.180010     2.180010     0.000000
O      3.002375     3.002375     0.000000
}

set basis cc-pVTZ
E, wfn = energy('ccsd(t)', return_wfn=True)
oeprop(wfn,'MULLIKEN_CHARGES')

--------------------------------------------------------------------------

    Molecular point group: cs

    Geometry (in Angstrom), charge = 0, multiplicity = 1:

       Center              X                  Y                   Z               Mass
    ------------   -----------------  -----------------  -----------------  -----------------
         O           -2.834505000000    -1.090005000000     0.000000000000    15.994914619570
         C           -1.671505000000    -1.090005000000     0.000000000000    12.000000000000
         O           -0.508505000000    -1.090005000000     0.000000000000    15.994914619570
         O            0.849140000000     0.267640000000     0.000000000000    15.994914619570
         C            1.671505000000     1.090005000000     0.000000000000    12.000000000000
         O            2.493870000000     1.912370000000     0.000000000000    15.994914619570

  Charge       = 0
  Multiplicity = 1
  Basis Set: CC-PVTZ
    Blend: CC-PVTZ

    Orbital Energies [Eh]
    ---------------------

    Doubly Occupied:

       1Ap   -20.643715     2Ap   -20.637149     3Ap   -20.632940
       4Ap   -20.628881     5Ap   -11.448695     6Ap   -11.443238
       7Ap    -1.526196     8Ap    -1.513805     9Ap    -1.473411
      10Ap    -1.458114    11Ap    -0.857213    12Ap    -0.772717
      13Ap    -0.754273    14Ap    -0.715842     1App   -0.710838
      15Ap    -0.700467     2App   -0.697100    16Ap    -0.658955
       3App   -0.546240    17Ap    -0.539145     4App   -0.520294
      18Ap    -0.513422

  @RHF Final Energy:  -375.36076317185274

   => Energetics <=

    Nuclear Repulsion Energy =            188.1678297308799017
    One-Electron Energy =                -888.2718885109756002
    Two-Electron Energy =                 324.7432956082429314
    Total Energy =                       -375.3607631718527387
 Dipole X            :          0.0818886            0.0000000            0.0818886
 Dipole Y            :         -0.0125887            0.0000000           -0.0125887
 Dipole Z            :          0.0000000            0.0000000            0.0000000
 Magnitude           :                                                    0.0828506
      * MP2 total energy                      = -376.657029992189678
      * CCSD total energy                     = -376.634860790845778
      * CCSD(T) total energy                  = -376.694299575641253

  Mulliken Charges: (a.u.)
   Center  Symbol    Alpha    Beta     Spin     Total
       1     O     4.14496  4.14496  0.00000 -0.28992
       2     C     2.73866  2.73866  0.00000  0.52268
       3     O     4.11901  4.11901  0.00000 -0.23803
       4     O     4.10886  4.10886  0.00000 -0.21773
       5     C     2.73885  2.73885  0.00000  0.52230
       6     O     4.14965  4.14965  0.00000 -0.29930

   Total alpha = 22.00000, Total beta = 22.00000, Total charge = -0.00000

*** Psi4 exiting successfully. Buy a developer a beer!
