                               Psi4 1.9 release

  ==> Input File <==

--------------------------------------------------------------------------
memory 5 gb

molecule {
0 1
O     -2.326000     0.000000     0.000000
C     -1.163000     0.000000     0.000000
O      0.000000     0.000000     0.000000
O      1.160000     0.000000     0.000000
C      2.323000     0.000000     0.000000
O      3.486000     0.000000     0.000000
}

set basis cc-pVTZ
E, wfn = energy('ccsd(t)', return_wfn=True)
oeprop(wfn,'MULLIKEN_CHARGES')

--------------------------------------------------------------------------

    Molecular point group: d2h

    Geometry (in Angstrom), charge = 0, multiplicity = 1:

       Center              X                  Y                   Z               Mass
    ------------   -----------------  -----------------  -----------------  -----------------
         O           -2.906000000000    -0.000000000000     0.000000000000    15.994914619570
         C           -1.743000000000    -0.000000000000     0.000000000000    12.000000000000
         O           -0.580000000000    -0.000000000000     0.000000000000    15.994914619570
         O            0.580000000000     0.000000000000     0.000000000000    15.994914619570
         C            1.743000000000     0.000000000000     0.000000000000    12.000000000000
         O            2.906000000000     0.000000000000     0.000000000000    15.994914619570

  Charge       = 0
  Multiplicity = 1
  Basis Set: CC-PVTZ
    Blend: CC-PVTZ

    Orbital Energies [Eh]
    ---------------------

    Doubly Occupied:

       1Ag   -20.658373     1B3u  -20.657785     2B3u  -20.622038
       2Ag   -20.622037     3B3u  -11.408932     3Ag   -11.408923
       4Ag    -1.736242     4B3u   -1.493136     5Ag    -1.473792
       5B3u   -1.436465     6Ag    -1.152660     1B2u   -0.820729
       1B1u   -0.820729     6B3u   -0.751131     7Ag    -0.746162
       1B1g   -0.669018     1B2g   -0.669018     2B1u   -0.589548
       2B2u   -0.589548     2B1g   -0.473948     2B2g   -0.473948
       7B3u   -0.193052

  @RHF Final Energy:  -374.65427158965633

   => Energetics <=

    Nuclear Repulsion Energy =            209.1971342655427293
    One-Electron Energy =                -928.7683863175458328
    Two-Electron Energy =                 344.9169804623467144
    Total Energy =                       -374.6542715896563323
 Dipole X            :          0.0000000           -0.0000000           -0.0000000
 Dipole Y            :          0.0000000            0.0000000            0.0000000
 Dipole Z            :          0.0000000            0.0000000            0.0000000
 Magnitude           :                                                    0.0000000
      * MP2 total energy                      = -376.045754965298670
      * CCSD total energy                     = -375.990722399894253
      * CCSD(T) total energy                  = -376.066125149150878

  Mulliken Charges: (a.u.)
   Center  Symbol    Alpha    Beta     Spin     Total
       1     O     4.12907  4.12907  0.00000 -0.25815
       2     C     2.81943  2.81943  0.00000  0.36113
       3     O     4.05149  4.05149  0.00000 -0.10298
       4     O     4.05149  4.05149  0.00000 -0.10298
       5     C     2.81943  2.81943  0.00000  0.36113
       6     O     4.12907  4.12907  0.00000 -0.25815

   Total alpha = 22.00000, Total beta = 22.00000, Total charge =  0.00000

*** Psi4 exiting successfully. Buy a developer a beer!
