                               Psi4 1.9 release

  ==> Input File <==

--------------------------------------------------------------------------
memory 5 gb

molecule {
0 1
O     -2.326000     0.000000     0.000000
C     -1.163000     0.000000     0.000000
O      0.000000     0.000000     0.000000
O      1.280000     0.000000     0.000000
C      2.443000     0.000000     0.000000
O      3.606000     0.000000     0.000000
}

set basis cc-pVTZ
E, wfn = energy('ccsd(t)', return_wfn=True)
oeprop(wfn,'MULLIKEN_CHARGES')

--------------------------------------------------------------------------

    Molecular point group: d2h

    Geometry (in Angstrom), charge = 0, multiplicity = 1:

       Center              X                  Y                   Z               Mass
    ------------   -----------------  -----------------  -----------------  -----------------
         O           -2.966000000000    -0.000000000000     0.000000000000    15.994914619570
         C           -1.803000000000    -0.000000000000     0.000000000000    12.000000000000
         O           -0.640000000000    -0.000000000000     0.000000000000    15.994914619570
         O            0.640000000000     0.000000000000     0.000000000000    15.994914619570
         C            1.803000000000     0.000000000000     0.000000000000    12.000000000000
         O            2.966000000000     0.000000000000     0.000000000000    15.994914619570

  Charge       = 0
  Multiplicity = 1
  Basis Set: CC-PVTZ
    Blend: CC-PVTZ

    Orbital Energies [Eh]
    ---------------------

    Doubly Occupied:

       1B3u  -20.626387     1Ag   -20.626385     2Ag   -20.614984
       2B3u  -20.614780     3B3u  -11.409705     3Ag   -11.409697
       4Ag    -1.622789     4B3u   -1.493781     5Ag    -1.476859
       5B3u   -1.429566     6Ag    -1.078554     1B1u   -0.755114
       1B2u   -0.755114     6B3u   -0.753437     7Ag    -0.747698
       1B1g   -0.671623     1B2g   -0.671623     2B1u   -0.579351
       2B2u   -0.579351     2B2g   -0.475793     2B1g   -0.475793
       7B3u   -0.312339

  @RHF Final Energy:  -374.88879837406688

   => Energetics <=

    Nuclear Repulsion Energy =            204.1645211587867550
    One-Electron Energy =                -919.7451925627610763
    Two-Electron Energy =                 340.6918730299074127
    Total Energy =                       -374.8887983740668801
 Dipole X            :          0.0000000            0.0000000            0.0000000
 Dipole Y            :          0.0000000            0.0000000            0.0000000
 Dipole Z            :          0.0000000            0.0000000            0.0000000
 Magnitude           :                                                    0.0000000
      * MP2 total energy                      = -376.238818696443218
      * CCSD total energy                     = -376.199911640832056
      * CCSD(T) total energy                  = -376.267040277487467

  Mulliken Charges: (a.u.)
   Center  Symbol    Alpha    Beta     Spin     Total
       1     O     4.15712  4.15712  0.00000 -0.31425
       2     C     2.76033  2.76033  0.00000  0.47935
       3     O     4.08255  4.08255  0.00000 -0.16510
       4     O     4.08255  4.08255  0.00000 -0.16510
       5     C     2.76033  2.76033  0.00000  0.47935
       6     O     4.15712  4.15712  0.00000 -0.31425

   Total alpha = 22.00000, Total beta = 22.00000, Total charge =  0.00000

*** Psi4 exiting successfully. Buy a developer a beer!
