                               Psi4 1.9.1 release

  ==> Input File <==

--------------------------------------------------------------------------
memory 5 gb

molecule {
0 1
O     -2.326000     0.000000     0.000000
C     -1.163000     0.000000     0.000000
O      0.000000     0.000000     0.000000
O      1.920000     0.000000     0.000000
C      3.083000     0.000000     0.000000
O      4.246000     0.000000     0.000000
}

set basis cc-pVTZ
E, wfn = energy('ccsd(t)', return_wfn=True)
oeprop(wfn,'MULLIKEN_CHARGES')

--------------------------------------------------------------------------

    Molecular point group: d2h

    Geometry (in Angstrom), charge = 0, multiplicity = 1:

       Center              X                  Y                   Z               Mass
    ------------   -----------------  -----------------  -----------------  -----------------
         O           -3.286000000000    -0.000000000000     0.000000000000    15.994914619570
         C           -2.123000000000    -0.000000000000     0.000000000000    12.000000000000
         O           -0.960000000000    -0.000000000000     0.000000000000    15.994914619570
         O            0.960000000000     0.000000000000     0.000000000000    15.994914619570
         C            2.123000000000     0.000000000000     0.000000000000    12.000000000000
         O            3.286000000000     0.000000000000     0.000000000000    15.994914619570

  Charge       = 0
  Multiplicity = 1
  Basis Set: CC-PVTZ
    Blend: CC-PVTZ

    Orbital Energies [Eh]
    ---------------------

    Doubly Occupied:

       1B3u  -20.639849     1Ag   -20.639848     2B3u  -20.628394
       2Ag   -20.628380     3B3u  -11.444372     3Ag   -11.444370
       4Ag    -1.522953     4B3u   -1.513608     5Ag    -1.470967
       5B3u   -1.457860     6Ag    -0.863532     6B3u   -0.769581
       7Ag    -0.753466     1B1u   -0.708146     1B2u   -0.708146
       1B1g   -0.696675     1B2g   -0.696675     7B3u   -0.644950
       2B2u   -0.544043     2B1u   -0.544043     2B2g   -0.519127
       2B1g   -0.519127

  @RHF Final Energy:  -375.36295647234328

   => Energetics <=

    Nuclear Repulsion Energy =            185.5841845672097747
    One-Electron Energy =                -883.1780586228010179
    Two-Electron Energy =                 322.2309175832479013
    Total Energy =                       -375.3629564723432850
 Dipole X            :          0.0000000           -0.0000000           -0.0000000
 Dipole Y            :          0.0000000            0.0000000            0.0000000
 Dipole Z            :          0.0000000            0.0000000            0.0000000
 Magnitude           :                                                    0.0000000
      * MP2 total energy                      = -376.658563260357312
      * CCSD total energy                     = -376.636863142896061
      * CCSD(T) total energy                  = -376.696086586774015

  Mulliken Charges: (a.u.)
   Center  Symbol    Alpha    Beta     Spin     Total
       1     O     4.15242  4.15242  0.00000 -0.30483
       2     C     2.74172  2.74172  0.00000  0.51657
       3     O     4.10587  4.10587  0.00000 -0.21174
       4     O     4.10587  4.10587  0.00000 -0.21174
       5     C     2.74172  2.74172  0.00000  0.51657
       6     O     4.15242  4.15242  0.00000 -0.30483

   Total alpha = 22.00000, Total beta = 22.00000, Total charge =  0.00000

*** Psi4 exiting successfully. Buy a developer a beer!
