                               Psi4 1.9 release

  ==> Input File <==

--------------------------------------------------------------------------
memory 5 gb

molecule {
0 1
O     -2.326000     0.000000     0.000000
C     -1.163000     0.000000     0.000000
O      0.000000     0.000000     0.000000
O      0.707107     0.707107     0.000000
C      1.529472     1.529472     0.000000
O      2.351837     2.351837     0.000000
}

set basis cc-pVTZ
E, wfn = energy('ccsd(t)', return_wfn=True)
oeprop(wfn,'MULLIKEN_CHARGES')

--------------------------------------------------------------------------

    Molecular point group: cs

    Geometry (in Angstrom), charge = 0, multiplicity = 1:

       Center              X                  Y                   Z               Mass
    ------------   -----------------  -----------------  -----------------  -----------------
         O           -2.509236000000    -0.764736000000     0.000000000000    15.994914619570
         C           -1.346236000000    -0.764736000000     0.000000000000    12.000000000000
         O           -0.183236000000    -0.764736000000     0.000000000000    15.994914619570
         O            0.523871000000    -0.057629000000     0.000000000000    15.994914619570
         C            1.346236000000     0.764736000000     0.000000000000    12.000000000000
         O            2.168601000000     1.587101000000     0.000000000000    15.994914619570

  Charge       = 0
  Multiplicity = 1
  Basis Set: CC-PVTZ
    Blend: CC-PVTZ

    Orbital Energies [Eh]
    ---------------------

    Doubly Occupied:

       1Ap   -20.863875     2Ap   -20.815923     3Ap   -20.697184
       4Ap   -20.531923     5Ap   -11.555311     6Ap   -11.315608
       7Ap    -2.052006     8Ap    -1.564874     9Ap    -1.514434
      10Ap    -1.387654    11Ap    -1.285771     1App   -1.046156
      12Ap    -1.044888    13Ap    -0.810943    14Ap    -0.732323
       2App   -0.720577    15Ap    -0.662960    16Ap    -0.602642
       3App   -0.588672    17Ap    -0.535306     4App   -0.474474
      18Ap    -0.148504

  @RHF Final Energy:  -374.47774327597523

   => Energetics <=

    Nuclear Repulsion Energy =            220.6052583929219395
    One-Electron Energy =                -948.2619812503421599
    Two-Electron Energy =                 353.1789795814449349
    Total Energy =                       -374.4777432759752287
 Dipole X            :          2.2296283           -0.0000000            2.2296283
 Dipole Y            :         -0.3392279           -0.0000000           -0.3392279
 Dipole Z            :          0.0000000            0.0000000            0.0000000
 Magnitude           :                                                    2.2552867
      * MP2 total energy                      = -375.821238111126547
      * CCSD total energy                     = -375.793449044575368
      * CCSD(T) total energy                  = -375.866587407405689

  Mulliken Charges: (a.u.)
   Center  Symbol    Alpha    Beta     Spin     Total
       1     O     4.17762  4.17762  0.00000 -0.35523
       2     C     3.09087  3.09087  0.00000 -0.18173
       3     O     3.95724  3.95724  0.00000  0.08551
       4     O     3.71661  3.71661  0.00000  0.56678
       5     C     2.95637  2.95637  0.00000  0.08725
       6     O     4.10129  4.10129  0.00000 -0.20258

   Total alpha = 22.00000, Total beta = 22.00000, Total charge =  0.00000

*** Psi4 exiting successfully. Buy a developer a beer!
