                               Psi4 1.9.1 release

  ==> Input File <==

--------------------------------------------------------------------------
memory 5 gb

molecule {
0 1
O     -2.326000     0.000000     0.000000
C     -1.163000     0.000000     0.000000
O      0.000000     0.000000     0.000000
O      1.103087     1.103087     0.000000
C      1.925452     1.925452     0.000000
O      2.747817     2.747817     0.000000
}

set basis cc-pVTZ
E, wfn = energy('ccsd(t)', return_wfn=True)
oeprop(wfn,'MULLIKEN_CHARGES')

--------------------------------------------------------------------------

    Molecular point group: cs

    Geometry (in Angstrom), charge = 0, multiplicity = 1:

       Center              X                  Y                   Z               Mass
    ------------   -----------------  -----------------  -----------------  -----------------
         O           -2.707226000000    -0.962726000000     0.000000000000    15.994914619570
         C           -1.544226000000    -0.962726000000     0.000000000000    12.000000000000
         O           -0.381226000000    -0.962726000000     0.000000000000    15.994914619570
         O            0.721861000000     0.140361000000     0.000000000000    15.994914619570
         C            1.544226000000     0.962726000000     0.000000000000    12.000000000000
         O            2.366591000000     1.785091000000     0.000000000000    15.994914619570

  Charge       = 0
  Multiplicity = 1
  Basis Set: CC-PVTZ
    Blend: CC-PVTZ

    Orbital Energies [Eh]
    ---------------------

    Doubly Occupied:

       1Ap   -20.642295     2Ap   -20.626283     3Ap   -20.622028
       4Ap   -20.619976     5Ap   -11.440652     6Ap   -11.427193
       7Ap    -1.549482     8Ap    -1.506280     9Ap    -1.478096
      10Ap    -1.444948    11Ap    -0.947967    12Ap    -0.766409
      13Ap    -0.752247    14Ap    -0.728312     1App   -0.723015
      15Ap    -0.690162     2App   -0.686658    16Ap    -0.604726
       3App   -0.561296    17Ap    -0.533804     4App   -0.502969
      18Ap    -0.449224

  @RHF Final Energy:  -375.21676634075709

   => Energetics <=

    Nuclear Repulsion Energy =            197.5767321939319174
    One-Electron Energy =                -906.9789553357909426
    Two-Electron Energy =                 334.1854568011019637
    Total Energy =                       -375.2167663407570899
 Dipole X            :          0.1987963           -0.0000000            0.1987963
 Dipole Y            :          0.0237947           -0.0000000            0.0237947
 Dipole Z            :          0.0000000            0.0000000            0.0000000
 Magnitude           :                                                    0.2002153
      * MP2 total energy                      = -376.531533466431085
      * CCSD total energy                     = -376.503499087696127
      * CCSD(T) total energy                  = -376.565039422418579

  Mulliken Charges: (a.u.)
   Center  Symbol    Alpha    Beta     Spin     Total
       1     O     4.15285  4.15285  0.00000 -0.30571
       2     C     2.75149  2.75149  0.00000  0.49702
       3     O     4.10133  4.10133  0.00000 -0.20266
       4     O     4.10048  4.10048  0.00000 -0.20096
       5     C     2.73946  2.73946  0.00000  0.52108
       6     O     4.15438  4.15438  0.00000 -0.30876

   Total alpha = 22.00000, Total beta = 22.00000, Total charge =  0.00000

*** Psi4 exiting successfully. Buy a developer a beer!
