                               Psi4 1.9 release

  ==> Input File <==

--------------------------------------------------------------------------
memory 5 gb

molecule {
0 1
O     -2.326000     0.000000     0.000000
C     -1.163000     0.000000     0.000000
O      0.000000     0.000000     0.000000
O      1.480000     0.000000     0.000000
C      2.643000     0.000000     0.000000
O      3.806000     0.000000     0.000000
}

set basis cc-pVTZ
E, wfn = energy('ccsd(t)', return_wfn=True)
oeprop(wfn,'MULLIKEN_CHARGES')

--------------------------------------------------------------------------

    Molecular point group: d2h

    Geometry (in Angstrom), charge = 0, multiplicity = 1:

       Center              X                  Y                   Z               Mass
    ------------   -----------------  -----------------  -----------------  -----------------
         O           -3.066000000000    -0.000000000000     0.000000000000    15.994914619570
         C           -1.903000000000    -0.000000000000     0.000000000000    12.000000000000
         O           -0.740000000000    -0.000000000000     0.000000000000    15.994914619570
         O            0.740000000000     0.000000000000     0.000000000000    15.994914619570
         C            1.903000000000     0.000000000000     0.000000000000    12.000000000000
         O            3.066000000000     0.000000000000     0.000000000000    15.994914619570

  Charge       = 0
  Multiplicity = 1
  Basis Set: CC-PVTZ
    Blend: CC-PVTZ

    Orbital Energies [Eh]
    ---------------------

    Doubly Occupied:

       1B3u  -20.632824     1Ag   -20.632822     2Ag   -20.607772
       2B3u  -20.607749     3B3u  -11.426162     3Ag   -11.426157
       4Ag    -1.550334     4B3u   -1.501744     5Ag    -1.477852
       5B3u   -1.439135     6Ag    -0.987145     6B3u   -0.759292
       7Ag    -0.751683     1B2u   -0.721355     1B1u   -0.721355
       1B1g   -0.681934     1B2g   -0.681934     2B1u   -0.562621
       2B2u   -0.562621     2B1g   -0.492958     2B2g   -0.492958
       7B3u   -0.471609

  @RHF Final Energy:  -375.15290512303733

   => Energetics <=

    Nuclear Repulsion Energy =            197.1358017514299945
    One-Electron Energy =                -906.1973818108484693
    Two-Electron Energy =                 333.9086749363811464
    Total Energy =                       -375.1529051230373284
 Dipole X            :          0.0000000            0.0000000            0.0000000
 Dipole Y            :          0.0000000            0.0000000            0.0000000
 Dipole Z            :          0.0000000            0.0000000            0.0000000
 Magnitude           :                                                    0.0000000
      * MP2 total energy                      = -376.470920757041995
      * CCSD total energy                     = -376.442397606517261
      * CCSD(T) total energy                  = -376.504233493949471

  Mulliken Charges: (a.u.)
   Center  Symbol    Alpha    Beta     Spin     Total
       1     O     4.16077  4.16077  0.00000 -0.32154
       2     C     2.74424  2.74424  0.00000  0.51152
       3     O     4.09499  4.09499  0.00000 -0.18998
       4     O     4.09499  4.09499  0.00000 -0.18998
       5     C     2.74424  2.74424  0.00000  0.51152
       6     O     4.16077  4.16077  0.00000 -0.32154

   Total alpha = 22.00000, Total beta = 22.00000, Total charge =  0.00000

*** Psi4 exiting successfully. Buy a developer a beer!
