                               Psi4 1.9.1 release

  ==> Input File <==

--------------------------------------------------------------------------
memory 5 gb

molecule {
0 1
O     -2.326000     0.000000     0.000000
C     -1.163000     0.000000     0.000000
O      0.000000     0.000000     0.000000
O      2.040000     0.000000     0.000000
C      3.203000     0.000000     0.000000
O      4.366000     0.000000     0.000000
}

set basis cc-pVTZ
E, wfn = energy('ccsd(t)', return_wfn=True)
oeprop(wfn,'MULLIKEN_CHARGES')

--------------------------------------------------------------------------

    Molecular point group: d2h

    Geometry (in Angstrom), charge = 0, multiplicity = 1:

       Center              X                  Y                   Z               Mass
    ------------   -----------------  -----------------  -----------------  -----------------
         O           -3.346000000000    -0.000000000000     0.000000000000    15.994914619570
         C           -2.183000000000    -0.000000000000     0.000000000000    12.000000000000
         O           -1.020000000000    -0.000000000000     0.000000000000    15.994914619570
         O            1.020000000000     0.000000000000     0.000000000000    15.994914619570
         C            2.183000000000     0.000000000000     0.000000000000    12.000000000000
         O            3.346000000000     0.000000000000     0.000000000000    15.994914619570

  Charge       = 0
  Multiplicity = 1
  Basis Set: CC-PVTZ
    Blend: CC-PVTZ

    Orbital Energies [Eh]
    ---------------------

    Doubly Occupied:

       1B3u  -20.641036     1Ag   -20.641035     2B3u  -20.632558
       2Ag   -20.632547     3B3u  -11.446867     3Ag   -11.446866
       4Ag    -1.522174     4B3u   -1.515711     5Ag    -1.470133
       5B3u   -1.460789     6Ag    -0.844986     6B3u   -0.772304
       7Ag    -0.752638     1B2u   -0.707617     1B1u   -0.707617
       1B1g   -0.699149     1B2g   -0.699149     7B3u   -0.667965
       2B1u   -0.542059     2B2u   -0.542059     2B1g   -0.523245
       2B2g   -0.523245

  @RHF Final Energy:  -375.38132412159354

   => Energetics <=

    Nuclear Repulsion Energy =            183.0712207260160369
    One-Electron Energy =                -878.1215899518643937
    Two-Electron Energy =                 319.6690451042548489
    Total Energy =                       -375.3813241215935363
 Dipole X            :          0.0000000            0.0000000            0.0000000
 Dipole Y            :          0.0000000            0.0000000            0.0000000
 Dipole Z            :          0.0000000            0.0000000            0.0000000
 Magnitude           :                                                    0.0000000
      * MP2 total energy                      = -376.674517379492499
      * CCSD total energy                     = -376.653487023699086
      * CCSD(T) total energy                  = -376.712474290350599

  Mulliken Charges: (a.u.)
   Center  Symbol    Alpha    Beta     Spin     Total
       1     O     4.15027  4.15027  0.00000 -0.30053
       2     C     2.74242  2.74242  0.00000  0.51516
       3     O     4.10732  4.10732  0.00000 -0.21463
       4     O     4.10732  4.10732  0.00000 -0.21463
       5     C     2.74242  2.74242  0.00000  0.51516
       6     O     4.15027  4.15027  0.00000 -0.30053

   Total alpha = 22.00000, Total beta = 22.00000, Total charge = -0.00000

*** Psi4 exiting successfully. Buy a developer a beer!
