                               Psi4 1.9 release

  ==> Input File <==

--------------------------------------------------------------------------
memory 5 gb

molecule {
0 1
O     -2.326000     0.000000     0.000000
C     -1.163000     0.000000     0.000000
O      0.000000     0.000000     0.000000
O      0.000000     1.280000     0.000000
C      0.000000     2.443000     0.000000
O      0.000000     3.606000     0.000000
}

set basis cc-pVTZ
E, wfn = energy('ccsd(t)', return_wfn=True)
oeprop(wfn,'MULLIKEN_CHARGES')

--------------------------------------------------------------------------

    Molecular point group: cs

    Geometry (in Angstrom), charge = 0, multiplicity = 1:

       Center              X                  Y                   Z               Mass
    ------------   -----------------  -----------------  -----------------  -----------------
         O           -1.744500000000    -1.221500000000     0.000000000000    15.994914619570
         C           -0.581500000000    -1.221500000000     0.000000000000    12.000000000000
         O            0.581500000000    -1.221500000000     0.000000000000    15.994914619570
         O            0.581500000000     0.058500000000     0.000000000000    15.994914619570
         C            0.581500000000     1.221500000000     0.000000000000    12.000000000000
         O            0.581500000000     2.384500000000     0.000000000000    15.994914619570

  Charge       = 0
  Multiplicity = 1
  Basis Set: CC-PVTZ
    Blend: CC-PVTZ

    Orbital Energies [Eh]
    ---------------------

    Doubly Occupied:

       1Ap   -20.663695     2Ap   -20.660937     3Ap   -20.654334
       4Ap   -20.619203     5Ap   -11.446203     6Ap   -11.410223
       7Ap    -1.725579     8Ap    -1.513418     9Ap    -1.474091
      10Ap    -1.444454    11Ap    -1.008193    12Ap    -0.876773
       1App   -0.813463    13Ap    -0.773992    14Ap    -0.738438
      15Ap    -0.696772     2App   -0.682916    16Ap    -0.616633
       3App   -0.587618    17Ap    -0.545806     4App   -0.501305
      18Ap    -0.247813

  @RHF Final Energy:  -374.81027274698198

   => Energetics <=

    Nuclear Repulsion Energy =            219.3415285816023186
    One-Electron Energy =                -948.8998817074606222
    Two-Electron Energy =                 354.7480803788762955
    Total Energy =                       -374.8102727469819797
 Dipole X            :          0.5358538            0.0000000            0.5358538
 Dipole Y            :          0.2883009           -0.0000000            0.2883009
 Dipole Z            :          0.0000000            0.0000000            0.0000000
 Magnitude           :                                                    0.6084873
      * MP2 total energy                      = -376.177173405732162
      * CCSD total energy                     = -376.133063587899585
      * CCSD(T) total energy                  = -376.202916304274140

  Mulliken Charges: (a.u.)
   Center  Symbol    Alpha    Beta     Spin     Total
       1     O     4.14596  4.14596  0.00000 -0.29192
       2     C     2.84408  2.84408  0.00000  0.31183
       3     O     4.02860  4.02860  0.00000 -0.05720
       4     O     4.07571  4.07571  0.00000 -0.15141
       5     C     2.77503  2.77503  0.00000  0.44995
       6     O     4.13062  4.13062  0.00000 -0.26125

   Total alpha = 22.00000, Total beta = 22.00000, Total charge =  0.00000

*** Psi4 exiting successfully. Buy a developer a beer!
