                               Psi4 1.9.1 release

  ==> Input File <==

--------------------------------------------------------------------------
memory 5 gb

molecule {
0 1
O     -2.326000     0.000000     0.000000
C     -1.163000     0.000000     0.000000
O      0.000000     0.000000     0.000000
O      0.000000     1.560000     0.000000
C      0.000000     2.723000     0.000000
O      0.000000     3.886000     0.000000
}

set basis cc-pVTZ
E, wfn = energy('ccsd(t)', return_wfn=True)
oeprop(wfn,'MULLIKEN_CHARGES')

--------------------------------------------------------------------------

    Molecular point group: cs

    Geometry (in Angstrom), charge = 0, multiplicity = 1:

       Center              X                  Y                   Z               Mass
    ------------   -----------------  -----------------  -----------------  -----------------
         O           -1.744500000000    -1.361500000000     0.000000000000    15.994914619570
         C           -0.581500000000    -1.361500000000     0.000000000000    12.000000000000
         O            0.581500000000    -1.361500000000     0.000000000000    15.994914619570
         O            0.581500000000     0.198500000000     0.000000000000    15.994914619570
         C            0.581500000000     1.361500000000     0.000000000000    12.000000000000
         O            0.581500000000     2.524500000000     0.000000000000    15.994914619570

  Charge       = 0
  Multiplicity = 1
  Basis Set: CC-PVTZ
    Blend: CC-PVTZ

    Orbital Energies [Eh]
    ---------------------

    Doubly Occupied:

       1Ap   -20.653929     2Ap   -20.633883     3Ap   -20.632478
       4Ap   -20.607083     5Ap   -11.451677     6Ap   -11.434120
       7Ap    -1.578878     8Ap    -1.512339     9Ap    -1.484740
      10Ap    -1.444985    11Ap    -0.911759    12Ap    -0.800667
      13Ap    -0.770870    14Ap    -0.742361     1App   -0.740421
      15Ap    -0.698088     2App   -0.687575    16Ap    -0.628143
       3App   -0.568786    17Ap    -0.543869     4App   -0.505487
      18Ap    -0.419928

  @RHF Final Energy:  -375.17632648659276

   => Energetics <=

    Nuclear Repulsion Energy =            208.6488861394198580
    One-Electron Energy =                -928.7462882107829500
    Two-Electron Energy =                 344.9210755847703922
    Total Energy =                       -375.1763264865927567
 Dipole X            :          0.2209088            0.0000000            0.2209088
 Dipole Y            :          0.1573515           -0.0000000            0.1573515
 Dipole Z            :          0.0000000            0.0000000            0.0000000
 Magnitude           :                                                    0.2712199
      * MP2 total energy                      = -376.496062059866631
      * CCSD total energy                     = -376.467432156708981
      * CCSD(T) total energy                  = -376.529943846928006

  Mulliken Charges: (a.u.)
   Center  Symbol    Alpha    Beta     Spin     Total
       1     O     4.14542  4.14542  0.00000 -0.29084
       2     C     2.75565  2.75565  0.00000  0.48869
       3     O     4.10584  4.10584  0.00000 -0.21168
       4     O     4.10823  4.10823  0.00000 -0.21646
       5     C     2.74043  2.74043  0.00000  0.51914
       6     O     4.14443  4.14443  0.00000 -0.28886

   Total alpha = 22.00000, Total beta = 22.00000, Total charge =  0.00000

*** Psi4 exiting successfully. Buy a developer a beer!
