                               Psi4 1.9.1 release

  ==> Input File <==

--------------------------------------------------------------------------
memory 5 gb

molecule {
0 1
O     -2.326000     0.000000     0.000000
C     -1.163000     0.000000     0.000000
O      0.000000     0.000000     0.000000
O      1.680000     0.000000     0.000000
C      2.843000     0.000000     0.000000
O      4.006000     0.000000     0.000000
}

set basis cc-pVTZ
E, wfn = energy('ccsd(t)', return_wfn=True)
oeprop(wfn,'MULLIKEN_CHARGES')

--------------------------------------------------------------------------

    Molecular point group: d2h

    Geometry (in Angstrom), charge = 0, multiplicity = 1:

       Center              X                  Y                   Z               Mass
    ------------   -----------------  -----------------  -----------------  -----------------
         O           -3.166000000000    -0.000000000000     0.000000000000    15.994914619570
         C           -2.003000000000    -0.000000000000     0.000000000000    12.000000000000
         O           -0.840000000000    -0.000000000000     0.000000000000    15.994914619570
         O            0.840000000000     0.000000000000     0.000000000000    15.994914619570
         C            2.003000000000     0.000000000000     0.000000000000    12.000000000000
         O            3.166000000000     0.000000000000     0.000000000000    15.994914619570

  Charge       = 0
  Multiplicity = 1
  Basis Set: CC-PVTZ
    Blend: CC-PVTZ

    Orbital Energies [Eh]
    ---------------------

    Doubly Occupied:

       1B3u  -20.636703     1Ag   -20.636702     2B3u  -20.617223
       2Ag   -20.617211     3B3u  -11.436831     3Ag   -11.436828
       4Ag    -1.529203     4B3u   -1.508040     5Ag    -1.474361
       5B3u   -1.449379     6Ag    -0.918568     6B3u   -0.764136
       7Ag    -0.753506     1B1u   -0.711624     1B2u   -0.711624
       1B1g   -0.689924     1B2g   -0.689924     7B3u   -0.573037
       2B1u   -0.551274     2B2u   -0.551274     2B1g   -0.507395
       2B2g   -0.507395

  @RHF Final Energy:  -375.28888053318565

   => Energetics <=

    Nuclear Repulsion Energy =            191.3510110099468875
    One-Electron Energy =                -894.7354579625373390
    Two-Electron Energy =                 328.0955664194048040
    Total Energy =                       -375.2888805331856474
 Dipole X            :          0.0000000            0.0000000            0.0000000
 Dipole Y            :          0.0000000            0.0000000            0.0000000
 Dipole Z            :          0.0000000            0.0000000            0.0000000
 Magnitude           :                                                    0.0000000
      * MP2 total energy                      = -376.592747725796016
      * CCSD total energy                     = -376.568612062294221
      * CCSD(T) total energy                  = -376.628697944554460

  Mulliken Charges: (a.u.)
   Center  Symbol    Alpha    Beta     Spin     Total
       1     O     4.15742  4.15742  0.00000 -0.31485
       2     C     2.74088  2.74088  0.00000  0.51823
       3     O     4.10169  4.10169  0.00000 -0.20339
       4     O     4.10169  4.10169  0.00000 -0.20339
       5     C     2.74088  2.74088  0.00000  0.51823
       6     O     4.15742  4.15742  0.00000 -0.31485

   Total alpha = 22.00000, Total beta = 22.00000, Total charge = -0.00000

*** Psi4 exiting successfully. Buy a developer a beer!
