                               Psi4 1.9 release

  ==> Input File <==

--------------------------------------------------------------------------
memory 5 gb

molecule {
0 1
O     -2.326000     0.000000     0.000000
C     -1.163000     0.000000     0.000000
O      0.000000     0.000000     0.000000
O      0.763675     0.763675     0.000000
C      1.586041     1.586041     0.000000
O      2.408406     2.408406     0.000000
}

set basis cc-pVTZ
E, wfn = energy('ccsd(t)', return_wfn=True)
oeprop(wfn,'MULLIKEN_CHARGES')

--------------------------------------------------------------------------

    Molecular point group: cs

    Geometry (in Angstrom), charge = 0, multiplicity = 1:

       Center              X                  Y                   Z               Mass
    ------------   -----------------  -----------------  -----------------  -----------------
         O           -2.537520318198    -0.793020318198     0.000000000000    15.994914619570
         C           -1.374520318198    -0.793020318198     0.000000000000    12.000000000000
         O           -0.211520318198    -0.793020318198     0.000000000000    15.994914619570
         O            0.552154681802    -0.029345318198     0.000000000000    15.994914619570
         C            1.374520681802     0.793020681802     0.000000000000    12.000000000000
         O            2.196885681802     1.615385681802     0.000000000000    15.994914619570

  Charge       = 0
  Multiplicity = 1
  Basis Set: CC-PVTZ
    Blend: CC-PVTZ

    Orbital Energies [Eh]
    ---------------------

    Doubly Occupied:

       1Ap   -20.818438     2Ap   -20.781792     3Ap   -20.704390
       4Ap   -20.525610     5Ap   -11.552992     6Ap   -11.303027
       7Ap    -1.930051     8Ap    -1.563434     9Ap    -1.509279
      10Ap    -1.380518    11Ap    -1.230780    12Ap    -0.969503
       1App   -0.969067    13Ap    -0.818797    14Ap    -0.730164
       2App   -0.720156    15Ap    -0.657932    16Ap    -0.601909
       3App   -0.591197    17Ap    -0.535085     4App   -0.475603
      18Ap    -0.156220

  @RHF Final Energy:  -374.60049190132287

   => Energetics <=

    Nuclear Repulsion Energy =            216.2984979822896605
    One-Electron Energy =                -940.7460893622666163
    Two-Electron Energy =                 349.8470994786541155
    Total Energy =                       -374.6004919013228687
 Dipole X            :          2.1378144           -0.0000000            2.1378144
 Dipole Y            :          0.2367445           -0.0000000            0.2367445
 Dipole Z            :          0.0000000            0.0000000            0.0000000
 Magnitude           :                                                    2.1508832
      * MP2 total energy                      = -375.951334430769919
      * CCSD total energy                     = -375.921874489491245
      * CCSD(T) total energy                  = -375.996286616657017

  Mulliken Charges: (a.u.)
   Center  Symbol    Alpha    Beta     Spin     Total
       1     O     4.19154  4.19154  0.00000 -0.38308
       2     C     3.00880  3.00880  0.00000 -0.01760
       3     O     4.01611  4.01611  0.00000 -0.03223
       4     O     3.78783  3.78783  0.00000  0.42434
       5     C     2.91316  2.91316  0.00000  0.17369
       6     O     4.08256  4.08256  0.00000 -0.16512

   Total alpha = 22.00000, Total beta = 22.00000, Total charge =  0.00000

*** Psi4 exiting successfully. Buy a developer a beer!
