                               Psi4 1.9.1 release

  ==> Input File <==

--------------------------------------------------------------------------
memory 5 gb

molecule {
0 1
O     -2.326000     0.000000     0.000000
C     -1.163000     0.000000     0.000000
O      0.000000     0.000000     0.000000
O      1.470782     1.470782     0.000000
C      2.293147     2.293147     0.000000
O      3.115512     3.115512     0.000000
}

set basis cc-pVTZ
E, wfn = energy('ccsd(t)', return_wfn=True)
oeprop(wfn,'MULLIKEN_CHARGES')

--------------------------------------------------------------------------

    Molecular point group: cs

    Geometry (in Angstrom), charge = 0, multiplicity = 1:

       Center              X                  Y                   Z               Mass
    ------------   -----------------  -----------------  -----------------  -----------------
         O           -2.891073500000    -1.146573500000     0.000000000000    15.994914619570
         C           -1.728073500000    -1.146573500000     0.000000000000    12.000000000000
         O           -0.565073500000    -1.146573500000     0.000000000000    15.994914619570
         O            0.905708500000     0.324208500000     0.000000000000    15.994914619570
         C            1.728073500000     1.146573500000     0.000000000000    12.000000000000
         O            2.550438500000     1.968938500000     0.000000000000    15.994914619570

  Charge       = 0
  Multiplicity = 1
  Basis Set: CC-PVTZ
    Blend: CC-PVTZ

    Orbital Energies [Eh]
    ---------------------

    Doubly Occupied:

       1Ap   -20.644604     2Ap   -20.639555     3Ap   -20.637386
       4Ap   -20.633388     5Ap   -11.451108     6Ap   -11.446692
       7Ap    -1.524543     8Ap    -1.516368     9Ap    -1.472099
      10Ap    -1.461773    11Ap    -0.835197    12Ap    -0.776239
      13Ap    -0.752837    14Ap    -0.715059     1App   -0.709704
      15Ap    -0.703904     2App   -0.700163    16Ap    -0.678612
       3App   -0.543381    17Ap    -0.539345     4App   -0.525279
      18Ap    -0.522357

  @RHF Final Energy:  -375.38433244082523

   => Energetics <=

    Nuclear Repulsion Energy =            184.7409011282116467
    One-Electron Energy =                -881.3912801279618634
    Two-Electron Energy =                 321.2660465589250407
    Total Energy =                       -375.3843324408252329
 Dipole X            :          0.0614546            0.0000000            0.0614546
 Dipole Y            :         -0.0146207           -0.0000000           -0.0146207
 Dipole Z            :          0.0000000            0.0000000            0.0000000
 Magnitude           :                                                    0.0631699
      * MP2 total energy                      = -376.677075168704107
      * CCSD total energy                     = -376.655941782894104
      * CCSD(T) total energy                  = -376.715002521920610

  Mulliken Charges: (a.u.)
   Center  Symbol    Alpha    Beta     Spin     Total
       1     O     4.14307  4.14307  0.00000 -0.28614
       2     C     2.73688  2.73688  0.00000  0.52623
       3     O     4.12175  4.12175  0.00000 -0.24350
       4     O     4.11083  4.11083  0.00000 -0.22167
       5     C     2.73995  2.73995  0.00000  0.52010
       6     O     4.14752  4.14752  0.00000 -0.29504

   Total alpha = 22.00000, Total beta = 22.00000, Total charge =  0.00000

*** Psi4 exiting successfully. Buy a developer a beer!
