                               Psi4 1.9.1 release

  ==> Input File <==

--------------------------------------------------------------------------
memory 5 gb

molecule {
0 1
O     -2.326000     0.000000     0.000000
C     -1.163000     0.000000     0.000000
O      0.000000     0.000000     0.000000
O      1.244508     1.244508     0.000000
C      2.066873     2.066873     0.000000
O      2.889238     2.889238     0.000000
}

set basis cc-pVTZ
E, wfn = energy('ccsd(t)', return_wfn=True)
oeprop(wfn,'MULLIKEN_CHARGES')

--------------------------------------------------------------------------

    Molecular point group: cs

    Geometry (in Angstrom), charge = 0, multiplicity = 1:

       Center              X                  Y                   Z               Mass
    ------------   -----------------  -----------------  -----------------  -----------------
         O           -2.777936500000    -1.033436500000     0.000000000000    15.994914619570
         C           -1.614936500000    -1.033436500000     0.000000000000    12.000000000000
         O           -0.451936500000    -1.033436500000     0.000000000000    15.994914619570
         O            0.792571500000     0.211071500000     0.000000000000    15.994914619570
         C            1.614936500000     1.033436500000     0.000000000000    12.000000000000
         O            2.437301500000     1.855801500000     0.000000000000    15.994914619570

  Charge       = 0
  Multiplicity = 1
  Basis Set: CC-PVTZ
    Blend: CC-PVTZ

    Orbital Energies [Eh]
    ---------------------

    Doubly Occupied:

       1Ap   -20.642801     2Ap   -20.633693     3Ap   -20.627481
       4Ap   -20.623800     5Ap   -11.445485     6Ap   -11.438165
       7Ap    -1.530935     8Ap    -1.510621     9Ap    -1.475609
      10Ap    -1.453136    11Ap    -0.889331    12Ap    -0.769350
      13Ap    -0.754493    14Ap    -0.718879     1App   -0.713615
      15Ap    -0.696279     2App   -0.693118    16Ap    -0.633805
       3App   -0.551034    17Ap    -0.538182     4App   -0.513693
      18Ap    -0.496856

  @RHF Final Energy:  -375.31831354992823

   => Energetics <=

    Nuclear Repulsion Energy =            192.0175230847125931
    One-Electron Energy =                -895.9709502526715141
    Two-Electron Energy =                 328.6351136180306867
    Total Energy =                       -375.3183135499282344
 Dipole X            :          0.1146617           -0.0000000            0.1146617
 Dipole Y            :         -0.0057913           -0.0000000           -0.0057913
 Dipole Z            :          0.0000000            0.0000000            0.0000000
 Magnitude           :                                                    0.1148078
      * MP2 total energy                      = -376.620257164738632
      * CCSD total energy                     = -376.596348596924656
      * CCSD(T) total energy                  = -376.656404354690608

  Mulliken Charges: (a.u.)
   Center  Symbol    Alpha    Beta     Spin     Total
       1     O     4.14767  4.14767  0.00000 -0.29535
       2     C     2.74209  2.74209  0.00000  0.51582
       3     O     4.11385  4.11385  0.00000 -0.22770
       4     O     4.10648  4.10648  0.00000 -0.21295
       5     C     2.73778  2.73778  0.00000  0.52445
       6     O     4.15213  4.15213  0.00000 -0.30427

   Total alpha = 22.00000, Total beta = 22.00000, Total charge =  0.00000

*** Psi4 exiting successfully. Buy a developer a beer!
