                               Psi4 1.9 release

  ==> Input File <==

--------------------------------------------------------------------------
memory 5 gb

molecule {
0 1
O     -2.326000     0.000000     0.000000
C     -1.163000     0.000000     0.000000
O      0.000000     0.000000     0.000000
O      0.961665     0.961665     0.000000
C      1.784030     1.784030     0.000000
O      2.606396     2.606396     0.000000
}

set basis cc-pVTZ
E, wfn = energy('ccsd(t)', return_wfn=True)
oeprop(wfn,'MULLIKEN_CHARGES')

--------------------------------------------------------------------------

    Molecular point group: cs

    Geometry (in Angstrom), charge = 0, multiplicity = 1:

       Center              X                  Y                   Z               Mass
    ------------   -----------------  -----------------  -----------------  -----------------
         O           -2.636515181802    -0.892015181802     0.000000000000    15.994914619570
         C           -1.473515181802    -0.892015181802     0.000000000000    12.000000000000
         O           -0.310515181802    -0.892015181802     0.000000000000    15.994914619570
         O            0.651149818198     0.069649818198     0.000000000000    15.994914619570
         C            1.473514818198     0.892014818198     0.000000000000    12.000000000000
         O            2.295880818198     1.714380818198     0.000000000000    15.994914619570

  Charge       = 0
  Multiplicity = 1
  Basis Set: CC-PVTZ
    Blend: CC-PVTZ

    Orbital Energies [Eh]
    ---------------------

    Doubly Occupied:

       1Ap   -20.646801     2Ap   -20.634893     3Ap   -20.634713
       4Ap   -20.608020     5Ap   -11.441021     6Ap   -11.400979
       7Ap    -1.610869     8Ap    -1.506623     9Ap    -1.472297
      10Ap    -1.436259    11Ap    -1.033170    12Ap    -0.772528
      13Ap    -0.762915     1App   -0.754721    14Ap    -0.732824
      15Ap    -0.685282     2App   -0.679756    16Ap    -0.593875
       3App   -0.576550    17Ap    -0.527560     4App   -0.491660
      18Ap    -0.343711

  @RHF Final Energy:  -375.02164218308872

   => Energetics <=

    Nuclear Repulsion Energy =            204.2317174466699043
    One-Electron Energy =                -919.8126627902428254
    Two-Electron Energy =                 340.5593031604842054
    Total Energy =                       -375.0216421830887157
 Dipole X            :          0.4622663            0.0000000            0.4622663
 Dipole Y            :          0.1477533            0.0000000            0.1477533
 Dipole Z            :          0.0000000            0.0000000            0.0000000
 Magnitude           :                                                    0.4853052
      * MP2 total energy                      = -376.361695546792760
      * CCSD total energy                     = -376.325130633635013
      * CCSD(T) total energy                  = -376.390063566300626

  Mulliken Charges: (a.u.)
   Center  Symbol    Alpha    Beta     Spin     Total
       1     O     4.16181  4.16181  0.00000 -0.32363
       2     C     2.78295  2.78295  0.00000  0.43410
       3     O     4.07434  4.07434  0.00000 -0.14869
       4     O     4.08393  4.08393  0.00000 -0.16786
       5     C     2.74730  2.74730  0.00000  0.50541
       6     O     4.14967  4.14967  0.00000 -0.29933

   Total alpha = 22.00000, Total beta = 22.00000, Total charge =  0.00000

*** Psi4 exiting successfully. Buy a developer a beer!
