                               Psi4 1.9.1 release

  ==> Input File <==

--------------------------------------------------------------------------
memory 5 gb

molecule {
0 1
O     -2.326000     0.000000     0.000000
C     -1.163000     0.000000     0.000000
O      0.000000     0.000000     0.000000
O      0.000000     1.800000     0.000000
C      0.000000     2.963000     0.000000
O      0.000000     4.126000     0.000000
}

set basis cc-pVTZ
E, wfn = energy('ccsd(t)', return_wfn=True)
oeprop(wfn,'MULLIKEN_CHARGES')

--------------------------------------------------------------------------

    Molecular point group: cs

    Geometry (in Angstrom), charge = 0, multiplicity = 1:

       Center              X                  Y                   Z               Mass
    ------------   -----------------  -----------------  -----------------  -----------------
         O           -1.744500000000    -1.481500000000     0.000000000000    15.994914619570
         C           -0.581500000000    -1.481500000000     0.000000000000    12.000000000000
         O            0.581500000000    -1.481500000000     0.000000000000    15.994914619570
         O            0.581500000000     0.318500000000     0.000000000000    15.994914619570
         C            0.581500000000     1.481500000000     0.000000000000    12.000000000000
         O            0.581500000000     2.644500000000     0.000000000000    15.994914619570

  Charge       = 0
  Multiplicity = 1
  Basis Set: CC-PVTZ
    Blend: CC-PVTZ

    Orbital Energies [Eh]
    ---------------------

    Doubly Occupied:

       1Ap   -20.655378     2Ap   -20.640886     3Ap   -20.636246
       4Ap   -20.614160     5Ap   -11.459515     6Ap   -11.439575
       7Ap    -1.546558     8Ap    -1.513334     9Ap    -1.483910
      10Ap    -1.453552    11Ap    -0.863759    12Ap    -0.788102
      13Ap    -0.769197    14Ap    -0.735104     1App   -0.726547
      15Ap    -0.707378     2App   -0.693047    16Ap    -0.646600
       3App   -0.558017    17Ap    -0.547361     4App   -0.516635
      18Ap    -0.487117

  @RHF Final Energy:  -375.31345782251339

   => Energetics <=

    Nuclear Repulsion Energy =            201.2500088441744595
    One-Electron Energy =                -914.1629772757173669
    Two-Electron Energy =                 337.5995106090295508
    Total Energy =                       -375.3134578225133851
 Dipole X            :          0.1534117            0.0000000            0.1534117
 Dipole Y            :          0.1361309            0.0000000            0.1361309
 Dipole Z            :          0.0000000            0.0000000            0.0000000
 Magnitude           :                                                    0.2051019
      * MP2 total energy                      = -376.616534892592426
      * CCSD total energy                     = -376.592858846772799
      * CCSD(T) total energy                  = -376.653272357052174

  Mulliken Charges: (a.u.)
   Center  Symbol    Alpha    Beta     Spin     Total
       1     O     4.14427  4.14427  0.00000 -0.28855
       2     C     2.74077  2.74077  0.00000  0.51847
       3     O     4.12251  4.12251  0.00000 -0.24503
       4     O     4.11473  4.11473  0.00000 -0.22946
       5     C     2.73480  2.73480  0.00000  0.53039
       6     O     4.14291  4.14291  0.00000 -0.28583

   Total alpha = 22.00000, Total beta = 22.00000, Total charge =  0.00000

*** Psi4 exiting successfully. Buy a developer a beer!
