                               Psi4 1.9.1 release

  ==> Input File <==

--------------------------------------------------------------------------
memory 5 gb

molecule {
0 1
O     -2.326000     0.000000     0.000000
C     -1.163000     0.000000     0.000000
O      0.000000     0.000000     0.000000
O      2.240000     0.000000     0.000000
C      3.403000     0.000000     0.000000
O      4.566000     0.000000     0.000000
}

set basis cc-pVTZ
E, wfn = energy('ccsd(t)', return_wfn=True)
oeprop(wfn,'MULLIKEN_CHARGES')

--------------------------------------------------------------------------

    Molecular point group: d2h

    Geometry (in Angstrom), charge = 0, multiplicity = 1:

       Center              X                  Y                   Z               Mass
    ------------   -----------------  -----------------  -----------------  -----------------
         O           -3.446000000000    -0.000000000000     0.000000000000    15.994914619570
         C           -2.283000000000    -0.000000000000     0.000000000000    12.000000000000
         O           -1.120000000000    -0.000000000000     0.000000000000    15.994914619570
         O            1.120000000000     0.000000000000     0.000000000000    15.994914619570
         C            2.283000000000     0.000000000000     0.000000000000    12.000000000000
         O            3.446000000000     0.000000000000     0.000000000000    15.994914619570

  Charge       = 0
  Multiplicity = 1
  Basis Set: CC-PVTZ
    Blend: CC-PVTZ

    Orbital Energies [Eh]
    ---------------------

    Doubly Occupied:

       1B3u  -20.642599     1Ag   -20.642599     2B3u  -20.637560
       2Ag   -20.637553     3B3u  -11.449853     3Ag   -11.449852
       4Ag    -1.521981     4B3u   -1.518400     5Ag    -1.469593
       5B3u   -1.464309     6Ag    -0.823934     6B3u   -0.776827
       7Ag    -0.750321     1B2u   -0.707435     1B1u   -0.707435
       1B1g   -0.702268     1B2g   -0.702268     7B3u   -0.694104
       2B2u   -0.540124     2B1u   -0.540124     2B1g   -0.528286
       2B2g   -0.528286

  @RHF Final Energy:  -375.39819599289245

   => Energetics <=

    Nuclear Repulsion Energy =            179.3184933465534243
    One-Electron Energy =                -870.5619568176884968
    Two-Electron Energy =                 315.8452674782426470
    Total Energy =                       -375.3981959928924539
 Dipole X            :          0.0000000            0.0000000            0.0000000
 Dipole Y            :          0.0000000            0.0000000            0.0000000
 Dipole Z            :          0.0000000            0.0000000            0.0000000
 Magnitude           :                                                    0.0000000
      * MP2 total energy                      = -376.688706416401033
      * CCSD total energy                     = -376.668375970925638
      * CCSD(T) total energy                  = -376.727103527597308

  Mulliken Charges: (a.u.)
   Center  Symbol    Alpha    Beta     Spin     Total
       1     O     4.14736  4.14736  0.00000 -0.29471
       2     C     2.74230  2.74230  0.00000  0.51540
       3     O     4.11034  4.11034  0.00000 -0.22069
       4     O     4.11034  4.11034  0.00000 -0.22069
       5     C     2.74230  2.74230  0.00000  0.51540
       6     O     4.14736  4.14736  0.00000 -0.29471

   Total alpha = 22.00000, Total beta = 22.00000, Total charge = -0.00000

*** Psi4 exiting successfully. Buy a developer a beer!
