                               Psi4 1.9.1 release

  ==> Input File <==

--------------------------------------------------------------------------
memory 5 gb

molecule {
0 1
O     -2.326000     0.000000     0.000000
C     -1.163000     0.000000     0.000000
O      0.000000     0.000000     0.000000
O      0.000000     1.840000     0.000000
C      0.000000     3.003000     0.000000
O      0.000000     4.166000     0.000000
}

set basis cc-pVTZ
E, wfn = energy('ccsd(t)', return_wfn=True)
oeprop(wfn,'MULLIKEN_CHARGES')

--------------------------------------------------------------------------

    Molecular point group: cs

    Geometry (in Angstrom), charge = 0, multiplicity = 1:

       Center              X                  Y                   Z               Mass
    ------------   -----------------  -----------------  -----------------  -----------------
         O           -1.744500000000    -1.501500000000     0.000000000000    15.994914619570
         C           -0.581500000000    -1.501500000000     0.000000000000    12.000000000000
         O            0.581500000000    -1.501500000000     0.000000000000    15.994914619570
         O            0.581500000000     0.338500000000     0.000000000000    15.994914619570
         C            0.581500000000     1.501500000000     0.000000000000    12.000000000000
         O            0.581500000000     2.664500000000     0.000000000000    15.994914619570

  Charge       = 0
  Multiplicity = 1
  Basis Set: CC-PVTZ
    Blend: CC-PVTZ

    Orbital Energies [Eh]
    ---------------------

    Doubly Occupied:

       1Ap   -20.655474     2Ap   -20.642288     3Ap   -20.636590
       4Ap   -20.615913     5Ap   -11.460318     6Ap   -11.440350
       7Ap    -1.544166     8Ap    -1.513458     9Ap    -1.483656
      10Ap    -1.454661    11Ap    -0.857604    12Ap    -0.787480
      13Ap    -0.768653    14Ap    -0.734112     1App   -0.725357
      15Ap    -0.708700     2App   -0.693833    16Ap    -0.650160
       3App   -0.556824    17Ap    -0.547681     4App   -0.518150
      18Ap    -0.493585

  @RHF Final Energy:  -375.32710936045231

   => Energetics <=

    Nuclear Repulsion Energy =            200.1384529574447697
    One-Electron Energy =                -911.9531044035686591
    Two-Electron Energy =                 336.4875420856715778
    Total Energy =                       -375.3271093604523116
 Dipole X            :          0.1454898            0.0000000            0.1454898
 Dipole Y            :          0.1325873           -0.0000000            0.1325873
 Dipole Z            :          0.0000000            0.0000000            0.0000000
 Magnitude           :                                                    0.1968418
      * MP2 total energy                      = -376.628433087454880
      * CCSD total energy                     = -376.605249840896022
      * CCSD(T) total energy                  = -376.665452141094477

  Mulliken Charges: (a.u.)
   Center  Symbol    Alpha    Beta     Spin     Total
       1     O     4.14406  4.14406  0.00000 -0.28813
       2     C     2.73932  2.73932  0.00000  0.52136
       3     O     4.12402  4.12402  0.00000 -0.24805
       4     O     4.11525  4.11525  0.00000 -0.23050
       5     C     2.73469  2.73469  0.00000  0.53062
       6     O     4.14265  4.14265  0.00000 -0.28531

   Total alpha = 22.00000, Total beta = 22.00000, Total charge =  0.00000

*** Psi4 exiting successfully. Buy a developer a beer!
