                               Psi4 1.9 release

  ==> Input File <==

--------------------------------------------------------------------------
memory 5 gb

molecule {
0 1
O     -2.326000     0.000000     0.000000
C     -1.163000     0.000000     0.000000
O      0.000000     0.000000     0.000000
O      0.000000     1.440000     0.000000
C      0.000000     2.603000     0.000000
O      0.000000     3.766000     0.000000
}

set basis cc-pVTZ
E, wfn = energy('ccsd(t)', return_wfn=True)
oeprop(wfn,'MULLIKEN_CHARGES')

--------------------------------------------------------------------------

    Molecular point group: cs

    Geometry (in Angstrom), charge = 0, multiplicity = 1:

       Center              X                  Y                   Z               Mass
    ------------   -----------------  -----------------  -----------------  -----------------
         O           -1.744500000000    -1.301500000000     0.000000000000    15.994914619570
         C           -0.581500000000    -1.301500000000     0.000000000000    12.000000000000
         O            0.581500000000    -1.301500000000     0.000000000000    15.994914619570
         O            0.581500000000     0.138500000000     0.000000000000    15.994914619570
         C            0.581500000000     1.301500000000     0.000000000000    12.000000000000
         O            0.581500000000     2.464500000000     0.000000000000    15.994914619570

  Charge       = 0
  Multiplicity = 1
  Basis Set: CC-PVTZ
    Blend: CC-PVTZ

    Orbital Energies [Eh]
    ---------------------

    Doubly Occupied:

       1Ap   -20.652707     2Ap   -20.632607     3Ap   -20.631632
       4Ap   -20.612955     5Ap   -11.445795     6Ap   -11.429717
       7Ap    -1.617563     8Ap    -1.511293     9Ap    -1.483782
      10Ap    -1.440676    11Ap    -0.944389    12Ap    -0.819152
      13Ap    -0.770888     1App   -0.757020    14Ap    -0.744954
      15Ap    -0.693779     2App   -0.684417    16Ap    -0.622317
       3App   -0.577011    17Ap    -0.541712     4App   -0.499806
      18Ap    -0.360287

  @RHF Final Energy:  -375.05382610256652

   => Energetics <=

    Nuclear Repulsion Energy =            212.9093026904487829
    One-Electron Energy =                -936.9773345077785507
    Two-Electron Energy =                 349.0142057147631931
    Total Energy =                       -375.0538261025665179
 Dipole X            :          0.2872209            0.0000000            0.2872209
 Dipole Y            :          0.1768853            0.0000000            0.1768853
 Dipole Z            :          0.0000000            0.0000000            0.0000000
 Magnitude           :                                                    0.3373192
      * MP2 total energy                      = -376.388724423422730
      * CCSD total energy                     = -376.355249985964292
      * CCSD(T) total energy                  = -376.419851034448925

  Mulliken Charges: (a.u.)
   Center  Symbol    Alpha    Beta     Spin     Total
       1     O     4.14574  4.14574  0.00000 -0.29147
       2     C     2.77347  2.77347  0.00000  0.45306
       3     O     4.08669  4.08669  0.00000 -0.17338
       4     O     4.10194  4.10194  0.00000 -0.20389
       5     C     2.74867  2.74867  0.00000  0.50267
       6     O     4.14349  4.14349  0.00000 -0.28698

   Total alpha = 22.00000, Total beta = 22.00000, Total charge =  0.00000

*** Psi4 exiting successfully. Buy a developer a beer!
