                               Psi4 1.9.1 release

  ==> Input File <==

--------------------------------------------------------------------------
memory 5 gb

molecule {
0 1
O     -2.326000     0.000000     0.000000
C     -1.163000     0.000000     0.000000
O      0.000000     0.000000     0.000000
O      0.000000     1.640000     0.000000
C      0.000000     2.803000     0.000000
O      0.000000     3.966000     0.000000
}

set basis cc-pVTZ
E, wfn = energy('ccsd(t)', return_wfn=True)
oeprop(wfn,'MULLIKEN_CHARGES')

--------------------------------------------------------------------------

    Molecular point group: cs

    Geometry (in Angstrom), charge = 0, multiplicity = 1:

       Center              X                  Y                   Z               Mass
    ------------   -----------------  -----------------  -----------------  -----------------
         O           -1.744500000000    -1.401500000000     0.000000000000    15.994914619570
         C           -0.581500000000    -1.401500000000     0.000000000000    12.000000000000
         O            0.581500000000    -1.401500000000     0.000000000000    15.994914619570
         O            0.581500000000     0.238500000000     0.000000000000    15.994914619570
         C            0.581500000000     1.401500000000     0.000000000000    12.000000000000
         O            0.581500000000     2.564500000000     0.000000000000    15.994914619570

  Charge       = 0
  Multiplicity = 1
  Basis Set: CC-PVTZ
    Blend: CC-PVTZ

    Orbital Energies [Eh]
    ---------------------

    Doubly Occupied:

       1Ap   -20.654601     2Ap   -20.634920     3Ap   -20.634782
       4Ap   -20.608134     5Ap   -11.454944     6Ap   -11.436162
       7Ap    -1.563419     8Ap    -1.512815     9Ap    -1.484675
      10Ap    -1.448154    11Ap    -0.893521    12Ap    -0.794074
      13Ap    -0.770623    14Ap    -0.739871     1App   -0.733998
      15Ap    -0.701344     2App   -0.689550    16Ap    -0.633445
       3App   -0.564403    17Ap    -0.545330     4App   -0.509529
      18Ap    -0.448885

  @RHF Final Energy:  -375.23498993332407

   => Energetics <=

    Nuclear Repulsion Energy =            206.0314273511204419
    One-Electron Energy =                -923.6184755985427728
    Two-Electron Energy =                 342.3520583140982581
    Total Energy =                       -375.2349899333240728
 Dipole X            :          0.1929986            0.0000000            0.1929986
 Dipole Y            :          0.1498171           -0.0000000            0.1498171
 Dipole Z            :          0.0000000            0.0000000            0.0000000
 Magnitude           :                                                    0.2443228
      * MP2 total energy                      = -376.547676357204239
      * CCSD total energy                     = -376.521196711380924
      * CCSD(T) total energy                  = -376.582797461112989

  Mulliken Charges: (a.u.)
   Center  Symbol    Alpha    Beta     Spin     Total
       1     O     4.14507  4.14507  0.00000 -0.29014
       2     C     2.74895  2.74895  0.00000  0.50210
       3     O     4.11344  4.11344  0.00000 -0.22687
       4     O     4.11119  4.11119  0.00000 -0.22237
       5     C     2.73727  2.73727  0.00000  0.52545
       6     O     4.14408  4.14408  0.00000 -0.28817

   Total alpha = 22.00000, Total beta = 22.00000, Total charge =  0.00000

*** Psi4 exiting successfully. Buy a developer a beer!
