                               Psi4 1.9 release

  ==> Input File <==

--------------------------------------------------------------------------
memory 5 gb

molecule {
0 1
O     -2.326000     0.000000     0.000000
C     -1.163000     0.000000     0.000000
O      0.000000     0.000000     0.000000
O      0.876812     0.876812     0.000000
C      1.699178     1.699178     0.000000
O      2.521543     2.521543     0.000000
}

set basis cc-pVTZ
E, wfn = energy('ccsd(t)', return_wfn=True)
oeprop(wfn,'MULLIKEN_CHARGES')

--------------------------------------------------------------------------

    Molecular point group: cs

    Geometry (in Angstrom), charge = 0, multiplicity = 1:

       Center              X                  Y                   Z               Mass
    ------------   -----------------  -----------------  -----------------  -----------------
         O           -2.594088818198    -0.849588818198     0.000000000000    15.994914619570
         C           -1.431088818198    -0.849588818198     0.000000000000    12.000000000000
         O           -0.268088818198    -0.849588818198     0.000000000000    15.994914619570
         O            0.608723181802     0.027223181802     0.000000000000    15.994914619570
         C            1.431089181802     0.849589181802     0.000000000000    12.000000000000
         O            2.253454181802     1.671954181802     0.000000000000    15.994914619570

  Charge       = 0
  Multiplicity = 1
  Basis Set: CC-PVTZ
    Blend: CC-PVTZ

    Orbital Energies [Eh]
    ---------------------

    Doubly Occupied:

       1Ap   -20.678142     2Ap   -20.672748     3Ap   -20.660514
       4Ap   -20.580166     5Ap   -11.460618     6Ap   -11.363113
       7Ap    -1.700679     8Ap    -1.518568     9Ap    -1.467313
      10Ap    -1.424821    11Ap    -1.102713    12Ap    -0.818122
       1App   -0.809317    13Ap    -0.780130    14Ap    -0.712085
      15Ap    -0.687869     2App   -0.682473    16Ap    -0.592080
       3App   -0.582562    17Ap    -0.529810     4App   -0.487449
      18Ap    -0.252419

  @RHF Final Energy:  -374.84798431464219

   => Energetics <=

    Nuclear Repulsion Energy =            208.9260572694687994
    One-Electron Energy =                -928.4206635235982503
    Two-Electron Energy =                 344.6466219394872041
    Total Energy =                       -374.8479843146421899
 Dipole X            :          0.9345917           -0.0000000            0.9345917
 Dipole Y            :          0.3650217           -0.0000000            0.3650217
 Dipole Z            :          0.0000000            0.0000000            0.0000000
 Magnitude           :                                                    1.0033457
      * MP2 total energy                      = -376.207869855749550
      * CCSD total energy                     = -376.165394922546852
      * CCSD(T) total energy                  = -376.234011807794388

  Mulliken Charges: (a.u.)
   Center  Symbol    Alpha    Beta     Spin     Total
       1     O     4.17122  4.17122  0.00000 -0.34244
       2     C     2.84102  2.84102  0.00000  0.31797
       3     O     4.04934  4.04934  0.00000 -0.09869
       4     O     4.04089  4.04089  0.00000 -0.08178
       5     C     2.76404  2.76404  0.00000  0.47192
       6     O     4.13348  4.13348  0.00000 -0.26697

   Total alpha = 22.00000, Total beta = 22.00000, Total charge =  0.00000

*** Psi4 exiting successfully. Buy a developer a beer!
