                               Psi4 1.9.1 release

  ==> Input File <==

--------------------------------------------------------------------------
memory 5 gb

molecule {
0 1
O     -2.326000     0.000000     0.000000
C     -1.163000     0.000000     0.000000
O      0.000000     0.000000     0.000000
O      2.120000     0.000000     0.000000
C      3.283000     0.000000     0.000000
O      4.446000     0.000000     0.000000
}

set basis cc-pVTZ
E, wfn = energy('ccsd(t)', return_wfn=True)
oeprop(wfn,'MULLIKEN_CHARGES')

--------------------------------------------------------------------------

    Molecular point group: d2h

    Geometry (in Angstrom), charge = 0, multiplicity = 1:

       Center              X                  Y                   Z               Mass
    ------------   -----------------  -----------------  -----------------  -----------------
         O           -3.386000000000    -0.000000000000     0.000000000000    15.994914619570
         C           -2.223000000000    -0.000000000000     0.000000000000    12.000000000000
         O           -1.060000000000    -0.000000000000     0.000000000000    15.994914619570
         O            1.060000000000     0.000000000000     0.000000000000    15.994914619570
         C            2.223000000000     0.000000000000     0.000000000000    12.000000000000
         O            3.386000000000     0.000000000000     0.000000000000    15.994914619570

  Charge       = 0
  Multiplicity = 1
  Basis Set: CC-PVTZ
    Blend: CC-PVTZ

    Orbital Energies [Eh]
    ---------------------

    Doubly Occupied:

       1B3u  -20.641717     1Ag   -20.641717     2B3u  -20.634822
       2Ag   -20.634813     3B3u  -11.448210     3Ag   -11.448209
       4Ag    -1.521990     4B3u   -1.516898     5Ag    -1.469816
       5B3u   -1.462374     6Ag    -0.835262     6B3u   -0.774124
       7Ag    -0.751831     1B2u   -0.707471     1B1u   -0.707471
       1B2g   -0.700531     1B1g   -0.700531     7B3u   -0.679974
       2B1u   -0.541121     2B2u   -0.541121     2B2g   -0.525500
       2B1g   -0.525500

  @RHF Final Energy:  -375.38964769716802

   => Energetics <=

    Nuclear Repulsion Energy =            181.5097539466813998
    One-Electron Energy =                -874.9767944639315829
    Two-Electron Energy =                 318.0773928200821956
    Total Energy =                       -375.3896476971680158
 Dipole X            :          0.0000000            0.0000000            0.0000000
 Dipole Y            :          0.0000000            0.0000000            0.0000000
 Dipole Z            :          0.0000000            0.0000000            0.0000000
 Magnitude           :                                                    0.0000000
      * MP2 total energy                      = -376.681607863830550
      * CCSD total energy                     = -376.660906627409304
      * CCSD(T) total energy                  = -376.719774471478615

  Mulliken Charges: (a.u.)
   Center  Symbol    Alpha    Beta     Spin     Total
       1     O     4.14901  4.14901  0.00000 -0.29802
       2     C     2.74260  2.74260  0.00000  0.51479
       3     O     4.10839  4.10839  0.00000 -0.21677
       4     O     4.10839  4.10839  0.00000 -0.21677
       5     C     2.74260  2.74260  0.00000  0.51479
       6     O     4.14901  4.14901  0.00000 -0.29802

   Total alpha = 22.00000, Total beta = 22.00000, Total charge =  0.00000

*** Psi4 exiting successfully. Buy a developer a beer!
