                               Psi4 1.9.1 release

  ==> Input File <==

--------------------------------------------------------------------------
memory 5 gb

molecule {
0 1
O     -2.326000     0.000000     0.000000
C     -1.163000     0.000000     0.000000
O      0.000000     0.000000     0.000000
O      2.200000     0.000000     0.000000
C      3.363000     0.000000     0.000000
O      4.526000     0.000000     0.000000
}

set basis cc-pVTZ
E, wfn = energy('ccsd(t)', return_wfn=True)
oeprop(wfn,'MULLIKEN_CHARGES')

--------------------------------------------------------------------------

    Molecular point group: d2h

    Geometry (in Angstrom), charge = 0, multiplicity = 1:

       Center              X                  Y                   Z               Mass
    ------------   -----------------  -----------------  -----------------  -----------------
         O           -3.426000000000    -0.000000000000     0.000000000000    15.994914619570
         C           -2.263000000000    -0.000000000000     0.000000000000    12.000000000000
         O           -1.100000000000    -0.000000000000     0.000000000000    15.994914619570
         O            1.100000000000     0.000000000000     0.000000000000    15.994914619570
         C            2.263000000000     0.000000000000     0.000000000000    12.000000000000
         O            3.426000000000     0.000000000000     0.000000000000    15.994914619570

  Charge       = 0
  Multiplicity = 1
  Basis Set: CC-PVTZ
    Blend: CC-PVTZ

    Orbital Energies [Eh]
    ---------------------

    Doubly Occupied:

       1B3u  -20.642323     1Ag   -20.642322     2B3u  -20.636727
       2Ag   -20.636720     3B3u  -11.449349     3Ag   -11.449348
       4Ag    -1.521958     4B3u   -1.517933     5Ag    -1.469639
       5B3u   -1.463716     6Ag    -0.827321     6B3u   -0.775932
       7Ag    -0.750857     1B2u   -0.707429     1B1u   -0.707429
       1B1g   -0.701730     1B2g   -0.701730     7B3u   -0.689848
       2B1u   -0.540411     2B2u   -0.540411     2B1g   -0.527429
       2B2g   -0.527429

  @RHF Final Energy:  -375.39577247740726

   => Energetics <=

    Nuclear Repulsion Energy =            180.0299626153777410
    One-Electron Energy =                -871.9954864498695315
    Two-Electron Energy =                 316.5697513570845558
    Total Energy =                       -375.3957724774072631
 Dipole X            :          0.0000000           -0.0000000           -0.0000000
 Dipole Y            :          0.0000000            0.0000000            0.0000000
 Dipole Z            :          0.0000000            0.0000000            0.0000000
 Magnitude           :                                                    0.0000000
      * MP2 total energy                      = -376.686721221647019
      * CCSD total energy                     = -376.666280850615863
      * CCSD(T) total energy                  = -376.725050861516536

  Mulliken Charges: (a.u.)
   Center  Symbol    Alpha    Beta     Spin     Total
       1     O     4.14788  4.14788  0.00000 -0.29576
       2     C     2.74248  2.74248  0.00000  0.51504
       3     O     4.10964  4.10964  0.00000 -0.21928
       4     O     4.10964  4.10964  0.00000 -0.21928
       5     C     2.74248  2.74248  0.00000  0.51504
       6     O     4.14788  4.14788  0.00000 -0.29576

   Total alpha = 22.00000, Total beta = 22.00000, Total charge =  0.00000

*** Psi4 exiting successfully. Buy a developer a beer!
