                               Psi4 1.9.1 release

  ==> Input File <==

--------------------------------------------------------------------------
memory 5 gb

molecule {
0 1
O     -2.326000     0.000000     0.000000
C     -1.163000     0.000000     0.000000
O      0.000000     0.000000     0.000000
O      1.612203     1.612203     0.000000
C      2.434569     2.434569     0.000000
O      3.256934     3.256934     0.000000
}

set basis cc-pVTZ
E, wfn = energy('ccsd(t)', return_wfn=True)
oeprop(wfn,'MULLIKEN_CHARGES')

--------------------------------------------------------------------------

    Molecular point group: cs

    Geometry (in Angstrom), charge = 0, multiplicity = 1:

       Center              X                  Y                   Z               Mass
    ------------   -----------------  -----------------  -----------------  -----------------
         O           -2.961784318198    -1.217284318198     0.000000000000    15.994914619570
         C           -1.798784318198    -1.217284318198     0.000000000000    12.000000000000
         O           -0.635784318198    -1.217284318198     0.000000000000    15.994914619570
         O            0.976418681802     0.394918681802     0.000000000000    15.994914619570
         C            1.798784681802     1.217284681802     0.000000000000    12.000000000000
         O            2.621149681802     2.039649681802     0.000000000000    15.994914619570

  Charge       = 0
  Multiplicity = 1
  Basis Set: CC-PVTZ
    Blend: CC-PVTZ

    Orbital Energies [Eh]
    ---------------------

    Doubly Occupied:

       1Ap   -20.645537     2Ap   -20.641675     3Ap   -20.641304
       4Ap   -20.637643     5Ap   -11.453240     6Ap   -11.449646
       7Ap    -1.524092     8Ap    -1.518761     9Ap    -1.471453
      10Ap    -1.464939    11Ap    -0.818030    12Ap    -0.780508
      13Ap    -0.749993    14Ap    -0.716859     1App   -0.709293
      15Ap    -0.707014     2App   -0.702966    16Ap    -0.694088
       3App   -0.541424    17Ap    -0.539369     4App   -0.529745
      18Ap    -0.528716

  @RHF Final Energy:  -375.39950608556660

   => Energetics <=

    Nuclear Repulsion Energy =            180.9420321215852141
    One-Electron Energy =                -873.7504893175029110
    Two-Electron Energy =                 317.4089511103511541
    Total Energy =                       -375.3995060855665997
 Dipole X            :          0.0448637           -0.0000000            0.0448637
 Dipole Y            :         -0.0148273           -0.0000000           -0.0148273
 Dipole Z            :          0.0000000            0.0000000            0.0000000
 Magnitude           :                                                    0.0472504
      * MP2 total energy                      = -376.689534517760819
      * CCSD total energy                     = -376.669156613499410
      * CCSD(T) total energy                  = -376.727922891568483

  Mulliken Charges: (a.u.)
   Center  Symbol    Alpha    Beta     Spin     Total
       1     O     4.14146  4.14146  0.00000 -0.28293
       2     C     2.73609  2.73609  0.00000  0.52782
       3     O     4.12320  4.12320  0.00000 -0.24641
       4     O     4.11417  4.11417  0.00000 -0.22834
       5     C     2.73977  2.73977  0.00000  0.52046
       6     O     4.14530  4.14530  0.00000 -0.29061

   Total alpha = 22.00000, Total beta = 22.00000, Total charge =  0.00000

*** Psi4 exiting successfully. Buy a developer a beer!
