                               Psi4 1.9.1 release

  ==> Input File <==

--------------------------------------------------------------------------
memory 5 gb

molecule {
0 1
O     -2.326000     0.000000     0.000000
C     -1.163000     0.000000     0.000000
O      0.000000     0.000000     0.000000
O      1.800000     0.000000     0.000000
C      2.963000     0.000000     0.000000
O      4.126000     0.000000     0.000000
}

set basis cc-pVTZ
E, wfn = energy('ccsd(t)', return_wfn=True)
oeprop(wfn,'MULLIKEN_CHARGES')

--------------------------------------------------------------------------

    Molecular point group: d2h

    Geometry (in Angstrom), charge = 0, multiplicity = 1:

       Center              X                  Y                   Z               Mass
    ------------   -----------------  -----------------  -----------------  -----------------
         O           -3.226000000000    -0.000000000000     0.000000000000    15.994914619570
         C           -2.063000000000    -0.000000000000     0.000000000000    12.000000000000
         O           -0.900000000000    -0.000000000000     0.000000000000    15.994914619570
         O            0.900000000000     0.000000000000     0.000000000000    15.994914619570
         C            2.063000000000     0.000000000000     0.000000000000    12.000000000000
         O            3.226000000000     0.000000000000     0.000000000000    15.994914619570

  Charge       = 0
  Multiplicity = 1
  Basis Set: CC-PVTZ
    Blend: CC-PVTZ

    Orbital Energies [Eh]
    ---------------------

    Doubly Occupied:

       1B3u  -20.638426     1Ag   -20.638425     2B3u  -20.623239
       2Ag   -20.623224     3B3u  -11.441121     3Ag   -11.441119
       4Ag    -1.524879     4B3u   -1.511069     5Ag    -1.472362
       5B3u   -1.454116     6Ag    -0.887719     6B3u   -0.766869
       7Ag    -0.753768     1B1u   -0.709309     1B2u   -0.709309
       1B1g   -0.693636     1B2g   -0.693636     7B3u   -0.614176
       2B2u   -0.546986     2B1u   -0.546986     2B2g   -0.513928
       2B1g   -0.513928

  @RHF Final Energy:  -375.33405347788636

   => Energetics <=

    Nuclear Repulsion Energy =            188.3308634041213168
    One-Electron Energy =                -888.6933752278168868
    Two-Electron Energy =                 325.0284583458091561
    Total Energy =                       -375.3340534778863571
 Dipole X            :          0.0000000           -0.0000000           -0.0000000
 Dipole Y            :          0.0000000            0.0000000            0.0000000
 Dipole Z            :          0.0000000            0.0000000            0.0000000
 Magnitude           :                                                    0.0000000
      * MP2 total energy                      = -376.633046252435975
      * CCSD total energy                     = -376.610368078210911
      * CCSD(T) total energy                  = -376.669933030392940

  Mulliken Charges: (a.u.)
   Center  Symbol    Alpha    Beta     Spin     Total
       1     O     4.15486  4.15486  0.00000 -0.30971
       2     C     2.74096  2.74096  0.00000  0.51808
       3     O     4.10418  4.10418  0.00000 -0.20836
       4     O     4.10418  4.10418  0.00000 -0.20836
       5     C     2.74096  2.74096  0.00000  0.51808
       6     O     4.15486  4.15486  0.00000 -0.30971

   Total alpha = 22.00000, Total beta = 22.00000, Total charge =  0.00000

*** Psi4 exiting successfully. Buy a developer a beer!
