                               Psi4 1.9.1 release

  ==> Input File <==

--------------------------------------------------------------------------
memory 5 gb

molecule {
0 1
O     -2.326000     0.000000     0.000000
C     -1.163000     0.000000     0.000000
O      0.000000     0.000000     0.000000
O      1.960000     0.000000     0.000000
C      3.123000     0.000000     0.000000
O      4.286000     0.000000     0.000000
}

set basis cc-pVTZ
E, wfn = energy('ccsd(t)', return_wfn=True)
oeprop(wfn,'MULLIKEN_CHARGES')

--------------------------------------------------------------------------

    Molecular point group: d2h

    Geometry (in Angstrom), charge = 0, multiplicity = 1:

       Center              X                  Y                   Z               Mass
    ------------   -----------------  -----------------  -----------------  -----------------
         O           -3.306000000000    -0.000000000000     0.000000000000    15.994914619570
         C           -2.143000000000    -0.000000000000     0.000000000000    12.000000000000
         O           -0.980000000000    -0.000000000000     0.000000000000    15.994914619570
         O            0.980000000000     0.000000000000     0.000000000000    15.994914619570
         C            2.143000000000     0.000000000000     0.000000000000    12.000000000000
         O            3.306000000000     0.000000000000     0.000000000000    15.994914619570

  Charge       = 0
  Multiplicity = 1
  Basis Set: CC-PVTZ
    Blend: CC-PVTZ

    Orbital Energies [Eh]
    ---------------------

    Doubly Occupied:

       1B3u  -20.640268     1Ag   -20.640268     2B3u  -20.629890
       2Ag   -20.629877     3B3u  -11.445276     3Ag   -11.445274
       4Ag    -1.522604     4B3u   -1.514355     5Ag    -1.470634
       5B3u   -1.458918     6Ag    -0.856773     6B3u   -0.770487
       7Ag    -0.753245     1B1u   -0.707917     1B2u   -0.707917
       1B1g   -0.697558     1B2g   -0.697558     7B3u   -0.653377
       2B1u   -0.543292     2B2u   -0.543292     2B1g   -0.520608
       2B2g   -0.520608

  @RHF Final Energy:  -375.37002909728295

   => Energetics <=

    Nuclear Repulsion Energy =            184.7222760772835386
    One-Electron Energy =                -881.4446225205385872
    Two-Electron Energy =                 321.3523173459720397
    Total Energy =                       -375.3700290972829521
 Dipole X            :          0.0000000            0.0000000            0.0000000
 Dipole Y            :          0.0000000           -0.0000000           -0.0000000
 Dipole Z            :          0.0000000            0.0000000            0.0000000
 Magnitude           :                                                    0.0000000
      * MP2 total energy                      = -376.664742222041582
      * CCSD total energy                     = -376.643293388521386
      * CCSD(T) total energy                  = -376.702428852739956

  Mulliken Charges: (a.u.)
   Center  Symbol    Alpha    Beta     Spin     Total
       1     O     4.15166  4.15166  0.00000 -0.30333
       2     C     2.74199  2.74199  0.00000  0.51603
       3     O     4.10635  4.10635  0.00000 -0.21270
       4     O     4.10635  4.10635  0.00000 -0.21270
       5     C     2.74199  2.74199  0.00000  0.51603
       6     O     4.15166  4.15166  0.00000 -0.30333

   Total alpha = 22.00000, Total beta = 22.00000, Total charge =  0.00000

*** Psi4 exiting successfully. Buy a developer a beer!
