                               Psi4 1.9.1 release

  ==> Input File <==

--------------------------------------------------------------------------
memory 5 gb

molecule {
0 1
O     -2.326000     0.000000     0.000000
C     -1.163000     0.000000     0.000000
O      0.000000     0.000000     0.000000
O      0.000000     2.240000     0.000000
C      0.000000     3.403000     0.000000
O      0.000000     4.566000     0.000000
}

set basis cc-pVTZ
E, wfn = energy('ccsd(t)', return_wfn=True)
oeprop(wfn,'MULLIKEN_CHARGES')

--------------------------------------------------------------------------

    Molecular point group: cs

    Geometry (in Angstrom), charge = 0, multiplicity = 1:

       Center              X                  Y                   Z               Mass
    ------------   -----------------  -----------------  -----------------  -----------------
         O           -1.744500000000    -1.701500000000     0.000000000000    15.994914619570
         C           -0.581500000000    -1.701500000000     0.000000000000    12.000000000000
         O            0.581500000000    -1.701500000000     0.000000000000    15.994914619570
         O            0.581500000000     0.538500000000     0.000000000000    15.994914619570
         C            0.581500000000     1.701500000000     0.000000000000    12.000000000000
         O            0.581500000000     2.864500000000     0.000000000000    15.994914619570

  Charge       = 0
  Multiplicity = 1
  Basis Set: CC-PVTZ
    Blend: CC-PVTZ

    Orbital Energies [Eh]
    ---------------------

    Doubly Occupied:

       1Ap   -20.655263     2Ap   -20.651333     3Ap   -20.639802
       4Ap   -20.630711     5Ap   -11.464010     6Ap   -11.446759
       7Ap    -1.534885     8Ap    -1.516022     9Ap    -1.481256
      10Ap    -1.462057    11Ap    -0.819433    12Ap    -0.787803
      13Ap    -0.760012    14Ap    -0.729796     1App   -0.719502
      15Ap    -0.716621     2App   -0.700064    16Ap    -0.681267
       3App   -0.550085    17Ap    -0.548337     4App   -0.528480
      18Ap    -0.524434

  @RHF Final Energy:  -375.39449414154905

   => Energetics <=

    Nuclear Repulsion Energy =            190.4946608841706563
    One-Electron Energy =                -892.6824516728878507
    Two-Electron Energy =                 326.7932966471681198
    Total Energy =                       -375.3944941415490462
 Dipole X            :          0.0881864            0.0000000            0.0881864
 Dipole Y            :          0.0962431            0.0000000            0.0962431
 Dipole Z            :          0.0000000            0.0000000            0.0000000
 Magnitude           :                                                    0.1305357
      * MP2 total energy                      = -376.685807031981312
      * CCSD total energy                     = -376.665281032684618
      * CCSD(T) total energy                  = -376.724281244928022

  Mulliken Charges: (a.u.)
   Center  Symbol    Alpha    Beta     Spin     Total
       1     O     4.14145  4.14145  0.00000 -0.28289
       2     C     2.73166  2.73166  0.00000  0.53667
       3     O     4.13131  4.13131  0.00000 -0.26263
       4     O     4.12082  4.12082  0.00000 -0.24164
       5     C     2.73372  2.73372  0.00000  0.53256
       6     O     4.14103  4.14103  0.00000 -0.28207

   Total alpha = 22.00000, Total beta = 22.00000, Total charge = -0.00000

*** Psi4 exiting successfully. Buy a developer a beer!
