                               Psi4 1.9.1 release

  ==> Input File <==

--------------------------------------------------------------------------
memory 5 gb

molecule {
0 1
O     -2.326000     0.000000     0.000000
C     -1.163000     0.000000     0.000000
O      0.000000     0.000000     0.000000
O      1.159655     1.159655     0.000000
C      1.982020     1.982020     0.000000
O      2.804385     2.804385     0.000000
}

set basis cc-pVTZ
E, wfn = energy('ccsd(t)', return_wfn=True)
oeprop(wfn,'MULLIKEN_CHARGES')

--------------------------------------------------------------------------

    Molecular point group: cs

    Geometry (in Angstrom), charge = 0, multiplicity = 1:

       Center              X                  Y                   Z               Mass
    ------------   -----------------  -----------------  -----------------  -----------------
         O           -2.735510000000    -0.991010000000     0.000000000000    15.994914619570
         C           -1.572510000000    -0.991010000000     0.000000000000    12.000000000000
         O           -0.409510000000    -0.991010000000     0.000000000000    15.994914619570
         O            0.750145000000     0.168645000000     0.000000000000    15.994914619570
         C            1.572510000000     0.991010000000     0.000000000000    12.000000000000
         O            2.394875000000     1.813375000000     0.000000000000    15.994914619570

  Charge       = 0
  Multiplicity = 1
  Basis Set: CC-PVTZ
    Blend: CC-PVTZ

    Orbital Energies [Eh]
    ---------------------

    Doubly Occupied:

       1Ap   -20.642305     2Ap   -20.629879     3Ap   -20.623557
       4Ap   -20.620666     5Ap   -11.442594     6Ap   -11.432510
       7Ap    -1.539303     8Ap    -1.507956     9Ap    -1.477428
      10Ap    -1.448446    11Ap    -0.921723    12Ap    -0.767256
      13Ap    -0.753534    14Ap    -0.723510     1App   -0.717982
      15Ap    -0.692683     2App   -0.689441    16Ap    -0.614795
       3App   -0.556508    17Ap    -0.536136     4App   -0.507558
      18Ap    -0.473663

  @RHF Final Energy:  -375.26597578450139

   => Energetics <=

    Nuclear Repulsion Energy =            195.2399371950089915
    One-Electron Energy =                -902.3729588286482795
    Two-Electron Energy =                 331.8670458491378668
    Total Energy =                       -375.2659757845013928
 Dipole X            :          0.1557170            0.0000000            0.1557170
 Dipole Y            :          0.0070941            0.0000000            0.0070941
 Dipole Z            :          0.0000000            0.0000000            0.0000000
 Magnitude           :                                                    0.1558785
      * MP2 total energy                      = -376.574555886219059
      * CCSD total energy                     = -376.548539593777321
      * CCSD(T) total energy                  = -376.609345788750602

  Mulliken Charges: (a.u.)
   Center  Symbol    Alpha    Beta     Spin     Total
       1     O     4.15048  4.15048  0.00000 -0.30095
       2     C     2.74660  2.74660  0.00000  0.50680
       3     O     4.10748  4.10748  0.00000 -0.21497
       4     O     4.10343  4.10343  0.00000 -0.20687
       5     C     2.73820  2.73820  0.00000  0.52359
       6     O     4.15380  4.15380  0.00000 -0.30760

   Total alpha = 22.00000, Total beta = 22.00000, Total charge =  0.00000

*** Psi4 exiting successfully. Buy a developer a beer!
