                               Psi4 1.9.1 release

  ==> Input File <==

--------------------------------------------------------------------------
memory 5 gb

molecule {
0 1
O     -2.326000     0.000000     0.000000
C     -1.163000     0.000000     0.000000
O      0.000000     0.000000     0.000000
O      1.216224     1.216224     0.000000
C      2.038589     2.038589     0.000000
O      2.860954     2.860954     0.000000
}

set basis cc-pVTZ
E, wfn = energy('ccsd(t)', return_wfn=True)
oeprop(wfn,'MULLIKEN_CHARGES')

--------------------------------------------------------------------------

    Molecular point group: cs

    Geometry (in Angstrom), charge = 0, multiplicity = 1:

       Center              X                  Y                   Z               Mass
    ------------   -----------------  -----------------  -----------------  -----------------
         O           -2.763794500000    -1.019294500000     0.000000000000    15.994914619570
         C           -1.600794500000    -1.019294500000     0.000000000000    12.000000000000
         O           -0.437794500000    -1.019294500000     0.000000000000    15.994914619570
         O            0.778429500000     0.196929500000     0.000000000000    15.994914619570
         C            1.600794500000     1.019294500000     0.000000000000    12.000000000000
         O            2.423159500000     1.841659500000     0.000000000000    15.994914619570

  Charge       = 0
  Multiplicity = 1
  Basis Set: CC-PVTZ
    Blend: CC-PVTZ

    Orbital Energies [Eh]
    ---------------------

    Doubly Occupied:

       1Ap   -20.642600     2Ap   -20.632576     3Ap   -20.626082
       4Ap   -20.622606     5Ap   -11.444557     6Ap   -11.436511
       7Ap    -1.533069     8Ap    -1.509744     9Ap    -1.476245
      10Ap    -1.451662    11Ap    -0.899261    12Ap    -0.768585
      13Ap    -0.754299    14Ap    -0.720138     1App   -0.714769
      15Ap    -0.695118     2App   -0.691961    16Ap    -0.627215
       3App   -0.552651    17Ap    -0.537673     4App   -0.511761
      18Ap    -0.490532

  @RHF Final Energy:  -375.30327441875983

   => Energetics <=

    Nuclear Repulsion Energy =            193.0567780771934849
    One-Electron Energy =                -898.0408780557118007
    Two-Electron Energy =                 329.6808255597584889
    Total Energy =                       -375.3032744187598269
 Dipole X            :          0.1261606           -0.0000000            0.1261606
 Dipole Y            :         -0.0025842           -0.0000000           -0.0025842
 Dipole Z            :          0.0000000            0.0000000            0.0000000
 Magnitude           :                                                    0.1261870
      * MP2 total energy                      = -376.607145025929924
      * CCSD total energy                     = -376.582631585568265
      * CCSD(T) total energy                  = -376.642901535349438

  Mulliken Charges: (a.u.)
   Center  Symbol    Alpha    Beta     Spin     Total
       1     O     4.14852  4.14852  0.00000 -0.29704
       2     C     2.74334  2.74334  0.00000  0.51333
       3     O     4.11203  4.11203  0.00000 -0.22406
       4     O     4.10562  4.10562  0.00000 -0.21124
       5     C     2.73775  2.73775  0.00000  0.52450
       6     O     4.15274  4.15274  0.00000 -0.30549

   Total alpha = 22.00000, Total beta = 22.00000, Total charge =  0.00000

*** Psi4 exiting successfully. Buy a developer a beer!
