                               Psi4 1.9 release

  ==> Input File <==

--------------------------------------------------------------------------
memory 5 gb

molecule {
0 1
O     -2.326000     0.000000     0.000000
C     -1.163000     0.000000     0.000000
O      0.000000     0.000000     0.000000
O      0.933381     0.933381     0.000000
C      1.755746     1.755746     0.000000
O      2.578111     2.578111     0.000000
}

set basis cc-pVTZ
E, wfn = energy('ccsd(t)', return_wfn=True)
oeprop(wfn,'MULLIKEN_CHARGES')

--------------------------------------------------------------------------

    Molecular point group: cs

    Geometry (in Angstrom), charge = 0, multiplicity = 1:

       Center              X                  Y                   Z               Mass
    ------------   -----------------  -----------------  -----------------  -----------------
         O           -2.622373000000    -0.877873000000     0.000000000000    15.994914619570
         C           -1.459373000000    -0.877873000000     0.000000000000    12.000000000000
         O           -0.296373000000    -0.877873000000     0.000000000000    15.994914619570
         O            0.637008000000     0.055508000000     0.000000000000    15.994914619570
         C            1.459373000000     0.877873000000     0.000000000000    12.000000000000
         O            2.281738000000     1.700238000000     0.000000000000    15.994914619570

  Charge       = 0
  Multiplicity = 1
  Basis Set: CC-PVTZ
    Blend: CC-PVTZ

    Orbital Energies [Eh]
    ---------------------

    Doubly Occupied:

       1Ap   -20.649752     2Ap   -20.644407     3Ap   -20.643689
       4Ap   -20.600973     5Ap   -11.444371     6Ap   -11.391184
       7Ap    -1.634292     8Ap    -1.508912     9Ap    -1.469446
      10Ap    -1.434276    11Ap    -1.054371    12Ap    -0.781459
      13Ap    -0.768760     1App   -0.768092    14Ap    -0.727770
      15Ap    -0.685336     2App   -0.679260    16Ap    -0.593290
       3App   -0.579334    17Ap    -0.527481     4App   -0.490000
      18Ap    -0.314847

  @RHF Final Energy:  -374.96804028089883

   => Energetics <=

    Nuclear Repulsion Energy =            205.7293079996255756
    One-Electron Energy =                -922.6120894553801008
    Two-Electron Energy =                 341.9147411748556920
    Total Energy =                       -374.9680402808988333
 Dipole X            :          0.5763030            0.0000000            0.5763030
 Dipole Y            :          0.2032878            0.0000000            0.2032878
 Dipole Z            :          0.0000000            0.0000000            0.0000000
 Magnitude           :                                                    0.6111064
      * MP2 total energy                      = -376.314966796645592
      * CCSD total energy                     = -376.276113703819647
      * CCSD(T) total energy                  = -376.342123313128639

  Mulliken Charges: (a.u.)
   Center  Symbol    Alpha    Beta     Spin     Total
       1     O     4.16443  4.16443  0.00000 -0.32887
       2     C     2.79689  2.79689  0.00000  0.40621
       3     O     4.06635  4.06635  0.00000 -0.13270
       4     O     4.07548  4.07548  0.00000 -0.15097
       5     C     2.75059  2.75059  0.00000  0.49882
       6     O     4.14625  4.14625  0.00000 -0.29250

   Total alpha = 22.00000, Total beta = 22.00000, Total charge =  0.00000

*** Psi4 exiting successfully. Buy a developer a beer!
