                               Psi4 1.9.1 release

  ==> Input File <==

--------------------------------------------------------------------------
memory 5 gb

molecule {
0 1
O     -2.326000     0.000000     0.000000
C     -1.163000     0.000000     0.000000
O      0.000000     0.000000     0.000000
O      1.385929     1.385929     0.000000
C      2.208294     2.208294     0.000000
O      3.030660     3.030660     0.000000
}

set basis cc-pVTZ
E, wfn = energy('ccsd(t)', return_wfn=True)
oeprop(wfn,'MULLIKEN_CHARGES')

--------------------------------------------------------------------------

    Molecular point group: cs

    Geometry (in Angstrom), charge = 0, multiplicity = 1:

       Center              X                  Y                   Z               Mass
    ------------   -----------------  -----------------  -----------------  -----------------
         O           -2.848647181802    -1.104147181802     0.000000000000    15.994914619570
         C           -1.685647181802    -1.104147181802     0.000000000000    12.000000000000
         O           -0.522647181802    -1.104147181802     0.000000000000    15.994914619570
         O            0.863281818198     0.281781818198     0.000000000000    15.994914619570
         C            1.685646818198     1.104146818198     0.000000000000    12.000000000000
         O            2.508012818198     1.926512818198     0.000000000000    15.994914619570

  Charge       = 0
  Multiplicity = 1
  Basis Set: CC-PVTZ
    Blend: CC-PVTZ

    Orbital Energies [Eh]
    ---------------------

    Doubly Occupied:

       1Ap   -20.643946     2Ap   -20.637828     3Ap   -20.634165
       4Ap   -20.630092     5Ap   -11.449368     6Ap   -11.444222
       7Ap    -1.525598     8Ap    -1.514504     9Ap    -1.472999
      10Ap    -1.459142    11Ap    -0.850866    12Ap    -0.773595
      13Ap    -0.754012    14Ap    -0.715465     1App   -0.710448
      15Ap    -0.701396     2App   -0.697945    16Ap    -0.664476
       3App   -0.545378    17Ap    -0.539232     4App   -0.521679
      18Ap    -0.516145

  @RHF Final Energy:  -375.36802248077976

   => Energetics <=

    Nuclear Repulsion Energy =            187.2746394216100043
    One-Electron Energy =                -886.4803244176232511
    Two-Electron Energy =                 323.8376625152334896
    Total Energy =                       -375.3680224807797572
 Dipole X            :          0.0759300            0.0000000            0.0759300
 Dipole Y            :         -0.0133781            0.0000000           -0.0133781
 Dipole Z            :          0.0000000            0.0000000            0.0000000
 Magnitude           :                                                    0.0770995
      * MP2 total energy                      = -376.663251410437397
      * CCSD total energy                     = -376.641391721940124
      * CCSD(T) total energy                  = -376.700719187995730

  Mulliken Charges: (a.u.)
   Center  Symbol    Alpha    Beta     Spin     Total
       1     O     4.14442  4.14442  0.00000 -0.28884
       2     C     2.73809  2.73809  0.00000  0.52382
       3     O     4.11989  4.11989  0.00000 -0.23977
       4     O     4.10934  4.10934  0.00000 -0.21867
       5     C     2.73919  2.73919  0.00000  0.52162
       6     O     4.14908  4.14908  0.00000 -0.29816

   Total alpha = 22.00000, Total beta = 22.00000, Total charge =  0.00000

*** Psi4 exiting successfully. Buy a developer a beer!
