                               Psi4 1.9.1 release

  ==> Input File <==

--------------------------------------------------------------------------
memory 5 gb

molecule {
0 1
O     -2.326000     0.000000     0.000000
C     -1.163000     0.000000     0.000000
O      0.000000     0.000000     0.000000
O      1.301076     1.301076     0.000000
C      2.123442     2.123442     0.000000
O      2.945807     2.945807     0.000000
}

set basis cc-pVTZ
E, wfn = energy('ccsd(t)', return_wfn=True)
oeprop(wfn,'MULLIKEN_CHARGES')

--------------------------------------------------------------------------

    Molecular point group: cs

    Geometry (in Angstrom), charge = 0, multiplicity = 1:

       Center              X                  Y                   Z               Mass
    ------------   -----------------  -----------------  -----------------  -----------------
         O           -2.806220818198    -1.061720818198     0.000000000000    15.994914619570
         C           -1.643220818198    -1.061720818198     0.000000000000    12.000000000000
         O           -0.480220818198    -1.061720818198     0.000000000000    15.994914619570
         O            0.820855181802     0.239355181802     0.000000000000    15.994914619570
         C            1.643221181802     1.061721181802     0.000000000000    12.000000000000
         O            2.465586181802     1.884086181802     0.000000000000    15.994914619570

  Charge       = 0
  Multiplicity = 1
  Basis Set: CC-PVTZ
    Blend: CC-PVTZ

    Orbital Energies [Eh]
    ---------------------

    Doubly Occupied:

       1Ap   -20.643249     2Ap   -20.635591     3Ap   -20.630293
       4Ap   -20.626347     5Ap   -11.447195     6Ap   -11.440963
       7Ap    -1.527978     8Ap    -1.512286     9Ap    -1.474410
      10Ap    -1.455806    11Ap    -0.871840    12Ap    -0.770993
      13Ap    -0.754563    14Ap    -0.717017     1App   -0.711932
      15Ap    -0.698466     2App   -0.695234    16Ap    -0.646855
       3App   -0.548337    17Ap    -0.538826     4App   -0.517214
      18Ap    -0.506526

  @RHF Final Energy:  -375.34260988371778

   => Energetics <=

    Nuclear Repulsion Energy =            190.0343757473582968
    One-Electron Energy =                -892.0101307311392702
    Two-Electron Energy =                 326.6331451000631318
    Total Energy =                       -375.3426098837177847
 Dipole X            :          0.0961428           -0.0000000            0.0961428
 Dipole Y            :         -0.0101086           -0.0000000           -0.0101086
 Dipole Z            :          0.0000000            0.0000000            0.0000000
 Magnitude           :                                                    0.0966727
      * MP2 total energy                      = -376.641365807483908
      * CCSD total energy                     = -376.618442654792204
      * CCSD(T) total energy                  = -376.678149850165937

  Mulliken Charges: (a.u.)
   Center  Symbol    Alpha    Beta     Spin     Total
       1     O     4.14619  4.14619  0.00000 -0.29239
       2     C     2.74012  2.74012  0.00000  0.51977
       3     O     4.11680  4.11680  0.00000 -0.23361
       4     O     4.10783  4.10783  0.00000 -0.21566
       5     C     2.73819  2.73819  0.00000  0.52362
       6     O     4.15087  4.15087  0.00000 -0.30174

   Total alpha = 22.00000, Total beta = 22.00000, Total charge =  0.00000

*** Psi4 exiting successfully. Buy a developer a beer!
