                               Psi4 1.9 release

  ==> Input File <==

--------------------------------------------------------------------------
memory 5 gb

molecule {
0 1
O     -2.326000     0.000000     0.000000
C     -1.163000     0.000000     0.000000
O      0.000000     0.000000     0.000000
O      0.000000     1.120000     0.000000
C      0.000000     2.283000     0.000000
O      0.000000     3.446000     0.000000
}

set basis cc-pVTZ
E, wfn = energy('ccsd(t)', return_wfn=True)
oeprop(wfn,'MULLIKEN_CHARGES')

--------------------------------------------------------------------------

    Molecular point group: cs

    Geometry (in Angstrom), charge = 0, multiplicity = 1:

       Center              X                  Y                   Z               Mass
    ------------   -----------------  -----------------  -----------------  -----------------
         O           -1.744500000000    -1.141500000000     0.000000000000    15.994914619570
         C           -0.581500000000    -1.141500000000     0.000000000000    12.000000000000
         O            0.581500000000    -1.141500000000     0.000000000000    15.994914619570
         O            0.581500000000    -0.021500000000     0.000000000000    15.994914619570
         C            0.581500000000     1.141500000000     0.000000000000    12.000000000000
         O            0.581500000000     2.304500000000     0.000000000000    15.994914619570

  Charge       = 0
  Multiplicity = 1
  Basis Set: CC-PVTZ
    Blend: CC-PVTZ

    Orbital Energies [Eh]
    ---------------------

    Doubly Occupied:

       1Ap   -20.828389     2Ap   -20.822730     3Ap   -20.632342
       4Ap   -20.578214     5Ap   -11.462592     6Ap   -11.336881
       7Ap    -1.968414     8Ap    -1.526774     9Ap    -1.467492
      10Ap    -1.425446    11Ap    -1.155766    12Ap    -1.014535
       1App   -0.986267    13Ap    -0.752728    14Ap    -0.738789
      15Ap    -0.699681     2App   -0.696146    16Ap    -0.617140
       3App   -0.574782    17Ap    -0.561037     4App   -0.519095
      18Ap    -0.151441

  @RHF Final Energy:  -374.54713844490055

   => Energetics <=

    Nuclear Repulsion Energy =            226.8844688672555492
    One-Electron Energy =                -961.8298547544463872
    Two-Electron Energy =                 360.3982474422902555
    Total Energy =                       -374.5471384449005541
 Dipole X            :          1.0037363            0.0000000            1.0037363
 Dipole Y            :         -0.3191183           -0.0000000           -0.3191183
 Dipole Z            :          0.0000000            0.0000000            0.0000000
 Magnitude           :                                                    1.0532440
      * MP2 total energy                      = -375.902782427018565
      * CCSD total energy                     = -375.873072543564660
      * CCSD(T) total energy                  = -375.945738823784950

  Mulliken Charges: (a.u.)
   Center  Symbol    Alpha    Beta     Spin     Total
       1     O     4.16499  4.16499  0.00000 -0.32998
       2     C     2.97700  2.97700  0.00000  0.04599
       3     O     3.97527  3.97527  0.00000  0.04946
       4     O     3.83140  3.83140  0.00000  0.33720
       5     C     2.91451  2.91451  0.00000  0.17097
       6     O     4.13682  4.13682  0.00000 -0.27365

   Total alpha = 22.00000, Total beta = 22.00000, Total charge =  0.00000

*** Psi4 exiting successfully. Buy a developer a beer!
