                               Psi4 1.9.1 release

  ==> Input File <==

--------------------------------------------------------------------------
memory 5 gb

molecule {
0 1
O     -2.326000     0.000000     0.000000
C     -1.163000     0.000000     0.000000
O      0.000000     0.000000     0.000000
O      0.000000     1.600000     0.000000
C      0.000000     2.763000     0.000000
O      0.000000     3.926000     0.000000
}

set basis cc-pVTZ
E, wfn = energy('ccsd(t)', return_wfn=True)
oeprop(wfn,'MULLIKEN_CHARGES')

--------------------------------------------------------------------------

    Molecular point group: cs

    Geometry (in Angstrom), charge = 0, multiplicity = 1:

       Center              X                  Y                   Z               Mass
    ------------   -----------------  -----------------  -----------------  -----------------
         O           -1.744500000000    -1.381500000000     0.000000000000    15.994914619570
         C           -0.581500000000    -1.381500000000     0.000000000000    12.000000000000
         O            0.581500000000    -1.381500000000     0.000000000000    15.994914619570
         O            0.581500000000     0.218500000000     0.000000000000    15.994914619570
         C            0.581500000000     1.381500000000     0.000000000000    12.000000000000
         O            0.581500000000     2.544500000000     0.000000000000    15.994914619570

  Charge       = 0
  Multiplicity = 1
  Basis Set: CC-PVTZ
    Blend: CC-PVTZ

    Orbital Energies [Eh]
    ---------------------

    Doubly Occupied:

       1Ap   -20.654289     2Ap   -20.634360     3Ap   -20.633579
       4Ap   -20.607319     5Ap   -11.453397     6Ap   -11.435186
       7Ap    -1.570362     8Ap    -1.512605     9Ap    -1.484749
      10Ap    -1.446590    11Ap    -0.902337    12Ap    -0.796949
      13Ap    -0.770783    14Ap    -0.741142     1App   -0.736891
      15Ap    -0.699716     2App   -0.688581    16Ap    -0.630658
       3App   -0.566484    17Ap    -0.544629     4App   -0.507530
      18Ap    -0.435376

  @RHF Final Energy:  -375.20763102418482

   => Energetics <=

    Nuclear Repulsion Energy =            207.3195421868598203
    One-Electron Energy =                -926.1473210756070102
    Two-Electron Energy =                 343.6201478645623411
    Total Energy =                       -375.2076310241848205
 Dipole X            :          0.2059514            0.0000000            0.2059514
 Dipole Y            :          0.1533913           -0.0000000            0.1533913
 Dipole Z            :          0.0000000            0.0000000            0.0000000
 Magnitude           :                                                    0.2567973
      * MP2 total energy                      = -376.523601001143106
      * CCSD total energy                     = -376.496128654134509
      * CCSD(T) total energy                  = -376.558149181684144

  Mulliken Charges: (a.u.)
   Center  Symbol    Alpha    Beta     Spin     Total
       1     O     4.14525  4.14525  0.00000 -0.29050
       2     C     2.75198  2.75198  0.00000  0.49605
       3     O     4.11000  4.11000  0.00000 -0.21999
       4     O     4.10982  4.10982  0.00000 -0.21963
       5     C     2.73865  2.73865  0.00000  0.52269
       6     O     4.14431  4.14431  0.00000 -0.28861

   Total alpha = 22.00000, Total beta = 22.00000, Total charge =  0.00000

*** Psi4 exiting successfully. Buy a developer a beer!
