                               Psi4 1.9 release

  ==> Input File <==

--------------------------------------------------------------------------
memory 5 gb

molecule {
0 1
O     -2.326000     0.000000     0.000000
C     -1.163000     0.000000     0.000000
O      0.000000     0.000000     0.000000
O      1.440000     0.000000     0.000000
C      2.603000     0.000000     0.000000
O      3.766000     0.000000     0.000000
}

set basis cc-pVTZ
E, wfn = energy('ccsd(t)', return_wfn=True)
oeprop(wfn,'MULLIKEN_CHARGES')

--------------------------------------------------------------------------

    Molecular point group: d2h

    Geometry (in Angstrom), charge = 0, multiplicity = 1:

       Center              X                  Y                   Z               Mass
    ------------   -----------------  -----------------  -----------------  -----------------
         O           -3.046000000000    -0.000000000000     0.000000000000    15.994914619570
         C           -1.883000000000    -0.000000000000     0.000000000000    12.000000000000
         O           -0.720000000000    -0.000000000000     0.000000000000    15.994914619570
         O            0.720000000000     0.000000000000     0.000000000000    15.994914619570
         C            1.883000000000     0.000000000000     0.000000000000    12.000000000000
         O            3.046000000000     0.000000000000     0.000000000000    15.994914619570

  Charge       = 0
  Multiplicity = 1
  Basis Set: CC-PVTZ
    Blend: CC-PVTZ

    Orbital Energies [Eh]
    ---------------------

    Doubly Occupied:

       1B3u  -20.631815     1Ag   -20.631814     2Ag   -20.606803
       2B3u  -20.606763     3B3u  -11.423307     3Ag   -11.423301
       4Ag    -1.558757     4B3u   -1.500272     5Ag    -1.478212
       5B3u   -1.436850     6Ag    -1.003579     6B3u   -0.758228
       7Ag    -0.751077     1B1u   -0.725068     1B2u   -0.725068
       1B2g   -0.680030     1B1g   -0.680030     2B1u   -0.565622
       2B2u   -0.565622     2B1g   -0.489547     2B2g   -0.489547
       7B3u   -0.444922

  @RHF Final Energy:  -375.11245428427259

   => Energetics <=

    Nuclear Repulsion Energy =            198.4282373409641593
    One-Electron Energy =                -908.7289113252066954
    Two-Electron Energy =                 335.1882196999699204
    Total Energy =                       -375.1124542842725873
 Dipole X            :          0.0000000            0.0000000            0.0000000
 Dipole Y            :          0.0000000           -0.0000000           -0.0000000
 Dipole Z            :          0.0000000            0.0000000            0.0000000
 Magnitude           :                                                    0.0000000
      * MP2 total energy                      = -376.434821429849990
      * CCSD total energy                     = -376.404925021184283
      * CCSD(T) total energy                  = -376.467374638223930

  Mulliken Charges: (a.u.)
   Center  Symbol    Alpha    Beta     Spin     Total
       1     O     4.16102  4.16102  0.00000 -0.32205
       2     C     2.74573  2.74573  0.00000  0.50854
       3     O     4.09325  4.09325  0.00000 -0.18649
       4     O     4.09325  4.09325  0.00000 -0.18649
       5     C     2.74573  2.74573  0.00000  0.50854
       6     O     4.16102  4.16102  0.00000 -0.32205

   Total alpha = 22.00000, Total beta = 22.00000, Total charge =  0.00000

*** Psi4 exiting successfully. Buy a developer a beer!
