                               Psi4 1.9 release

  ==> Input File <==

--------------------------------------------------------------------------
memory 5 gb

molecule {
0 1
O     -2.326000     0.000000     0.000000
C     -1.163000     0.000000     0.000000
O      0.000000     0.000000     0.000000
O      0.820244     0.820244     0.000000
C      1.642609     1.642609     0.000000
O      2.464974     2.464974     0.000000
}

set basis cc-pVTZ
E, wfn = energy('ccsd(t)', return_wfn=True)
oeprop(wfn,'MULLIKEN_CHARGES')

--------------------------------------------------------------------------

    Molecular point group: cs

    Geometry (in Angstrom), charge = 0, multiplicity = 1:

       Center              X                  Y                   Z               Mass
    ------------   -----------------  -----------------  -----------------  -----------------
         O           -2.565804500000    -0.821304500000     0.000000000000    15.994914619570
         C           -1.402804500000    -0.821304500000     0.000000000000    12.000000000000
         O           -0.239804500000    -0.821304500000     0.000000000000    15.994914619570
         O            0.580439500000    -0.001060500000     0.000000000000    15.994914619570
         C            1.402804500000     0.821304500000     0.000000000000    12.000000000000
         O            2.225169500000     1.643669500000     0.000000000000    15.994914619570

  Charge       = 0
  Multiplicity = 1
  Basis Set: CC-PVTZ
    Blend: CC-PVTZ

    Orbital Energies [Eh]
    ---------------------

    Doubly Occupied:

       1Ap   -20.738790     2Ap   -20.721368     3Ap   -20.680777
       4Ap   -20.549248     5Ap   -11.499247     6Ap   -11.324682
       7Ap    -1.801337     8Ap    -1.538240     9Ap    -1.481577
      10Ap    -1.400727    11Ap    -1.161875    12Ap    -0.882071
       1App   -0.878021    13Ap    -0.798777    14Ap    -0.709269
       2App   -0.697040    15Ap    -0.677533    16Ap    -0.592971
       3App   -0.583946    17Ap    -0.533415     4App   -0.482787
      18Ap    -0.192855

  @RHF Final Energy:  -374.71997892008807

   => Energetics <=

    Nuclear Repulsion Energy =            212.4301251764734957
    One-Electron Energy =                -934.4470973413941692
    Two-Electron Energy =                 347.2969932448325494
    Total Energy =                       -374.7199789200880673
 Dipole X            :          1.5146197            0.0000000            1.5146197
 Dipole Y            :          0.5122449            0.0000000            0.5122449
 Dipole Z            :          0.0000000            0.0000000            0.0000000
 Magnitude           :                                                    1.5988957
      * MP2 total energy                      = -376.083289994315805
      * CCSD total energy                     = -376.043414530012910
      * CCSD(T) total energy                  = -376.115122143081976

  Mulliken Charges: (a.u.)
   Center  Symbol    Alpha    Beta     Spin     Total
       1     O     4.18263  4.18263  0.00000 -0.36526
       2     C     2.91158  2.91158  0.00000  0.17685
       3     O     4.03891  4.03891  0.00000 -0.07783
       4     O     3.95013  3.95013  0.00000  0.09974
       5     C     2.80899  2.80899  0.00000  0.38201
       6     O     4.10775  4.10775  0.00000 -0.21550

   Total alpha = 22.00000, Total beta = 22.00000, Total charge =  0.00000

*** Psi4 exiting successfully. Buy a developer a beer!
