                               Psi4 1.9 release

  ==> Input File <==

--------------------------------------------------------------------------
memory 5 gb

molecule {
0 1
O     -2.326000     0.000000     0.000000
C     -1.163000     0.000000     0.000000
O      0.000000     0.000000     0.000000
O      0.905097     0.905097     0.000000
C      1.727462     1.727462     0.000000
O      2.549827     2.549827     0.000000
}

set basis cc-pVTZ
E, wfn = energy('ccsd(t)', return_wfn=True)
oeprop(wfn,'MULLIKEN_CHARGES')

--------------------------------------------------------------------------

    Molecular point group: cs

    Geometry (in Angstrom), charge = 0, multiplicity = 1:

       Center              X                  Y                   Z               Mass
    ------------   -----------------  -----------------  -----------------  -----------------
         O           -2.608231000000    -0.863731000000     0.000000000000    15.994914619570
         C           -1.445231000000    -0.863731000000     0.000000000000    12.000000000000
         O           -0.282231000000    -0.863731000000     0.000000000000    15.994914619570
         O            0.622866000000     0.041366000000     0.000000000000    15.994914619570
         C            1.445231000000     0.863731000000     0.000000000000    12.000000000000
         O            2.267596000000     1.686096000000     0.000000000000    15.994914619570

  Charge       = 0
  Multiplicity = 1
  Basis Set: CC-PVTZ
    Blend: CC-PVTZ

    Orbital Energies [Eh]
    ---------------------

    Doubly Occupied:

       1Ap   -20.658405     2Ap   -20.656113     3Ap   -20.654154
       4Ap   -20.591850     5Ap   -11.450466     6Ap   -11.378719
       7Ap    -1.663777     8Ap    -1.512723     9Ap    -1.467144
      10Ap    -1.431032    11Ap    -1.077432    12Ap    -0.796774
       1App   -0.785859    13Ap    -0.773886    14Ap    -0.720729
      15Ap    -0.686216     2App   -0.679896    16Ap    -0.592721
       3App   -0.581425    17Ap    -0.528238     4App   -0.488667
      18Ap    -0.284116

  @RHF Final Energy:  -374.90985246594835

   => Energetics <=

    Nuclear Repulsion Energy =            207.2923180419405753
    One-Electron Energy =                -925.4836548492713746
    Two-Electron Energy =                 343.2814843413824519
    Total Energy =                       -374.9098524659483473
 Dipole X            :          0.7300677           -0.0000000            0.7300677
 Dipole Y            :          0.2759531            0.0000000            0.2759531
 Dipole Z            :          0.0000000            0.0000000            0.0000000
 Magnitude           :                                                    0.7804800
      * MP2 total energy                      = -376.263693238884628
      * CCSD total energy                     = -376.222692579552017
      * CCSD(T) total energy                  = -376.289933780817648

  Mulliken Charges: (a.u.)
   Center  Symbol    Alpha    Beta     Spin     Total
       1     O     4.16750  4.16750  0.00000 -0.33500
       2     C     2.81581  2.81581  0.00000  0.36837
       3     O     4.05775  4.05775  0.00000 -0.11549
       4     O     4.06223  4.06223  0.00000 -0.12446
       5     C     2.75561  2.75561  0.00000  0.48879
       6     O     4.14110  4.14110  0.00000 -0.28220

   Total alpha = 22.00000, Total beta = 22.00000, Total charge = -0.00000

*** Psi4 exiting successfully. Buy a developer a beer!
