                               Psi4 1.9.1 release

  ==> Input File <==

--------------------------------------------------------------------------
memory 5 gb

molecule {
0 1
O     -2.326000     0.000000     0.000000
C     -1.163000     0.000000     0.000000
O      0.000000     0.000000     0.000000
O      0.000000     1.520000     0.000000
C      0.000000     2.683000     0.000000
O      0.000000     3.846000     0.000000
}

set basis cc-pVTZ
E, wfn = energy('ccsd(t)', return_wfn=True)
oeprop(wfn,'MULLIKEN_CHARGES')

--------------------------------------------------------------------------

    Molecular point group: cs

    Geometry (in Angstrom), charge = 0, multiplicity = 1:

       Center              X                  Y                   Z               Mass
    ------------   -----------------  -----------------  -----------------  -----------------
         O           -1.744500000000    -1.341500000000     0.000000000000    15.994914619570
         C           -0.581500000000    -1.341500000000     0.000000000000    12.000000000000
         O            0.581500000000    -1.341500000000     0.000000000000    15.994914619570
         O            0.581500000000     0.178500000000     0.000000000000    15.994914619570
         C            0.581500000000     1.341500000000     0.000000000000    12.000000000000
         O            0.581500000000     2.504500000000     0.000000000000    15.994914619570

  Charge       = 0
  Multiplicity = 1
  Basis Set: CC-PVTZ
    Blend: CC-PVTZ

    Orbital Energies [Eh]
    ---------------------

    Doubly Occupied:

       1Ap   -20.653529     2Ap   -20.633316     3Ap   -20.631777
       4Ap   -20.607683     5Ap   -11.449797     6Ap   -11.432916
       7Ap    -1.589296     8Ap    -1.512017     9Ap    -1.484618
      10Ap    -1.443397    11Ap    -0.921842    12Ap    -0.805432
      13Ap    -0.770896     1App   -0.744770    14Ap    -0.743465
      15Ap    -0.696504     2App   -0.686534    16Ap    -0.625916
       3App   -0.571315    17Ap    -0.543083     4App   -0.503454
      18Ap    -0.402366

  @RHF Final Energy:  -375.14059046059066

   => Energetics <=

    Nuclear Repulsion Energy =            210.0218456151056046
    One-Electron Energy =                -931.4170279914422963
    Two-Electron Energy =                 346.2545919157460617
    Total Energy =                       -375.1405904605906585
 Dipole X            :          0.2385993            0.0000000            0.2385993
 Dipole Y            :          0.1620841           -0.0000000            0.1620841
 Dipole Z            :          0.0000000            0.0000000            0.0000000
 Magnitude           :                                                    0.2884456
      * MP2 total energy                      = -376.464663043042606
      * CCSD total energy                     = -376.434676246434549
      * CCSD(T) total energy                  = -376.497766956554642

  Mulliken Charges: (a.u.)
   Center  Symbol    Alpha    Beta     Spin     Total
       1     O     4.14556  4.14556  0.00000 -0.29112
       2     C     2.76021  2.76021  0.00000  0.47958
       3     O     4.10076  4.10076  0.00000 -0.20152
       4     O     4.10642  4.10642  0.00000 -0.21285
       5     C     2.74265  2.74265  0.00000  0.51470
       6     O     4.14440  4.14440  0.00000 -0.28879

   Total alpha = 22.00000, Total beta = 22.00000, Total charge =  0.00000

*** Psi4 exiting successfully. Buy a developer a beer!
