                               Psi4 1.9.1 release

  ==> Input File <==

--------------------------------------------------------------------------
memory 5 gb

molecule {
0 1
O     -2.326000     0.000000     0.000000
C     -1.163000     0.000000     0.000000
O      0.000000     0.000000     0.000000
O      1.131371     1.131371     0.000000
C      1.953736     1.953736     0.000000
O      2.776101     2.776101     0.000000
}

set basis cc-pVTZ
E, wfn = energy('ccsd(t)', return_wfn=True)
oeprop(wfn,'MULLIKEN_CHARGES')

--------------------------------------------------------------------------

    Molecular point group: cs

    Geometry (in Angstrom), charge = 0, multiplicity = 1:

       Center              X                  Y                   Z               Mass
    ------------   -----------------  -----------------  -----------------  -----------------
         O           -2.721368000000    -0.976868000000     0.000000000000    15.994914619570
         C           -1.558368000000    -0.976868000000     0.000000000000    12.000000000000
         O           -0.395368000000    -0.976868000000     0.000000000000    15.994914619570
         O            0.736003000000     0.154503000000     0.000000000000    15.994914619570
         C            1.558368000000     0.976868000000     0.000000000000    12.000000000000
         O            2.380733000000     1.799233000000     0.000000000000    15.994914619570

  Charge       = 0
  Multiplicity = 1
  Basis Set: CC-PVTZ
    Blend: CC-PVTZ

    Orbital Energies [Eh]
    ---------------------

    Doubly Occupied:

       1Ap   -20.642249     2Ap   -20.628222     3Ap   -20.622603
       4Ap   -20.620100     5Ap   -11.441601     6Ap   -11.430055
       7Ap    -1.543777     8Ap    -1.507085     9Ap    -1.477865
      10Ap    -1.446724    11Ap    -0.934348    12Ap    -0.766751
      13Ap    -0.752948    14Ap    -0.725715     1App   -0.720211
      15Ap    -0.691426     2App   -0.688080    16Ap    -0.609376
       3App   -0.558781    17Ap    -0.535068     4App   -0.505304
      18Ap    -0.462536

  @RHF Final Energy:  -375.24304620035730

   => Energetics <=

    Nuclear Repulsion Energy =            196.3879667084977143
    One-Electron Energy =                -904.6403799635295400
    Two-Electron Energy =                 333.0093670546744988
    Total Energy =                       -375.2430462003572984
 Dipole X            :          0.1750796           -0.0000000            0.1750796
 Dipole Y            :          0.0142962            0.0000000            0.0142962
 Dipole Z            :          0.0000000            0.0000000            0.0000000
 Magnitude           :                                                    0.1756623
      * MP2 total energy                      = -376.554505678264093
      * CCSD total energy                     = -376.527555708342391
      * CCSD(T) total energy                  = -376.588699275881368

  Mulliken Charges: (a.u.)
   Center  Symbol    Alpha    Beta     Spin     Total
       1     O     4.15161  4.15161  0.00000 -0.30321
       2     C     2.74878  2.74878  0.00000  0.50244
       3     O     4.10465  4.10465  0.00000 -0.20929
       4     O     4.10207  4.10207  0.00000 -0.20414
       5     C     2.73873  2.73873  0.00000  0.52255
       6     O     4.15418  4.15418  0.00000 -0.30835

   Total alpha = 22.00000, Total beta = 22.00000, Total charge =  0.00000

*** Psi4 exiting successfully. Buy a developer a beer!
