                               Psi4 1.9 release

  ==> Input File <==

--------------------------------------------------------------------------
memory 5 gb

molecule {
0 1
O     -2.326000     0.000000     0.000000
C     -1.163000     0.000000     0.000000
O      0.000000     0.000000     0.000000
O      1.360000     0.000000     0.000000
C      2.523000     0.000000     0.000000
O      3.686000     0.000000     0.000000
}

set basis cc-pVTZ
E, wfn = energy('ccsd(t)', return_wfn=True)
oeprop(wfn,'MULLIKEN_CHARGES')

--------------------------------------------------------------------------

    Molecular point group: d2h

    Geometry (in Angstrom), charge = 0, multiplicity = 1:

       Center              X                  Y                   Z               Mass
    ------------   -----------------  -----------------  -----------------  -----------------
         O           -3.006000000000    -0.000000000000     0.000000000000    15.994914619570
         C           -1.843000000000    -0.000000000000     0.000000000000    12.000000000000
         O           -0.680000000000    -0.000000000000     0.000000000000    15.994914619570
         O            0.680000000000     0.000000000000     0.000000000000    15.994914619570
         C            1.843000000000     0.000000000000     0.000000000000    12.000000000000
         O            3.006000000000     0.000000000000     0.000000000000    15.994914619570

  Charge       = 0
  Multiplicity = 1
  Basis Set: CC-PVTZ
    Blend: CC-PVTZ

    Orbital Energies [Eh]
    ---------------------

    Doubly Occupied:

       1B3u  -20.629426     1Ag   -20.629424     2Ag   -20.607510
       2B3u  -20.607414     3B3u  -11.416779     3Ag   -11.416772
       4Ag    -1.583181     4B3u   -1.497100     5Ag    -1.478175
       5B3u   -1.432490     6Ag    -1.039144     6B3u   -0.755940
       7Ag    -0.749576     1B1u   -0.736025     1B2u   -0.736025
       1B1g   -0.675921     1B2g   -0.675921     2B1u   -0.572268
       2B2u   -0.572268     2B1g   -0.482446     2B2g   -0.482446
       7B3u   -0.383875

  @RHF Final Energy:  -375.01390906257581

   => Energetics <=

    Nuclear Repulsion Energy =            201.1747018055054355
    One-Electron Energy =                -914.0569700776040918
    Two-Electron Energy =                 337.8683592095227937
    Total Energy =                       -375.0139090625758058
 Dipole X            :          0.0000000            0.0000000            0.0000000
 Dipole Y            :          0.0000000            0.0000000            0.0000000
 Dipole Z            :          0.0000000            0.0000000            0.0000000
 Magnitude           :                                                    0.0000000
      * MP2 total energy                      = -376.347542166546418
      * CCSD total energy                     = -376.314048508331894
      * CCSD(T) total energy                  = -376.378251167341887

  Mulliken Charges: (a.u.)
   Center  Symbol    Alpha    Beta     Spin     Total
       1     O     4.16055  4.16055  0.00000 -0.32110
       2     C     2.75040  2.75040  0.00000  0.49921
       3     O     4.08906  4.08906  0.00000 -0.17811
       4     O     4.08906  4.08906  0.00000 -0.17811
       5     C     2.75040  2.75040  0.00000  0.49921
       6     O     4.16055  4.16055  0.00000 -0.32110

   Total alpha = 22.00000, Total beta = 22.00000, Total charge =  0.00000

*** Psi4 exiting successfully. Buy a developer a beer!
