                               Psi4 1.9.1 release

  ==> Input File <==

--------------------------------------------------------------------------
memory 5 gb

molecule {
0 1
O     -2.326000     0.000000     0.000000
C     -1.163000     0.000000     0.000000
O      0.000000     0.000000     0.000000
O      1.720000     0.000000     0.000000
C      2.883000     0.000000     0.000000
O      4.046000     0.000000     0.000000
}

set basis cc-pVTZ
E, wfn = energy('ccsd(t)', return_wfn=True)
oeprop(wfn,'MULLIKEN_CHARGES')

--------------------------------------------------------------------------

    Molecular point group: d2h

    Geometry (in Angstrom), charge = 0, multiplicity = 1:

       Center              X                  Y                   Z               Mass
    ------------   -----------------  -----------------  -----------------  -----------------
         O           -3.186000000000    -0.000000000000     0.000000000000    15.994914619570
         C           -2.023000000000    -0.000000000000     0.000000000000    12.000000000000
         O           -0.860000000000    -0.000000000000     0.000000000000    15.994914619570
         O            0.860000000000     0.000000000000     0.000000000000    15.994914619570
         C            2.023000000000     0.000000000000     0.000000000000    12.000000000000
         O            3.186000000000     0.000000000000     0.000000000000    15.994914619570

  Charge       = 0
  Multiplicity = 1
  Basis Set: CC-PVTZ
    Blend: CC-PVTZ

    Orbital Energies [Eh]
    ---------------------

    Doubly Occupied:

       1B3u  -20.637316     1Ag   -20.637315     2B3u  -20.619299
       2Ag   -20.619285     3B3u  -11.438399     3Ag   -11.438396
       4Ag    -1.527371     4B3u   -1.509107     5Ag    -1.473636
       5B3u   -1.451078     6Ag    -0.907483     6B3u   -0.765053
       7Ag    -0.753658     1B2u   -0.710676     1B1u   -0.710676
       1B1g   -0.691243     1B2g   -0.691243     7B3u   -0.588096
       2B2u   -0.549668     2B1u   -0.549668     2B1g   -0.509737
       2B2g   -0.509737

  @RHF Final Energy:  -375.30620275191973

   => Energetics <=

    Nuclear Repulsion Energy =            190.3110545551439543
    One-Electron Energy =                -892.6582335029323758
    Two-Electron Energy =                 327.0409761958686659
    Total Energy =                       -375.3062027519197272
 Dipole X            :          0.0000000           -0.0000000           -0.0000000
 Dipole Y            :          0.0000000            0.0000000            0.0000000
 Dipole Z            :          0.0000000            0.0000000            0.0000000
 Magnitude           :                                                    0.0000000
      * MP2 total energy                      = -376.608235769776229
      * CCSD total energy                     = -376.584653808379073
      * CCSD(T) total energy                  = -376.644539174548299

  Mulliken Charges: (a.u.)
   Center  Symbol    Alpha    Beta     Spin     Total
       1     O     4.15657  4.15657  0.00000 -0.31314
       2     C     2.74079  2.74079  0.00000  0.51843
       3     O     4.10264  4.10264  0.00000 -0.20529
       4     O     4.10264  4.10264  0.00000 -0.20529
       5     C     2.74079  2.74079  0.00000  0.51843
       6     O     4.15657  4.15657  0.00000 -0.31314

   Total alpha = 22.00000, Total beta = 22.00000, Total charge =  0.00000

*** Psi4 exiting successfully. Buy a developer a beer!
