                               Psi4 1.9 release

  ==> Input File <==

--------------------------------------------------------------------------
memory 5 gb

molecule {
0 1
O     -2.326000     0.000000     0.000000
C     -1.163000     0.000000     0.000000
O      0.000000     0.000000     0.000000
O      1.080000     0.000000     0.000000
C      2.243000     0.000000     0.000000
O      3.406000     0.000000     0.000000
}

set basis cc-pVTZ
E, wfn = energy('ccsd(t)', return_wfn=True)
oeprop(wfn,'MULLIKEN_CHARGES')

--------------------------------------------------------------------------

    Molecular point group: d2h

    Geometry (in Angstrom), charge = 0, multiplicity = 1:

       Center              X                  Y                   Z               Mass
    ------------   -----------------  -----------------  -----------------  -----------------
         O           -2.866000000000    -0.000000000000     0.000000000000    15.994914619570
         C           -1.703000000000    -0.000000000000     0.000000000000    12.000000000000
         O           -0.540000000000    -0.000000000000     0.000000000000    15.994914619570
         O            0.540000000000     0.000000000000     0.000000000000    15.994914619570
         C            1.703000000000     0.000000000000     0.000000000000    12.000000000000
         O            2.866000000000     0.000000000000     0.000000000000    15.994914619570

  Charge       = 0
  Multiplicity = 1
  Basis Set: CC-PVTZ
    Blend: CC-PVTZ

    Orbital Energies [Eh]
    ---------------------

    Doubly Occupied:

       1Ag   -20.855667     1B3u  -20.854397     2B3u  -20.591423
       2Ag   -20.591422     3Ag   -11.417089     3B3u  -11.417073
       4Ag    -1.945882     4B3u   -1.538929     5Ag    -1.448215
       5B3u   -1.433372     6Ag    -1.287644     1B2u   -1.006769
       1B1u   -1.004027     6B3u   -0.717896     1B1g   -0.716113
       7Ag    -0.715539     1B2g   -0.706099     2B2u   -0.612400
       2B1u   -0.575781     2B1g   -0.528171     2B2g   -0.506573
       3B2u   -0.123628

  @RHF Final Energy:  -374.50065469672739

   => Energetics <=

    Nuclear Repulsion Energy =            212.9971778846081634
    One-Electron Energy =                -933.8074449488053688
    Two-Electron Energy =                 346.3096123674698106
    Total Energy =                       -374.5006546967273948
 Dipole X            :          0.0000000            0.0000000            0.0000000
 Dipole Y            :          0.0000000            0.0000000            0.0000000
 Dipole Z            :          0.0000000            0.0000000            0.0000000
 Magnitude           :                                                    0.0000000
      * MP2 total energy                      = -375.866030716503531
      * CCSD total energy                     = -375.828989150676819
      * CCSD(T) total energy                  = -375.902832275147546

  Mulliken Charges: (a.u.)
   Center  Symbol    Alpha    Beta     Spin     Total
       1     O     4.17256  4.17256  0.00000 -0.34512
       2     C     2.94398  2.94398  0.00000  0.11205
       3     O     3.88346  3.88346  0.00000  0.23307
       4     O     3.88346  3.88346  0.00000  0.23307
       5     C     2.94398  2.94398  0.00000  0.11205
       6     O     4.17256  4.17256  0.00000 -0.34512

   Total alpha = 22.00000, Total beta = 22.00000, Total charge = -0.00000

*** Psi4 exiting successfully. Buy a developer a beer!
