                               Psi4 1.9 release

  ==> Input File <==

--------------------------------------------------------------------------
memory 5 gb

molecule {
0 1
O     -2.326000     0.000000     0.000000
C     -1.163000     0.000000     0.000000
O      0.000000     0.000000     0.000000
O      0.000000     1.080000     0.000000
C      0.000000     2.243000     0.000000
O      0.000000     3.406000     0.000000
}

set basis cc-pVTZ
E, wfn = energy('ccsd(t)', return_wfn=True)
oeprop(wfn,'MULLIKEN_CHARGES')

--------------------------------------------------------------------------

    Molecular point group: cs

    Geometry (in Angstrom), charge = 0, multiplicity = 1:

       Center              X                  Y                   Z               Mass
    ------------   -----------------  -----------------  -----------------  -----------------
         O           -1.744500000000    -1.121500000000     0.000000000000    15.994914619570
         C           -0.581500000000    -1.121500000000     0.000000000000    12.000000000000
         O            0.581500000000    -1.121500000000     0.000000000000    15.994914619570
         O            0.581500000000    -0.041500000000     0.000000000000    15.994914619570
         C            0.581500000000     1.121500000000     0.000000000000    12.000000000000
         O            0.581500000000     2.284500000000     0.000000000000    15.994914619570

  Charge       = 0
  Multiplicity = 1
  Basis Set: CC-PVTZ
    Blend: CC-PVTZ

    Orbital Energies [Eh]
    ---------------------

    Doubly Occupied:

       1Ap   -20.841443     2Ap   -20.828082     3Ap   -20.616747
       4Ap   -20.586477     5Ap   -11.445921     6Ap   -11.345916
       7Ap    -2.018613     8Ap    -1.521843     9Ap    -1.455441
      10Ap    -1.432589    11Ap    -1.182449    12Ap    -1.033836
       1App   -1.015135    13Ap    -0.738863    14Ap    -0.732913
      15Ap    -0.706567     2App   -0.687747    16Ap    -0.618347
       3App   -0.573055    17Ap    -0.557273     4App   -0.514671
      18Ap    -0.150737

  @RHF Final Energy:  -374.49713450459984

   => Energetics <=

    Nuclear Repulsion Energy =            228.9889934885952414
    One-Electron Energy =                -965.7629195507877284
    Two-Electron Energy =                 362.2767915575926168
    Total Energy =                       -374.4971345045998419
 Dipole X            :          0.9430186            0.0000000            0.9430186
 Dipole Y            :         -0.6090374            0.0000000           -0.6090374
 Dipole Z            :          0.0000000            0.0000000            0.0000000
 Magnitude           :                                                    1.1225910
      * MP2 total energy                      = -375.848289213029489
      * CCSD total energy                     = -375.819563445255426
      * CCSD(T) total energy                  = -375.890473371746509

  Mulliken Charges: (a.u.)
   Center  Symbol    Alpha    Beta     Spin     Total
       1     O     4.16224  4.16224  0.00000 -0.32447
       2     C     2.96849  2.96849  0.00000  0.06302
       3     O     3.97283  3.97283  0.00000  0.05433
       4     O     3.80939  3.80939  0.00000  0.38122
       5     C     2.93475  2.93475  0.00000  0.13050
       6     O     4.15230  4.15230  0.00000 -0.30459

   Total alpha = 22.00000, Total beta = 22.00000, Total charge =  0.00000

*** Psi4 exiting successfully. Buy a developer a beer!
