 Gaussian 16, Revision A.03,
 Gaussian 16:  ES64L-G16RevA.03 25-Dec-2016

 ----------------------------------------------------
 # B3LYP/aug-cc-pVTZ EmpiricalDispersion=GD3 Pop=Full
 ----------------------------------------------------

 --------
 Aluminum
 --------
 Symbolic Z-matrix:
 Charge =  0 Multiplicity = 2

                         Standard orientation:
 ---------------------------------------------------------------------
 Center     Atomic      Atomic             Coordinates (Angstroms)
 Number     Number       Type             X           Y           Z
 ---------------------------------------------------------------------
      1         13           0        0.000000    0.000000    0.000000
 ---------------------------------------------------------------------

 SCF Done:  E(UB3LYP) =  -242.389787492     A.U. after    8 cycles

 Unable to determine electronic state:  an orbital has unidentified symmetry.
 Alpha  occ. eigenvalues --  -56.07687  -4.15286  -2.70636  -2.70636  -2.70366
 Alpha  occ. eigenvalues --   -0.32130  -0.13333
 Alpha virt. eigenvalues --   -0.07775  -0.07775   0.00448   0.01831   0.02329
 Alpha virt. eigenvalues --    0.02329   0.05123   0.05123   0.05472   0.05843
 Alpha virt. eigenvalues --    0.05845   0.21754   0.21754   0.22017   0.22458

  Beta  occ. eigenvalues --  -56.07481  -4.15056  -2.70526  -2.70526  -2.69560
  Beta  occ. eigenvalues --   -0.29700
  Beta virt. eigenvalues --   -0.07295  -0.07295  -0.05065   0.00728   0.02376
  Beta virt. eigenvalues --    0.02376   0.02743   0.05684   0.05684   0.05958
  Beta virt. eigenvalues --    0.05958   0.06317   0.22692   0.22692   0.23431

 Mulliken charges and spin densities:
               1          2
     1  Al  -0.000000   1.000000
 Sum of Mulliken charges =  -0.00000   1.00000

 Dipole moment (field-independent basis, Debye):
    X=              0.0000    Y=              0.0000    Z=              0.0000  Tot=              0.0000
 Quadrupole moment (field-independent basis, Debye-Ang):
   XX=            -12.2338   YY=            -12.2338   ZZ=            -19.6577
   XY=             -0.0000   XZ=             -0.0000   YZ=              0.0000

 Normal termination of Gaussian 16 at Mon Nov 20 23:50:48 2023.
