 Gaussian 16, Revision A.03,
 Gaussian 16:  ES64L-G16RevA.03 25-Dec-2016

 ----------------------------------------------------
 # B3LYP/aug-cc-pVTZ EmpiricalDispersion=GD3 Pop=Full
 ----------------------------------------------------

 -----
 Argon
 -----
 Symbolic Z-matrix:
 Charge =  0 Multiplicity = 1

                         Standard orientation:
 ---------------------------------------------------------------------
 Center     Atomic      Atomic             Coordinates (Angstroms)
 Number     Number       Type             X           Y           Z
 ---------------------------------------------------------------------
      1         18           0        0.000000    0.000000    0.000000
 ---------------------------------------------------------------------

 SCF Done:  E(RB3LYP) =  -527.560001976     A.U. after    6 cycles

 The electronic state is 1-A1G.
 Alpha  occ. eigenvalues -- -115.12155 -11.14505  -8.69620  -8.69620  -8.69620
 Alpha  occ. eigenvalues --   -0.97131  -0.42928  -0.42928  -0.42928
 Alpha virt. eigenvalues --    0.04804   0.07271   0.07271   0.07271   0.26388
 Alpha virt. eigenvalues --    0.26388   0.26388   0.26388   0.26388   0.54773
 Alpha virt. eigenvalues --    0.54773   0.54773   0.82963   0.82963   0.82963

 Mulliken charges:
               1
     1  Ar  -0.000000
 Sum of Mulliken charges =  -0.00000

 Dipole moment (field-independent basis, Debye):
    X=              0.0000    Y=              0.0000    Z=              0.0000  Tot=              0.0000
 Quadrupole moment (field-independent basis, Debye-Ang):
   XX=            -11.7622   YY=            -11.7622   ZZ=            -11.7622
   XY=              0.0000   XZ=              0.0000   YZ=             -0.0000

 Normal termination of Gaussian 16 at Mon Nov 20 23:50:52 2023.
