 Gaussian 16, Revision A.03,
 Gaussian 16:  ES64L-G16RevA.03 25-Dec-2016

 ----------------------------------------------------
 # B3LYP/aug-cc-pVTZ EmpiricalDispersion=GD3 Pop=Full
 ----------------------------------------------------

 -----
 Boron
 -----
 Symbolic Z-matrix:
 Charge =  0 Multiplicity = 2

                         Standard orientation:
 ---------------------------------------------------------------------
 Center     Atomic      Atomic             Coordinates (Angstroms)
 Number     Number       Type             X           Y           Z
 ---------------------------------------------------------------------
      1          5           0        0.000000    0.000000    0.000000
 ---------------------------------------------------------------------

 SCF Done:  E(UB3LYP) =  -24.6638915573     A.U. after    7 cycles

 Unable to determine electronic state:  an orbital has unidentified symmetry.
 Alpha  occ. eigenvalues --   -6.86094  -0.39595  -0.18972
 Alpha virt. eigenvalues --   -0.09872  -0.09872   0.01817   0.02817   0.03492
 Alpha virt. eigenvalues --    0.03492   0.12399   0.12399   0.12683   0.12899
 Alpha virt. eigenvalues --    0.12900   0.23828   0.25409   0.25409   0.37730

  Beta  occ. eigenvalues --   -6.85141  -0.35340
  Beta virt. eigenvalues --   -0.09014  -0.09014  -0.05635   0.02119   0.03523
  Beta virt. eigenvalues --    0.03523   0.03987   0.12732   0.12732   0.13035
  Beta virt. eigenvalues --    0.13035   0.13316   0.25715   0.25715   0.27715

 Mulliken charges and spin densities:
               1          2
     1  B    0.000000   1.000000
 Sum of Mulliken charges =   0.00000   1.00000

 Dipole moment (field-independent basis, Debye):
    X=              0.0000    Y=              0.0000    Z=              0.0000  Tot=              0.0000
 Quadrupole moment (field-independent basis, Debye-Ang):
   XX=             -9.2976   YY=             -6.0205   ZZ=             -6.0205
   XY=             -0.0000   XZ=              0.0000   YZ=              0.0000

 Normal termination of Gaussian 16 at Mon Nov 20 23:51:04 2023.
