 Gaussian 16, Revision A.03,
 Gaussian 16:  ES64L-G16RevA.03 25-Dec-2016

 ----------------------------------------------------
 # B3LYP/aug-cc-pVTZ EmpiricalDispersion=GD3 Pop=Full
 ----------------------------------------------------

 ------
 Carbon
 ------
 Symbolic Z-matrix:
 Charge =  0 Multiplicity = 3

                         Standard orientation:
 ---------------------------------------------------------------------
 Center     Atomic      Atomic             Coordinates (Angstroms)
 Number     Number       Type             X           Y           Z
 ---------------------------------------------------------------------
      1          6           0        0.000000    0.000000    0.000000
 ---------------------------------------------------------------------

 SCF Done:  E(UB3LYP) =  -37.8590608392     A.U. after    7 cycles

 Unable to determine electronic state:  an orbital has unidentified symmetry.
 Alpha  occ. eigenvalues --  -10.31148  -0.59063  -0.26941  -0.26941
 Alpha virt. eigenvalues --   -0.15753   0.03183   0.05393   0.05393   0.06011
 Alpha virt. eigenvalues --    0.21658   0.21658   0.21664   0.21664   0.22018
 Alpha virt. eigenvalues --    0.39357   0.39357   0.40949   0.56531   0.84453

  Beta  occ. eigenvalues --  -10.28247  -0.48156
  Beta virt. eigenvalues --   -0.12940  -0.08493  -0.08493   0.04005   0.06225
  Beta virt. eigenvalues --    0.06968   0.06968   0.22299   0.22434   0.22434
  Beta virt. eigenvalues --    0.23162   0.23162   0.42089   0.44752   0.44752

 Mulliken charges and spin densities:
               1          2
     1  C   -0.000000   2.000000
 Sum of Mulliken charges =  -0.00000   2.00000

 Dipole moment (field-independent basis, Debye):
    X=              0.0000    Y=              0.0000    Z=              0.0000  Tot=              0.0000
 Quadrupole moment (field-independent basis, Debye-Ang):
   XX=             -6.9761   YY=             -6.9761   ZZ=             -4.9666
   XY=              0.0000   XZ=              0.0000   YZ=             -0.0000

 Normal termination of Gaussian 16 at Mon Nov 20 23:51:14 2023.
