 Gaussian 16, Revision A.03,
 Gaussian 16:  ES64L-G16RevA.03 25-Dec-2016

 ----------------------------------------------------
 # B3LYP/aug-cc-pVTZ EmpiricalDispersion=GD3 Pop=Full
 ----------------------------------------------------

 --------
 Chlorine
 --------
 Symbolic Z-matrix:
 Charge =  0 Multiplicity = 2

                         Standard orientation:
 ---------------------------------------------------------------------
 Center     Atomic      Atomic             Coordinates (Angstroms)
 Number     Number       Type             X           Y           Z
 ---------------------------------------------------------------------
      1         17           0        0.000000    0.000000    0.000000
 ---------------------------------------------------------------------

 SCF Done:  E(UB3LYP) =  -460.175330828     A.U. after    8 cycles

 Unable to determine electronic state:  an orbital has unidentified symmetry.
 Alpha  occ. eigenvalues -- -101.61438  -9.51611  -7.29038  -7.26753  -7.26753
 Alpha  occ. eigenvalues --   -0.85107  -0.41330  -0.35864  -0.35864
 Alpha virt. eigenvalues --    0.03524   0.05744   0.06181   0.06181   0.19369
 Alpha virt. eigenvalues --    0.19832   0.19832   0.21559   0.21559   0.44569
 Alpha virt. eigenvalues --    0.46841   0.46841   0.65700   0.66558   0.66558

  Beta  occ. eigenvalues -- -101.60763  -9.50952  -7.26820  -7.26364  -7.26364
  Beta  occ. eigenvalues --   -0.79758  -0.34367  -0.34367
  Beta virt. eigenvalues --   -0.24894   0.03917   0.06234   0.06234   0.06495
  Beta virt. eigenvalues --    0.21639   0.21639   0.21718   0.21718   0.22151
  Beta virt. eigenvalues --    0.47273   0.47273   0.47776   0.69960   0.69960

 Mulliken charges and spin densities:
               1          2
     1  Cl  -0.000000   1.000000
 Sum of Mulliken charges =  -0.00000   1.00000

 Dipole moment (field-independent basis, Debye):
    X=              0.0000    Y=              0.0000    Z=              0.0000  Tot=              0.0000
 Quadrupole moment (field-independent basis, Debye-Ang):
   XX=            -11.0434   YY=            -13.1624   ZZ=            -13.1624
   XY=              0.0000   XZ=             -0.0000   YZ=             -0.0000

 Normal termination of Gaussian 16 at Mon Nov 20 23:51:19 2023.
