 Gaussian 16, Revision A.03,
 Gaussian 16:  ES64L-G16RevA.03 25-Dec-2016

 ----------------------------------------------------
 # B3LYP/aug-cc-pVTZ EmpiricalDispersion=GD3 Pop=Full
 ----------------------------------------------------

 --------
 Fluorine
 --------
 Symbolic Z-matrix:
 Charge =  0 Multiplicity = 2

                         Standard orientation:
 ---------------------------------------------------------------------
 Center     Atomic      Atomic             Coordinates (Angstroms)
 Number     Number       Type             X           Y           Z
 ---------------------------------------------------------------------
      1          9           0        0.000000    0.000000    0.000000
 ---------------------------------------------------------------------

 SCF Done:  E(UB3LYP) =  -99.7661405570     A.U. after    9 cycles

 Unable to determine electronic state:  an orbital has unidentified symmetry.
 Alpha  occ. eigenvalues --  -24.79651  -1.24056  -0.57103  -0.48304  -0.48304
 Alpha virt. eigenvalues --    0.08618   0.11764   0.12277   0.12277   0.68039
 Alpha virt. eigenvalues --    0.68508   0.68508   0.70115   0.70115   0.85255
 Alpha virt. eigenvalues --    0.88991   0.88991   1.33379   2.43485   2.44949

  Beta  occ. eigenvalues --  -24.76493  -1.14911  -0.45193  -0.45193
  Beta virt. eigenvalues --   -0.27808   0.09226   0.12433   0.12433   0.13373
  Beta virt. eigenvalues --    0.69982   0.69982   0.70056   0.70056   0.70307
  Beta virt. eigenvalues --    0.90047   0.90047   0.92417   1.36991   2.50436

 Mulliken charges and spin densities:
               1          2
     1  F   -0.000000   1.000000
 Sum of Mulliken charges =  -0.00000   1.00000

 Dipole moment (field-independent basis, Debye):
    X=              0.0000    Y=              0.0000    Z=              0.0000  Tot=              0.0000
 Quadrupole moment (field-independent basis, Debye-Ang):
   XX=             -5.0806   YY=             -5.0806   ZZ=             -4.1534
   XY=              0.0000   XZ=              0.0000   YZ=             -0.0000

 Normal termination of Gaussian 16 at Mon Nov 20 23:51:45 2023.
