 Gaussian 16, Revision A.03,
 Gaussian 16:  ES64L-G16RevA.03 25-Dec-2016

 ----------------------------------------------------
 # B3LYP/aug-cc-pVTZ EmpiricalDispersion=GD3 Pop=Full
 ----------------------------------------------------

 -------
 Lithium
 -------
 Symbolic Z-matrix:
 Charge =  0 Multiplicity = 2

                         Standard orientation:
 ---------------------------------------------------------------------
 Center     Atomic      Atomic             Coordinates (Angstroms)
 Number     Number       Type             X           Y           Z
 ---------------------------------------------------------------------
      1          3           0        0.000000    0.000000    0.000000
 ---------------------------------------------------------------------

 SCF Done:  E(UB3LYP) =  -7.49205441154     A.U. after    6 cycles

 The electronic state is 2-A1G.
 Alpha  occ. eigenvalues --   -2.03170  -0.13411
 Alpha virt. eigenvalues --   -0.03191  -0.03191  -0.03191   0.00122   0.01364
 Alpha virt. eigenvalues --    0.01364   0.01364   0.05911   0.05911   0.05911
 Alpha virt. eigenvalues --    0.05911   0.05911   0.07974   0.07974   0.07974

  Beta  occ. eigenvalues --   -2.02246
  Beta virt. eigenvalues --   -0.05467  -0.00332  -0.00332  -0.00332   0.00859
  Beta virt. eigenvalues --    0.02309   0.02309   0.02309   0.07468   0.07468
  Beta virt. eigenvalues --    0.07468   0.07468   0.07468   0.09549   0.09549

 Mulliken charges and spin densities:
               1          2
     1  Li  -0.000000   1.000000
 Sum of Mulliken charges =  -0.00000   1.00000

 Dipole moment (field-independent basis, Debye):
    X=              0.0000    Y=              0.0000    Z=              0.0000  Tot=              0.0000
 Quadrupole moment (field-independent basis, Debye-Ang):
   XX=             -7.9848   YY=             -7.9848   ZZ=             -7.9848
   XY=              0.0000   XZ=              0.0000   YZ=              0.0000

 Normal termination of Gaussian 16 at Mon Nov 20 23:51:56 2023.
