 Gaussian 16, Revision A.03,
 Gaussian 16:  ES64L-G16RevA.03 25-Dec-2016

 ----------------------------------------------------
 # B3LYP/aug-cc-pVTZ EmpiricalDispersion=GD3 Pop=Full
 ----------------------------------------------------

 ---------
 Magnesium
 ---------
 Symbolic Z-matrix:
 Charge =  0 Multiplicity = 1

                         Standard orientation:
 ---------------------------------------------------------------------
 Center     Atomic      Atomic             Coordinates (Angstroms)
 Number     Number       Type             X           Y           Z
 ---------------------------------------------------------------------
      1         12           0        0.000000    0.000000    0.000000
 ---------------------------------------------------------------------

 SCF Done:  E(RB3LYP) =  -200.097752622     A.U. after    7 cycles

 The electronic state is 1-A1G.
 Alpha  occ. eigenvalues --  -46.83531  -3.10263  -1.84647  -1.84647  -1.84647
 Alpha  occ. eigenvalues --   -0.19457
 Alpha virt. eigenvalues --   -0.03383  -0.03383  -0.03383   0.00494   0.01833
 Alpha virt. eigenvalues --    0.01833   0.01833   0.04329   0.04329   0.04329
 Alpha virt. eigenvalues --    0.04329   0.04329   0.12991   0.12991   0.12991

 Mulliken charges:
               1
     1  Mg   0.000000
 Sum of Mulliken charges =   0.00000

 Dipole moment (field-independent basis, Debye):
    X=              0.0000    Y=              0.0000    Z=              0.0000  Tot=              0.0000
 Quadrupole moment (field-independent basis, Debye-Ang):
   XX=            -12.6213   YY=            -12.6213   ZZ=            -12.6213
   XY=              0.0000   XZ=              0.0000   YZ=              0.0000

 Normal termination of Gaussian 16 at Mon Nov 20 23:52:24 2023.
