 Gaussian 16, Revision A.03,
 Gaussian 16:  ES64L-G16RevA.03 25-Dec-2016

 ----------------------------------------------------
 # B3LYP/aug-cc-pVTZ EmpiricalDispersion=GD3 Pop=Full
 ----------------------------------------------------

 --------
 Nitrogen
 --------
 Symbolic Z-matrix:
 Charge =  0 Multiplicity = 4

                         Standard orientation:
 ---------------------------------------------------------------------
 Center     Atomic      Atomic             Coordinates (Angstroms)
 Number     Number       Type             X           Y           Z
 ---------------------------------------------------------------------
      1          7           0        0.000000    0.000000    0.000000
 ---------------------------------------------------------------------

 SCF Done:  E(UB3LYP) =  -54.6028906778     A.U. after    7 cycles

 The electronic state is 4-A1G.
 Alpha  occ. eigenvalues --  -14.44141  -0.81422  -0.35931  -0.35931  -0.35931
 Alpha virt. eigenvalues --    0.04601   0.07852   0.07852   0.07852   0.33901
 Alpha virt. eigenvalues --    0.33901   0.33901   0.33901   0.33901   0.56277
 Alpha virt. eigenvalues --    0.56277   0.56277   0.77187   1.27655   1.27655

  Beta  occ. eigenvalues --  -14.38320  -0.61916
  Beta virt. eigenvalues --   -0.11633  -0.11633  -0.11633   0.06033   0.09800
  Beta virt. eigenvalues --    0.09800   0.09800   0.35834   0.35834   0.35834
  Beta virt. eigenvalues --    0.35834   0.35834   0.63543   0.63543   0.63543

 Mulliken charges and spin densities:
               1          2
     1  N   -0.000000   3.000000
 Sum of Mulliken charges =  -0.00000   3.00000

 Dipole moment (field-independent basis, Debye):
    X=              0.0000    Y=              0.0000    Z=              0.0000  Tot=              0.0000
 Quadrupole moment (field-independent basis, Debye-Ang):
   XX=             -5.5861   YY=             -5.5861   ZZ=             -5.5861
   XY=              0.0000   XZ=              0.0000   YZ=             -0.0000

 Normal termination of Gaussian 16 at Mon Nov 20 23:52:30 2023.
