 Gaussian 16, Revision A.03,
 Gaussian 16:  ES64L-G16RevA.03 25-Dec-2016

 ----------------------------------------------------
 # B3LYP/aug-cc-pVTZ EmpiricalDispersion=GD3 Pop=Full
 ----------------------------------------------------

 ------
 Sodium
 ------
 Symbolic Z-matrix:
 Charge =  0 Multiplicity = 2

                         Standard orientation:
 ---------------------------------------------------------------------
 Center     Atomic      Atomic             Coordinates (Angstroms)
 Number     Number       Type             X           Y           Z
 ---------------------------------------------------------------------
      1         11           0        0.000000    0.000000    0.000000
 ---------------------------------------------------------------------

 SCF Done:  E(UB3LYP) =  -162.297023888     A.U. after    7 cycles

 The electronic state is 2-A1G.
 Alpha  occ. eigenvalues --  -38.49984  -2.22946  -1.16083  -1.16083  -1.16083
 Alpha  occ. eigenvalues --   -0.12814
 Alpha virt. eigenvalues --   -0.02100  -0.02100  -0.02100   0.00095   0.01218
 Alpha virt. eigenvalues --    0.01218   0.01218   0.03752   0.03752   0.03752
 Alpha virt. eigenvalues --    0.03752   0.03752   0.06549   0.06549   0.06549

  Beta  occ. eigenvalues --  -38.49804  -2.22601  -1.15856  -1.15856  -1.15856
  Beta virt. eigenvalues --   -0.06301  -0.00031  -0.00031  -0.00031   0.00864
  Beta virt. eigenvalues --    0.02130   0.02130   0.02130   0.05103   0.05103
  Beta virt. eigenvalues --    0.05103   0.05103   0.05103   0.07992   0.07992

 Mulliken charges and spin densities:
               1          2
     1  Na   0.000000   1.000000
 Sum of Mulliken charges =   0.00000   1.00000

 Dipole moment (field-independent basis, Debye):
    X=              0.0000    Y=              0.0000    Z=              0.0000  Tot=              0.0000
 Quadrupole moment (field-independent basis, Debye-Ang):
   XX=            -11.3812   YY=            -11.3812   ZZ=            -11.3812
   XY=              0.0000   XZ=              0.0000   YZ=             -0.0000

 Normal termination of Gaussian 16 at Mon Nov 20 23:52:52 2023.
