 Gaussian 16, Revision A.03,
 Gaussian 16:  ES64L-G16RevA.03 25-Dec-2016

 ----------------------------------------------------
 # B3LYP/aug-cc-pVTZ EmpiricalDispersion=GD3 Pop=Full
 ----------------------------------------------------

 ----
 Neon
 ----
 Symbolic Z-matrix:
 Charge =  0 Multiplicity = 1

                         Standard orientation:
 ---------------------------------------------------------------------
 Center     Atomic      Atomic             Coordinates (Angstroms)
 Number     Number       Type             X           Y           Z
 ---------------------------------------------------------------------
      1         10           0        0.000000    0.000000    0.000000
 ---------------------------------------------------------------------

 SCF Done:  E(RB3LYP) =  -128.966285946     A.U. after    7 cycles

 The electronic state is 1-A1G.
 Alpha  occ. eigenvalues --  -30.97813  -1.46226  -0.57561  -0.57561  -0.57561
 Alpha virt. eigenvalues --    0.11767   0.15656   0.15656   0.15656   0.93224
 Alpha virt. eigenvalues --    0.93224   0.93224   0.93224   0.93224   1.10855
 Alpha virt. eigenvalues --    1.10855   1.10855   1.68807   3.24318   3.24318

 Mulliken charges:
               1
     1  Ne   0.000000
 Sum of Mulliken charges =   0.00000

 Dipole moment (field-independent basis, Debye):
    X=              0.0000    Y=              0.0000    Z=              0.0000  Tot=              0.0000
 Quadrupole moment (field-independent basis, Debye-Ang):
   XX=             -4.3736   YY=             -4.3736   ZZ=             -4.3736
   XY=             -0.0000   XZ=             -0.0000   YZ=             -0.0000

 Normal termination of Gaussian 16 at Mon Nov 20 23:52:57 2023.
