 Gaussian 16, Revision A.03,
 Gaussian 16:  ES64L-G16RevA.03 25-Dec-2016

 ----------------------------------------------------
 # B3LYP/aug-cc-pVTZ EmpiricalDispersion=GD3 Pop=Full
 ----------------------------------------------------

 ------
 Oxygen
 ------
 Symbolic Z-matrix:
 Charge =  0 Multiplicity = 3

                         Standard orientation:
 ---------------------------------------------------------------------
 Center     Atomic      Atomic             Coordinates (Angstroms)
 Number     Number       Type             X           Y           Z
 ---------------------------------------------------------------------
      1          8           0        0.000000    0.000000    0.000000
 ---------------------------------------------------------------------

 SCF Done:  E(UB3LYP) =  -75.0941778191     A.U. after   10 cycles

 Unable to determine electronic state:  an orbital has unidentified symmetry.
 Alpha  occ. eigenvalues --  -19.28476  -1.02520  -0.46575  -0.46575  -0.39112
 Alpha virt. eigenvalues --    0.06335   0.09427   0.09427   0.09777   0.48542
 Alpha virt. eigenvalues --    0.48542   0.49721   0.49721   0.50212   0.68375
 Alpha virt. eigenvalues --    0.68375   0.71588   1.03592   1.76503   1.76503

  Beta  occ. eigenvalues --  -19.23331  -0.86672  -0.34054
  Beta virt. eigenvalues --   -0.18895  -0.18895   0.07444   0.10004   0.11228
  Beta virt. eigenvalues --    0.11228   0.50745   0.50745   0.51068   0.51195
  Beta virt. eigenvalues --    0.51195   0.73352   0.75802   0.75802   1.09942

 Mulliken charges and spin densities:
               1          2
     1  O   -0.000000   2.000000
 Sum of Mulliken charges =  -0.00000   2.00000

 Dipole moment (field-independent basis, Debye):
    X=              0.0000    Y=              0.0000    Z=              0.0000  Tot=              0.0000
 Quadrupole moment (field-independent basis, Debye-Ang):
   XX=             -4.7753   YY=             -6.0591   ZZ=             -4.7753
   XY=              0.0000   XZ=             -0.0000   YZ=             -0.0000

 Normal termination of Gaussian 16 at Mon Nov 20 23:53:03 2023.
