 Gaussian 16, Revision A.03,
 Gaussian 16:  ES64L-G16RevA.03 25-Dec-2016

 ----------------------------------------------------
 # B3LYP/aug-cc-pVTZ EmpiricalDispersion=GD3 Pop=Full
 ----------------------------------------------------

 ----------
 Phosphorus
 ----------
 Symbolic Z-matrix:
 Charge =  0 Multiplicity = 4

                         Standard orientation:
 ---------------------------------------------------------------------
 Center     Atomic      Atomic             Coordinates (Angstroms)
 Number     Number       Type             X           Y           Z
 ---------------------------------------------------------------------
      1         15           0        0.000000    0.000000    0.000000
 ---------------------------------------------------------------------

 SCF Done:  E(UB3LYP) =  -341.286267641     A.U. after    7 cycles

 The electronic state is 4-A1G.
 Alpha  occ. eigenvalues --  -77.13484  -6.59241  -4.75633  -4.75633  -4.75633
 Alpha  occ. eigenvalues --   -0.60080  -0.26194  -0.26194  -0.26194
 Alpha virt. eigenvalues --    0.01742   0.04437   0.04437   0.04437   0.11185
 Alpha virt. eigenvalues --    0.11185   0.11185   0.11185   0.11185   0.36246
 Alpha virt. eigenvalues --    0.36246   0.36246   0.41054   0.41054   0.41054

  Beta  occ. eigenvalues --  -77.12213  -6.57932  -4.73664  -4.73664  -4.73664
  Beta  occ. eigenvalues --   -0.48496
  Beta virt. eigenvalues --   -0.11996  -0.11996  -0.11996   0.02806   0.05520
  Beta virt. eigenvalues --    0.05520   0.05520   0.13712   0.13712   0.13712
  Beta virt. eigenvalues --    0.13712   0.13712   0.40054   0.40054   0.40054

 Mulliken charges and spin densities:
               1          2
     1  P   -0.000000   3.000000
 Sum of Mulliken charges =  -0.00000   3.00000

 Dipole moment (field-independent basis, Debye):
    X=              0.0000    Y=              0.0000    Z=              0.0000  Tot=              0.0000
 Quadrupole moment (field-independent basis, Debye-Ang):
   XX=            -13.5828   YY=            -13.5828   ZZ=            -13.5828
   XY=             -0.0000   XZ=             -0.0000   YZ=              0.0000

 Normal termination of Gaussian 16 at Mon Nov 20 23:53:08 2023.
