 Gaussian 16, Revision A.03,
 Gaussian 16:  ES64L-G16RevA.03 25-Dec-2016

 ----------------------------------------------------
 # B3LYP/aug-cc-pVTZ EmpiricalDispersion=GD3 Pop=Full
 ----------------------------------------------------

 -------
 Sulphur
 -------
 Symbolic Z-matrix:
 Charge =  0 Multiplicity = 3

                         Standard orientation:
 ---------------------------------------------------------------------
 Center     Atomic      Atomic             Coordinates (Angstroms)
 Number     Number       Type             X           Y           Z
 ---------------------------------------------------------------------
      1         16           0        0.000000    0.000000    0.000000
 ---------------------------------------------------------------------

 SCF Done:  E(UB3LYP) =  -398.139308517     A.U. after    8 cycles

 Unable to determine electronic state:  an orbital has unidentified symmetry.
 Alpha  occ. eigenvalues --  -88.95268  -7.99917  -5.96878  -5.96878  -5.94975
 Alpha  occ. eigenvalues --   -0.72802  -0.33711  -0.33711  -0.29003
 Alpha virt. eigenvalues --    0.02464   0.04815   0.04815   0.05156   0.14116
 Alpha virt. eigenvalues --    0.14116   0.15419   0.15419   0.15964   0.38316
 Alpha virt. eigenvalues --    0.38316   0.40362   0.50239   0.50239   0.52723

  Beta  occ. eigenvalues --  -88.94173  -7.98820  -5.94713  -5.94713  -5.94333
  Beta  occ. eigenvalues --   -0.63501  -0.26524
  Beta virt. eigenvalues --   -0.18000  -0.18000   0.03194   0.05213   0.05686
  Beta virt. eigenvalues --    0.05686   0.16781   0.16781   0.17124   0.17342
  Beta virt. eigenvalues --    0.17343   0.41108   0.41807   0.41807   0.56408

 Mulliken charges and spin densities:
               1          2
     1  S    0.000000   2.000000
 Sum of Mulliken charges =   0.00000   2.00000

 Dipole moment (field-independent basis, Debye):
    X=              0.0000    Y=              0.0000    Z=              0.0000  Tot=              0.0000
 Quadrupole moment (field-independent basis, Debye-Ang):
   XX=            -12.1953   YY=            -12.1953   ZZ=            -14.9849
   XY=             -0.0000   XZ=             -0.0000   YZ=              0.0000

 Normal termination of Gaussian 16 at Mon Nov 20 23:53:22 2023.
