 Gaussian 16, Revision A.03,
 Gaussian 16:  ES64L-G16RevA.03 25-Dec-2016

 ----------------------------------------------------
 # B3LYP/aug-cc-pVTZ EmpiricalDispersion=GD3 Pop=Full
 ----------------------------------------------------

 --------
 Sillicon
 --------
 Symbolic Z-matrix:
 Charge =  0 Multiplicity = 3

                         Standard orientation:
 ---------------------------------------------------------------------
 Center     Atomic      Atomic             Coordinates (Angstroms)
 Number     Number       Type             X           Y           Z
 ---------------------------------------------------------------------
      1         14           0        0.000000    0.000000    0.000000
 ---------------------------------------------------------------------

 SCF Done:  E(UB3LYP) =  -289.396772797     A.U. after    8 cycles

 Unable to determine electronic state:  an orbital has unidentified symmetry.
 Alpha  occ. eigenvalues --  -66.18198  -5.31691  -3.67875  -3.67516  -3.67516
 Alpha  occ. eigenvalues --   -0.45643  -0.19444  -0.19444
 Alpha virt. eigenvalues --   -0.12953   0.01113   0.03361   0.03361   0.03672
 Alpha virt. eigenvalues --    0.07972   0.07972   0.08091   0.08091   0.08562
 Alpha virt. eigenvalues --    0.30932   0.30932   0.31232   0.31232   0.31474

  Beta  occ. eigenvalues --  -66.17565  -5.31015  -3.67531  -3.66172  -3.66172
  Beta  occ. eigenvalues --   -0.39251
  Beta virt. eigenvalues --   -0.11404  -0.08345  -0.08345   0.01767   0.03818
  Beta virt. eigenvalues --    0.04407   0.04407   0.09089   0.09175   0.09175
  Beta virt. eigenvalues --    0.09965   0.09965   0.32655   0.33737   0.34292

 Mulliken charges and spin densities:
               1          2
     1  Si  -0.000000   2.000000
 Sum of Mulliken charges =  -0.00000   2.00000

 Dipole moment (field-independent basis, Debye):
    X=              0.0000    Y=              0.0000    Z=              0.0000  Tot=              0.0000
 Quadrupole moment (field-independent basis, Debye-Ang):
   XX=            -15.9234   YY=            -11.2371   ZZ=            -15.9234
   XY=             -0.0000   XZ=             -0.0000   YZ=              0.0000

 Normal termination of Gaussian 16 at Mon Nov 20 23:53:31 2023.
