 Gaussian 16, Revision A.03,
 Gaussian 16:  ES64L-G16RevA.03 25-Dec-2016

 ------------------------------------------------
 # B3LYP/CEP-31G EmpiricalDispersion=GD3 Pop=Full
 ------------------------------------------------

 --------
 Aluminum
 --------
 Symbolic Z-matrix:
 Charge =  0 Multiplicity = 2

                         Standard orientation:
 ---------------------------------------------------------------------
 Center     Atomic      Atomic             Coordinates (Angstroms)
 Number     Number       Type             X           Y           Z
 ---------------------------------------------------------------------
      1         13           0        0.000000    0.000000    0.000000
 ---------------------------------------------------------------------

 SCF Done:  E(UB3LYP) =  -1.93750397099     A.U. after    6 cycles

 Unable to determine electronic state:  an orbital has unidentified symmetry.
 Alpha  occ. eigenvalues --   -0.32087  -0.13196
 Alpha virt. eigenvalues --   -0.07767  -0.07767   0.14109   0.15088   0.15088
 Alpha virt. eigenvalues --    0.93062
  Beta  occ. eigenvalues --   -0.29367
  Beta virt. eigenvalues --   -0.07009  -0.07009  -0.04906   0.15330   0.15330
  Beta virt. eigenvalues --    0.16797   0.93817

 Mulliken charges and spin densities:
               1          2
     1  Al  -0.000000   1.000000
 Sum of Mulliken charges =  -0.00000   1.00000

 Dipole moment (field-independent basis, Debye):
    X=              0.0000    Y=              0.0000    Z=              0.0000  Tot=              0.0000
 Quadrupole moment (field-independent basis, Debye-Ang):
   XX=            -10.6556   YY=            -17.8966   ZZ=            -10.6556
   XY=              0.0000   XZ=              0.0000   YZ=             -0.0000

 Normal termination of Gaussian 16 at Mon Nov 20 21:42:23 2023.
