 Gaussian 16, Revision A.03,
 Gaussian 16:  ES64L-G16RevA.03 25-Dec-2016

 ----------------------------------------------------
 # B3LYP/aug-cc-pVTZ EmpiricalDispersion=GD3 Pop=Full
 ----------------------------------------------------

 ------
 Helium
 ------
 Symbolic Z-matrix:
 Charge =  0 Multiplicity = 1

                         Standard orientation:
 ---------------------------------------------------------------------
 Center     Atomic      Atomic             Coordinates (Angstroms)
 Number     Number       Type             X           Y           Z
 ---------------------------------------------------------------------
      1          2           0        0.000000    0.000000    0.000000
 ---------------------------------------------------------------------

 SCF Done:  E(RB3LYP) =  -2.91469381767     A.U. after    6 cycles

 The electronic state is 1-A1G.
 Alpha  occ. eigenvalues --   -0.66144
 Alpha virt. eigenvalues --    0.05666   0.29407   0.29407   0.29407   0.67535
 Alpha virt. eigenvalues --    1.32849   1.32849   1.32849   1.32849   1.32849
 Alpha virt. eigenvalues --    1.70163   1.70163   1.70163   4.32126   6.67788

 Mulliken charges:
               1
     1  He   0.000000
 Sum of Mulliken charges =   0.00000

 Dipole moment (field-independent basis, Debye):
    X=              0.0000    Y=              0.0000    Z=              0.0000  Tot=              0.0000
 Quadrupole moment (field-independent basis, Debye-Ang):
   XX=             -1.1104   YY=             -1.1104   ZZ=             -1.1104
   XY=              0.0000   XZ=              0.0000   YZ=             -0.0000

 Normal termination of Gaussian 16 at Mon Nov 20 21:43:00 2023.
