 Gaussian 16, Revision A.03,
 Gaussian 16:  ES64L-G16RevA.03 25-Dec-2016

 ------------------------------------------------
 # B3LYP/CEP-31G EmpiricalDispersion=GD3 Pop=Full
 ------------------------------------------------

 -------
 Lithium
 -------
 Symbolic Z-matrix:
 Charge =  0 Multiplicity = 2

                         Standard orientation:
 ---------------------------------------------------------------------
 Center     Atomic      Atomic             Coordinates (Angstroms)
 Number     Number       Type             X           Y           Z
 ---------------------------------------------------------------------
      1          3           0        0.000000    0.000000    0.000000
 ---------------------------------------------------------------------

 SCF Done:  E(UB3LYP) = -0.200607635574     A.U. after    4 cycles

 The electronic state is 2-A1G.
 Alpha  occ. eigenvalues --   -0.13256
 Alpha virt. eigenvalues --   -0.03043  -0.03043  -0.03043   0.05456   0.05456
 Alpha virt. eigenvalues --    0.05456   0.11916
  Beta virt. eigenvalues --    0.01004   0.03217   0.03217   0.03217   0.14209

 Mulliken charges and spin densities:
               1          2
     1  Li  -0.000000   1.000000
 Sum of Mulliken charges =  -0.00000   1.00000

 Dipole moment (field-independent basis, Debye):
    X=              0.0000    Y=              0.0000    Z=              0.0000  Tot=              0.0000
 Quadrupole moment (field-independent basis, Debye-Ang):
   XX=             -7.7640   YY=             -7.7640   ZZ=             -7.7640
   XY=              0.0000   XZ=              0.0000   YZ=              0.0000

 Normal termination of Gaussian 16 at Mon Nov 20 21:43:06 2023.
