 Gaussian 16, Revision A.03,
 Gaussian 16:  ES64L-G16RevA.03 25-Dec-2016

 ------------------------------------------------
 # B3LYP/CEP-31G EmpiricalDispersion=GD3 Pop=Full
 ------------------------------------------------

 --------
 Nitrogen
 --------
 Symbolic Z-matrix:
 Charge =  0 Multiplicity = 4

                         Standard orientation:
 ---------------------------------------------------------------------
 Center     Atomic      Atomic             Coordinates (Angstroms)
 Number     Number       Type             X           Y           Z
 ---------------------------------------------------------------------
      1          7           0        0.000000    0.000000    0.000000
 ---------------------------------------------------------------------

 SCF Done:  E(UB3LYP) =  -9.74979586929     A.U. after    7 cycles

 The electronic state is 4-A1G.
 Alpha  occ. eigenvalues --   -0.81279  -0.35303  -0.35303  -0.35303
 Alpha virt. eigenvalues --    0.42329   0.42329   0.42329   1.15725
  Beta  occ. eigenvalues --   -0.60877
  Beta virt. eigenvalues --   -0.09621  -0.09621  -0.09621   0.52580   0.52580
  Beta virt. eigenvalues --    0.52580   1.21895

 Mulliken charges and spin densities:
               1          2
     1  N   -0.000000   3.000000
 Sum of Mulliken charges =  -0.00000   3.00000

 Dipole moment (field-independent basis, Debye):
    X=              0.0000    Y=              0.0000    Z=              0.0000  Tot=              0.0000
 Quadrupole moment (field-independent basis, Debye-Ang):
   XX=             -5.3781   YY=             -5.3781   ZZ=             -5.3781
   XY=             -0.0000   XZ=             -0.0000   YZ=              0.0000

 Normal termination of Gaussian 16 at Mon Nov 20 21:43:14 2023.
