 Gaussian 16, Revision A.03,
 Gaussian 16:  ES64L-G16RevA.03 25-Dec-2016

 ------------------------------------------------
 # B3LYP/CEP-31G EmpiricalDispersion=GD3 Pop=Full
 ------------------------------------------------

 ------
 Sodium
 ------
 Symbolic Z-matrix:
 Charge =  0 Multiplicity = 2

                         Standard orientation:
 ---------------------------------------------------------------------
 Center     Atomic      Atomic             Coordinates (Angstroms)
 Number     Number       Type             X           Y           Z
 ---------------------------------------------------------------------
      1         11           0        0.000000    0.000000    0.000000
 ---------------------------------------------------------------------

 SCF Done:  E(UB3LYP) = -0.186747983694     A.U. after    4 cycles

 The electronic state is 2-A1G.
 Alpha  occ. eigenvalues --   -0.12426
 Alpha virt. eigenvalues --   -0.02238  -0.02238  -0.02238   0.04230   0.04230
 Alpha virt. eigenvalues --    0.04230   0.13135
  Beta virt. eigenvalues --    0.00953   0.02448   0.02448   0.02448   0.11496

 Mulliken charges and spin densities:
               1          2
     1  Na   0.000000   1.000000
 Sum of Mulliken charges =   0.00000   1.00000

 Dipole moment (field-independent basis, Debye):
    X=              0.0000    Y=              0.0000    Z=              0.0000  Tot=              0.0000
 Quadrupole moment (field-independent basis, Debye-Ang):
   XX=             -9.0655   YY=             -9.0655   ZZ=             -9.0655
   XY=              0.0000   XZ=              0.0000   YZ=              0.0000

 Normal termination of Gaussian 16 at Mon Nov 20 21:43:17 2023.
