 Gaussian 16, Revision A.03,
 Gaussian 16:  ES64L-G16RevA.03 25-Dec-2016

 ------------------------------------------------
 # B3LYP/CEP-31G EmpiricalDispersion=GD3 Pop=Full
 ------------------------------------------------

 ----
 Neon
 ----
 Symbolic Z-matrix:
 Charge =  0 Multiplicity = 1

                         Standard orientation:
 ---------------------------------------------------------------------
 Center     Atomic      Atomic             Coordinates (Angstroms)
 Number     Number       Type             X           Y           Z
 ---------------------------------------------------------------------
      1         10           0        0.000000    0.000000    0.000000
 ---------------------------------------------------------------------

 SCF Done:  E(RB3LYP) =  -34.8444979461     A.U. after    6 cycles

 The electronic state is 1-A1G.
 Alpha  occ. eigenvalues --   -1.44025  -0.56150  -0.56150  -0.56150
 Alpha virt. eigenvalues --    0.82298   0.82298   0.82298   1.76514

 Mulliken charges:
               1
     1  Ne   0.000000
 Sum of Mulliken charges =   0.00000

 Dipole moment (field-independent basis, Debye):
    X=              0.0000    Y=              0.0000    Z=              0.0000  Tot=              0.0000
 Quadrupole moment (field-independent basis, Debye-Ang):
   XX=             -4.1906   YY=             -4.1906   ZZ=             -4.1906
   XY=             -0.0000   XZ=             -0.0000   YZ=              0.0000

 Normal termination of Gaussian 16 at Mon Nov 20 21:43:22 2023.
