 Gaussian 16, Revision A.03,
 Gaussian 16:  ES64L-G16RevA.03 25-Dec-2016

 ------------------------------------------------
 # B3LYP/CEP-31G EmpiricalDispersion=GD3 Pop=Full
 ------------------------------------------------

 ----------
 Phosphorus
 ----------
 Symbolic Z-matrix:
 Charge =  0 Multiplicity = 4

                         Standard orientation:
 ---------------------------------------------------------------------
 Center     Atomic      Atomic             Coordinates (Angstroms)
 Number     Number       Type             X           Y           Z
 ---------------------------------------------------------------------
      1         15           0        0.000000    0.000000    0.000000
 ---------------------------------------------------------------------

 SCF Done:  E(UB3LYP) =  -6.43332102322     A.U. after    7 cycles

 The electronic state is 4-A1G.
 Alpha  occ. eigenvalues --   -0.60679  -0.26068  -0.26068  -0.26068
 Alpha virt. eigenvalues --    0.20892   0.20892   0.20892   1.31021
  Beta  occ. eigenvalues --   -0.48405
  Beta virt. eigenvalues --   -0.11502  -0.11502  -0.11502   0.25001   0.25001
  Beta virt. eigenvalues --    0.25001   1.33578

 Mulliken charges and spin densities:
               1          2
     1  P    0.000000   3.000000
 Sum of Mulliken charges =   0.00000   3.00000

 Dipole moment (field-independent basis, Debye):
    X=              0.0000    Y=              0.0000    Z=              0.0000  Tot=              0.0000
 Quadrupole moment (field-independent basis, Debye-Ang):
   XX=            -12.5338   YY=            -12.5338   ZZ=            -12.5338
   XY=             -0.0000   XZ=             -0.0000   YZ=              0.0000

 Normal termination of Gaussian 16 at Mon Nov 20 21:43:32 2023.
