 Gaussian 16, Revision A.03,
 Gaussian 16:  ES64L-G16RevA.03 25-Dec-2016

 ------------------------------------------------
 # B3LYP/CEP-31G EmpiricalDispersion=GD3 Pop=Full
 ------------------------------------------------

 --------
 Sillicon
 --------
 Symbolic Z-matrix:
 Charge =  0 Multiplicity = 3

                         Standard orientation:
 ---------------------------------------------------------------------
 Center     Atomic      Atomic             Coordinates (Angstroms)
 Number     Number       Type             X           Y           Z
 ---------------------------------------------------------------------
      1         14           0        0.000000    0.000000    0.000000
 ---------------------------------------------------------------------

 SCF Done:  E(UB3LYP) =  -3.75185722826     A.U. after    7 cycles

 Unable to determine electronic state:  an orbital has unidentified symmetry.
 Alpha  occ. eigenvalues --   -0.45876  -0.19271  -0.19271
 Alpha virt. eigenvalues --   -0.12983   0.17470   0.17470   0.18224   1.12527
  Beta  occ. eigenvalues --   -0.38913
  Beta virt. eigenvalues --   -0.10828  -0.07979  -0.07979   0.18996   0.20873
  Beta virt. eigenvalues --    0.20873   1.14211

 Mulliken charges and spin densities:
               1          2
     1  Si   0.000000   2.000000
 Sum of Mulliken charges =   0.00000   2.00000

 Dipole moment (field-independent basis, Debye):
    X=              0.0000    Y=              0.0000    Z=              0.0000  Tot=              0.0000
 Quadrupole moment (field-independent basis, Debye-Ang):
   XX=             -9.8527   YY=            -14.6499   ZZ=            -14.6499
   XY=              0.0000   XZ=             -0.0000   YZ=              0.0000

 Normal termination of Gaussian 16 at Mon Nov 20 21:43:42 2023.
