 Gaussian 16, Revision A.03,
 Gaussian 16:  ES64L-G16RevA.03 25-Dec-2016

 ------------------
 #p CCSD(T)/cc-pVTZ
 ------------------

 ----
 O2_0
 ----
 Symbolic Z-matrix:
 Charge = -1 Multiplicity = 2

                         Standard orientation:
 ---------------------------------------------------------------------
 Center     Atomic      Atomic             Coordinates (Angstroms)
 Number     Number       Type             X           Y           Z
 ---------------------------------------------------------------------
      1          8           0        0.000000    0.000000    0.400000
      2          8           0        0.000000    0.000000   -0.400000
 ---------------------------------------------------------------------

 SCF Done:  E(UHF) =  -148.707095075     A.U. after   12 cycles
 E2 =    -0.4234316028D+00 EUMP2 =    -0.14913052667826D+03
 CCSD(T)
 CCSD(T)= -0.14914771531D+03

 Unable to determine electronic state:  an orbital has unidentified symmetry.
 Alpha  occ. eigenvalues --  -20.23399 -20.21917  -1.75433  -0.66132  -0.61404
 Alpha  occ. eigenvalues --   -0.59231  -0.47013   0.15238   0.20230
 Alpha virt. eigenvalues --    0.77243   0.92991   0.95465   0.96538   1.17735
 Alpha virt. eigenvalues --    1.20884   1.26813   1.70284   1.77139   1.77178
 Alpha virt. eigenvalues --    2.08860   2.28014   2.31523   2.46733   2.46810

  Beta  occ. eigenvalues --  -20.21554 -20.20002  -1.72507  -0.59660  -0.50396
  Beta  occ. eigenvalues --   -0.50253  -0.42375   0.22654
  Beta virt. eigenvalues --    0.68731   0.78296   0.95855   0.96122   0.97119
  Beta virt. eigenvalues --    1.22139   1.28343   1.30533   1.72566   1.79559
  Beta virt. eigenvalues --    1.79582   2.12528   2.32021   2.35802   2.51969

 Mulliken charges and spin densities:
               1          2
     1  O   -0.500000   0.500000
     2  O   -0.500000   0.500000
 Sum of Mulliken charges =  -1.00000   1.00000

 Dipole moment (field-independent basis, Debye):
    X=             -0.0000    Y=              0.0000    Z=             -0.0000  Tot=              0.0000
 Quadrupole moment (field-independent basis, Debye-Ang):
   XX=            -10.7942   YY=            -12.3052   ZZ=            -15.1395
   XY=              0.0000   XZ=              0.0000   YZ=              0.0000

 0=-149.1360262\MP4SDQ=-149.1372246\CCSD=-149.1369606\CCSD(T)=-149.1477
 Normal termination of Gaussian 16 at Fri Feb  9 17:57:36 2024.
