 Gaussian 16, Revision A.03,
 Gaussian 16:  ES64L-G16RevA.03 25-Dec-2016

 ------------------
 #p CCSD(T)/cc-pVTZ
 ------------------

 -----
 O2_16
 -----
 Symbolic Z-matrix:
 Charge = -1 Multiplicity = 2

                         Standard orientation:
 ---------------------------------------------------------------------
 Center     Atomic      Atomic             Coordinates (Angstroms)
 Number     Number       Type             X           Y           Z
 ---------------------------------------------------------------------
      1          8           0        0.000000    0.000000    0.640000
      2          8           0        0.000000    0.000000   -0.640000
 ---------------------------------------------------------------------

 SCF Done:  E(UHF) =  -149.631237458     A.U. after   11 cycles
 E2 =    -0.4593251009D+00 EUMP2 =    -0.15009056255846D+03
 CCSD(T)
 CCSD(T)= -0.15011054691D+03

 Unable to determine electronic state:  an orbital has unidentified symmetry.
 Alpha  occ. eigenvalues --  -20.27211 -20.27164  -1.19167  -0.76208  -0.37615
 Alpha  occ. eigenvalues --   -0.32375  -0.30238  -0.13016  -0.07163
 Alpha virt. eigenvalues --    0.68197   1.03196   1.05881   1.07080   1.07614
 Alpha virt. eigenvalues --    1.12142   1.14767   1.26214   1.79694   1.87219
 Alpha virt. eigenvalues --    1.87233   1.89257   1.92105   2.23816   2.23840

  Beta  occ. eigenvalues --  -20.24628 -20.24561  -1.12181  -0.65737  -0.30014
  Beta  occ. eigenvalues --   -0.27603  -0.14193  -0.04052
  Beta virt. eigenvalues --    0.46684   0.70745   1.06765   1.07851   1.09872
  Beta virt. eigenvalues --    1.10801   1.15742   1.21901   1.26986   1.81938
  Beta virt. eigenvalues --    1.90091   1.90105   1.92158   1.94654   2.28738

 Mulliken charges and spin densities:
               1          2
     1  O   -0.500000   0.500000
     2  O   -0.500000   0.500000
 Sum of Mulliken charges =  -1.00000   1.00000

 Dipole moment (field-independent basis, Debye):
    X=             -0.0000    Y=              0.0000    Z=             -0.0000  Tot=              0.0000
 Quadrupole moment (field-independent basis, Debye-Ang):
   XX=            -11.7638   YY=            -12.7390   ZZ=            -15.0523
   XY=              0.0000   XZ=              0.0000   YZ=              0.0000

 -0=-150.0899216\MP4SDQ=-150.0949376\CCSD=-150.0935596\CCSD(T)=-150.110
 Normal termination of Gaussian 16 at Fri Feb  9 18:00:56 2024.
