 Gaussian 16, Revision A.03,
 Gaussian 16:  ES64L-G16RevA.03 25-Dec-2016

 ------------------
 #p CCSD(T)/cc-pVTZ
 ------------------

 -----
 O2_12
 -----
 Symbolic Z-matrix:
 Charge = -1 Multiplicity = 2

                         Standard orientation:
 ---------------------------------------------------------------------
 Center     Atomic      Atomic             Coordinates (Angstroms)
 Number     Number       Type             X           Y           Z
 ---------------------------------------------------------------------
      1          8           0        0.000000    0.000000    0.580000
      2          8           0        0.000000    0.000000   -0.580000
 ---------------------------------------------------------------------

 SCF Done:  E(UHF) =  -149.605652246     A.U. after   11 cycles
 E2 =    -0.4460727467D+00 EUMP2 =    -0.15005172499314D+03
 CCSD(T)
 CCSD(T)= -0.15007212894D+03

 Unable to determine electronic state:  an orbital has unidentified symmetry.
 Alpha  occ. eigenvalues --  -20.24823 -20.24742  -1.28316  -0.71672  -0.41075
 Alpha  occ. eigenvalues --   -0.35880  -0.33560  -0.07983  -0.02229
 Alpha virt. eigenvalues --    0.74054   1.02353   1.04956   1.05036   1.12938
 Alpha virt. eigenvalues --    1.15632   1.20375   1.25797   1.77871   1.84615
 Alpha virt. eigenvalues --    1.84637   1.96667   1.99726   2.29292   2.29311

  Beta  occ. eigenvalues --  -20.22313 -20.22206  -1.22144  -0.61457  -0.33586
  Beta  occ. eigenvalues --   -0.30404  -0.19031   0.00822
  Beta virt. eigenvalues --    0.51467   0.75853   1.05653   1.05718   1.08673
  Beta virt. eigenvalues --    1.16655   1.23221   1.23522   1.26740   1.80110
  Beta virt. eigenvalues --    1.87321   1.87340   1.99876   2.02912   2.34298

 Mulliken charges and spin densities:
               1          2
     1  O   -0.500000   0.500000
     2  O   -0.500000   0.500000
 Sum of Mulliken charges =  -1.00000   1.00000

 Dipole moment (field-independent basis, Debye):
    X=             -0.0000    Y=              0.0000    Z=             -0.0000  Tot=              0.0000
 Quadrupole moment (field-independent basis, Debye-Ang):
   XX=            -12.5626   YY=            -11.5170   ZZ=            -14.9905
   XY=              0.0000   XZ=              0.0000   YZ=              0.0000

 -0=-150.0553292\MP4SDQ=-150.0581225\CCSD=-150.0574447\CCSD(T)=-150.072
 Normal termination of Gaussian 16 at Fri Feb  9 18:00:05 2024.
