 Gaussian 16, Revision A.03,
 Gaussian 16:  ES64L-G16RevA.03 25-Dec-2016

 ------------------
 #p CCSD(T)/cc-pVTZ
 ------------------

 -----
 O2_13
 -----
 Symbolic Z-matrix:
 Charge = -1 Multiplicity = 2

                         Standard orientation:
 ---------------------------------------------------------------------
 Center     Atomic      Atomic             Coordinates (Angstroms)
 Number     Number       Type             X           Y           Z
 ---------------------------------------------------------------------
      1          8           0        0.000000    0.000000    0.595000
      2          8           0        0.000000    0.000000   -0.595000
 ---------------------------------------------------------------------

 SCF Done:  E(UHF) =  -149.617033986     A.U. after   11 cycles
 E2 =    -0.4491313849D+00 EUMP2 =    -0.15006616537067D+03
 CCSD(T)
 CCSD(T)= -0.15008653221D+03

 Unable to determine electronic state:  an orbital has unidentified symmetry.
 Alpha  occ. eigenvalues --  -20.25429 -20.25361  -1.25755  -0.72832  -0.40075
 Alpha  occ. eigenvalues --   -0.34868  -0.32711  -0.09352  -0.03568
 Alpha virt. eigenvalues --    0.72933   1.02651   1.05274   1.05590   1.12719
 Alpha virt. eigenvalues --    1.15392   1.16311   1.25856   1.78822   1.85254
 Alpha virt. eigenvalues --    1.85274   1.94613   1.97620   2.27868   2.27888

  Beta  occ. eigenvalues --  -20.22898 -20.22804  -1.19363  -0.62547  -0.32555
  Beta  occ. eigenvalues --   -0.29697  -0.17670  -0.00498
  Beta virt. eigenvalues --    0.50209   0.74913   1.06069   1.06243   1.09299
  Beta virt. eigenvalues --    1.16402   1.19252   1.22854   1.26751   1.81069
  Beta virt. eigenvalues --    1.87999   1.88017   1.97744   2.00654   2.32854

 Mulliken charges and spin densities:
               1          2
     1  O   -0.500000   0.500000
     2  O   -0.500000   0.500000
 Sum of Mulliken charges =  -1.00000   1.00000

 Dipole moment (field-independent basis, Debye):
    X=             -0.0000    Y=              0.0000    Z=              0.0000  Tot=              0.0000
 Quadrupole moment (field-independent basis, Debye-Ang):
   XX=            -12.6074   YY=            -11.5819   ZZ=            -15.0039
   XY=              0.0000   XZ=              0.0000   YZ=              0.0000

 0=-150.0688748\MP4SDQ=-150.0721409\CCSD=-150.0713245\CCSD(T)=-150.0865
 Normal termination of Gaussian 16 at Fri Feb  9 18:00:18 2024.
