 Gaussian 16, Revision A.03,
 Gaussian 16:  ES64L-G16RevA.03 25-Dec-2016

 ------------------
 #p CCSD(T)/cc-pVTZ
 ------------------

 ----
 O2_1
 ----
 Symbolic Z-matrix:
 Charge = -1 Multiplicity = 2

                         Standard orientation:
 ---------------------------------------------------------------------
 Center     Atomic      Atomic             Coordinates (Angstroms)
 Number     Number       Type             X           Y           Z
 ---------------------------------------------------------------------
      1          8           0        0.000000    0.000000    0.415000
      2          8           0        0.000000    0.000000   -0.415000
 ---------------------------------------------------------------------

 SCF Done:  E(UHF) =  -148.886517310     A.U. after   12 cycles
 E2 =    -0.4246726914D+00 EUMP2 =    -0.14931119000152D+03
 CCSD(T)
 CCSD(T)= -0.14932885486D+03

 Unable to determine electronic state:  an orbital has unidentified symmetry.
 Alpha  occ. eigenvalues --  -20.22343 -20.21260  -1.70449  -0.62575  -0.59942
 Alpha  occ. eigenvalues --   -0.57757  -0.45356   0.12842   0.17940
 Alpha virt. eigenvalues --    0.77370   0.94274   0.96741   0.97355   1.17079
 Alpha virt. eigenvalues --    1.20177   1.26760   1.68994   1.77861   1.77898
 Alpha virt. eigenvalues --    2.01352   2.25362   2.28848   2.45533   2.45600

  Beta  occ. eigenvalues --  -20.20398 -20.19250  -1.67226  -0.55922  -0.50804
  Beta  occ. eigenvalues --   -0.46079  -0.40768   0.20456
  Beta virt. eigenvalues --    0.67292   0.78418   0.97146   0.97535   0.97898
  Beta virt. eigenvalues --    1.21419   1.28260   1.29674   1.71218   1.80293
  Beta virt. eigenvalues --    1.80317   2.05143   2.29314   2.33094   2.50755

 Mulliken charges and spin densities:
               1          2
     1  O   -0.500000   0.500000
     2  O   -0.500000   0.500000
 Sum of Mulliken charges =  -1.00000   1.00000

 Dipole moment (field-independent basis, Debye):
    X=             -0.0000    Y=              0.0000    Z=             -0.0000  Tot=              0.0000
 Quadrupole moment (field-independent basis, Debye-Ang):
   XX=            -10.8272   YY=            -12.2763   ZZ=            -15.0754
   XY=              0.0000   XZ=              0.0000   YZ=              0.0000

 -149.3170632\MP4SDQ=-149.3181473\CCSD=-149.3178962\CCSD(T)=-149.328854
 Normal termination of Gaussian 16 at Fri Feb  9 17:57:48 2024.
