 Gaussian 16, Revision A.03,
 Gaussian 16:  ES64L-G16RevA.03 25-Dec-2016

 ------------------
 #p CCSD(T)/cc-pVTZ
 ------------------

 -----
 O2_17
 -----
 Symbolic Z-matrix:
 Charge = -1 Multiplicity = 2

                         Standard orientation:
 ---------------------------------------------------------------------
 Center     Atomic      Atomic             Coordinates (Angstroms)
 Number     Number       Type             X           Y           Z
 ---------------------------------------------------------------------
      1          8           0        0.000000    0.000000    0.655000
      2          8           0        0.000000    0.000000   -0.655000
 ---------------------------------------------------------------------

 SCF Done:  E(UHF) =  -149.631039312     A.U. after   11 cycles
 E2 =    -0.4630292500D+00 EUMP2 =    -0.15009406856203D+03
 CCSD(T)
 CCSD(T)= -0.15011383480D+03

 Unable to determine electronic state:  an orbital has unidentified symmetry.
 Alpha  occ. eigenvalues --  -20.27779 -20.27737  -1.17305  -0.77284  -0.36949
 Alpha  occ. eigenvalues --   -0.31698  -0.29436  -0.14103  -0.08231
 Alpha virt. eigenvalues --    0.66245   1.03272   1.05730   1.05977   1.07519
 Alpha virt. eigenvalues --    1.11972   1.14583   1.26386   1.79372   1.87742
 Alpha virt. eigenvalues --    1.87883   1.87895   1.90538   2.22543   2.22569

  Beta  occ. eigenvalues --  -20.25183 -20.25123  -1.10143  -0.66760  -0.29324
  Beta  occ. eigenvalues --   -0.26912  -0.13205  -0.05113
  Beta virt. eigenvalues --    0.45591   0.68955   1.06886   1.07780   1.08331
  Beta virt. eigenvalues --    1.11179   1.15550   1.21625   1.27126   1.81603
  Beta virt. eigenvalues --    1.90569   1.90800   1.90814   1.92922   2.27444

 Mulliken charges and spin densities:
               1          2
     1  O   -0.500000   0.500000
     2  O   -0.500000   0.500000
 Sum of Mulliken charges =  -1.00000   1.00000

 Dipole moment (field-independent basis, Debye):
    X=             -0.0000    Y=             -0.0000    Z=              0.0000  Tot=              0.0000
 Quadrupole moment (field-independent basis, Debye-Ang):
   XX=            -11.8196   YY=            -12.7809   ZZ=            -15.0715
   XY=              0.0000   XZ=              0.0000   YZ=              0.0000

 -0=-150.092097\MP4SDQ=-150.097803\CCSD=-150.0961859\CCSD(T)=-150.11383
 Normal termination of Gaussian 16 at Fri Feb  9 18:01:09 2024.
