 Gaussian 16, Revision A.03,
 Gaussian 16:  ES64L-G16RevA.03 25-Dec-2016

 ------------------
 #p CCSD(T)/cc-pVTZ
 ------------------

 -----
 O2_18
 -----
 Symbolic Z-matrix:
 Charge = -1 Multiplicity = 2

                         Standard orientation:
 ---------------------------------------------------------------------
 Center     Atomic      Atomic             Coordinates (Angstroms)
 Number     Number       Type             X           Y           Z
 ---------------------------------------------------------------------
      1          8           0        0.000000    0.000000    0.670000
      2          8           0        0.000000    0.000000   -0.670000
 ---------------------------------------------------------------------

 SCF Done:  E(UHF) =  -149.629035904     A.U. after   11 cycles
 E2 =    -0.4668698358D+00 EUMP2 =    -0.15009590573942D+03
 CCSD(T)
 CCSD(T)= -0.15011540729D+03

 Unable to determine electronic state:  an orbital has unidentified symmetry.
 Alpha  occ. eigenvalues --  -20.28330 -20.28292  -1.15594  -0.78332  -0.36349
 Alpha  occ. eigenvalues --   -0.31087  -0.28647  -0.15129  -0.09242
 Alpha virt. eigenvalues --    0.64183   1.03300   1.04243   1.06023   1.07931
 Alpha virt. eigenvalues --    1.11811   1.14410   1.26579   1.78821   1.86363
 Alpha virt. eigenvalues --    1.88549   1.88558   1.89106   2.21311   2.21339

  Beta  occ. eigenvalues --  -20.25723 -20.25668  -1.08267  -0.67759  -0.28700
  Beta  occ. eigenvalues --   -0.26225  -0.12291  -0.06117
  Beta virt. eigenvalues --    0.44537   0.67027   1.06111   1.06956   1.08784
  Beta virt. eigenvalues --    1.11498   1.15369   1.21367   1.27292   1.81035
  Beta virt. eigenvalues --    1.89118   1.91326   1.91512   1.91523   2.26190

 Mulliken charges and spin densities:
               1          2
     1  O   -0.500000   0.500000
     2  O   -0.500000   0.500000
 Sum of Mulliken charges =  -1.00000   1.00000

 Dipole moment (field-independent basis, Debye):
    X=             -0.0000    Y=             -0.0000    Z=              0.0000  Tot=              0.0000
 Quadrupole moment (field-independent basis, Debye-Ang):
   XX=            -12.8215   YY=            -11.8729   ZZ=            -15.0925
   XY=              0.0000   XZ=              0.0000   YZ=              0.0000

 3-0=-150.0925009\MP4SDQ=-150.0989473\CCSD=-150.0970639\CCSD(T)=-150.11
 Normal termination of Gaussian 16 at Fri Feb  9 18:01:22 2024.
