 Gaussian 16, Revision A.03,
 Gaussian 16:  ES64L-G16RevA.03 25-Dec-2016

 ------------------
 #p CCSD(T)/cc-pVTZ
 ------------------

 -----
 O2_14
 -----
 Symbolic Z-matrix:
 Charge = -1 Multiplicity = 2

                         Standard orientation:
 ---------------------------------------------------------------------
 Center     Atomic      Atomic             Coordinates (Angstroms)
 Number     Number       Type             X           Y           Z
 ---------------------------------------------------------------------
      1          8           0        0.000000    0.000000    0.610000
      2          8           0        0.000000    0.000000   -0.610000
 ---------------------------------------------------------------------

 SCF Done:  E(UHF) =  -149.624704100     A.U. after   11 cycles
 E2 =    -0.4523661212D+00 EUMP2 =    -0.15007707022082D+03
 CCSD(T)
 CCSD(T)= -0.15009735464D+03

 Unable to determine electronic state:  an orbital has unidentified symmetry.
 Alpha  occ. eigenvalues --  -20.26033 -20.25973  -1.23382  -0.73978  -0.39170
 Alpha  occ. eigenvalues --   -0.33953  -0.31875  -0.10644  -0.04835
 Alpha virt. eigenvalues --    0.71575   1.02888   1.05533   1.06116   1.12514
 Alpha virt. eigenvalues --    1.12850   1.15169   1.25946   1.79450   1.85902
 Alpha virt. eigenvalues --    1.85920   1.92692   1.95647   2.26480   2.26501

  Beta  occ. eigenvalues --  -20.23482 -20.23399  -1.16782  -0.63627  -0.31622
  Beta  occ. eigenvalues --   -0.28995  -0.16417  -0.01748
  Beta virt. eigenvalues --    0.48993   0.73747   1.06359   1.06806   1.09862
  Beta virt. eigenvalues --    1.15566   1.16166   1.22513   1.26797   1.81702
  Beta virt. eigenvalues --    1.88687   1.88705   1.95746   1.98523   2.31444

 Mulliken charges and spin densities:
               1          2
     1  O   -0.500000   0.500000
     2  O   -0.500000   0.500000
 Sum of Mulliken charges =  -1.00000   1.00000

 Dipole moment (field-independent basis, Debye):
    X=             -0.0000    Y=             -0.0000    Z=             -0.0000  Tot=              0.0000
 Quadrupole moment (field-independent basis, Debye-Ang):
   XX=            -12.6519   YY=            -11.6448   ZZ=            -15.0186
   XY=              0.0000   XZ=              0.0000   YZ=              0.0000

 3-0=-150.0787722\MP4SDQ=-150.082567\CCSD=-150.0815884\CCSD(T)=-150.097
 Normal termination of Gaussian 16 at Fri Feb  9 18:00:31 2024.
