 Gaussian 16, Revision A.03,
 Gaussian 16:  ES64L-G16RevA.03 25-Dec-2016

 ------------------
 #p CCSD(T)/cc-pVTZ
 ------------------

 ------
 O2_100
 ------
 Symbolic Z-matrix:
 Charge = -1 Multiplicity = 2

                         Standard orientation:
 ---------------------------------------------------------------------
 Center     Atomic      Atomic             Coordinates (Angstroms)
 Number     Number       Type             X           Y           Z
 ---------------------------------------------------------------------
      1          8           0        0.000000    0.000000    1.900000
      2          8           0        0.000000    0.000000   -1.900000
 ---------------------------------------------------------------------

 SCF Done:  E(UHF) =  -149.229732595     A.U. after   12 cycles
 E2 =    -0.1077818862D+01 EUMP2 =    -0.15030755145770D+03
 CCSD(T)
 CCSD(T)= -0.14996674486D+03

 Unable to determine electronic state:  an orbital has unidentified symmetry.
 Alpha  occ. eigenvalues --  -20.40418 -20.40417  -1.01403  -1.01079  -0.34757
 Alpha  occ. eigenvalues --   -0.34671  -0.29310  -0.29209  -0.06609
 Alpha virt. eigenvalues --    0.09208   0.96808   0.97831   0.98310   0.99309
 Alpha virt. eigenvalues --    1.00814   1.07672   1.16550   1.20199   1.94948
 Alpha virt. eigenvalues --    1.95132   1.95182   1.95318   1.96288   1.96289

  Beta  occ. eigenvalues --  -20.37932 -20.37929  -0.91803  -0.91312  -0.26696
  Beta  occ. eigenvalues --   -0.26577  -0.04634   0.00712
  Beta virt. eigenvalues --    0.11385   0.14561   0.98933   1.00254   1.01761
  Beta virt. eigenvalues --    1.05829   1.07257   1.08805   1.18595   1.22260
  Beta virt. eigenvalues --    1.97683   1.97861   1.98000   1.98056   1.99123

 Mulliken charges and spin densities:
               1          2
     1  O   -0.500000   0.500000
     2  O   -0.500000   0.500000
 Sum of Mulliken charges =  -1.00000   1.00000

 Dipole moment (field-independent basis, Debye):
    X=             -0.0000    Y=             -0.0000    Z=             -0.0000  Tot=              0.0000
 Quadrupole moment (field-independent basis, Debye-Ang):
   XX=            -13.3608   YY=            -12.4152   ZZ=            -28.9182
   XY=              0.0000   XZ=              0.0000   YZ=              0.0000

 3-0=-149.5189866\MP4SDQ=-149.2298345\CCSD=-149.8755345\CCSD(T)=-149.96
 Normal termination of Gaussian 16 at Fri Feb  9 18:19:40 2024.
