 Gaussian 16, Revision A.03,
 Gaussian 16:  ES64L-G16RevA.03 25-Dec-2016

 ------------------
 #p CCSD(T)/cc-pVTZ
 ------------------

 -----
 O2_15
 -----
 Symbolic Z-matrix:
 Charge = -1 Multiplicity = 2

                         Standard orientation:
 ---------------------------------------------------------------------
 Center     Atomic      Atomic             Coordinates (Angstroms)
 Number     Number       Type             X           Y           Z
 ---------------------------------------------------------------------
      1          8           0        0.000000    0.000000    0.625000
      2          8           0        0.000000    0.000000   -0.625000
 ---------------------------------------------------------------------

 SCF Done:  E(UHF) =  -149.629268709     A.U. after   11 cycles
 E2 =    -0.4557673570D+00 EUMP2 =    -0.15008503606599D+03
 CCSD(T)
 CCSD(T)= -0.15010519302D+03

 Unable to determine electronic state:  an orbital has unidentified symmetry.
 Alpha  occ. eigenvalues --  -20.26628 -20.26576  -1.21189  -0.75104  -0.38353
 Alpha  occ. eigenvalues --   -0.33124  -0.31051  -0.11864  -0.06031
 Alpha virt. eigenvalues --    0.69987   1.03069   1.05735   1.06612   1.09967
 Alpha virt. eigenvalues --    1.12322   1.14961   1.26067   1.79734   1.86557
 Alpha virt. eigenvalues --    1.86573   1.90907   1.93808   2.25128   2.25151

  Beta  occ. eigenvalues --  -20.24060 -20.23986  -1.14391  -0.64691  -0.30778
  Beta  occ. eigenvalues --   -0.28297  -0.15261  -0.02932
  Beta virt. eigenvalues --    0.47818   0.72353   1.06590   1.07342   1.10363
  Beta virt. eigenvalues --    1.12450   1.15947   1.22196   1.26876   1.81985
  Beta virt. eigenvalues --    1.89385   1.89401   1.93883   1.96522   2.30072

 Mulliken charges and spin densities:
               1          2
     1  O   -0.500000   0.500000
     2  O   -0.500000   0.500000
 Sum of Mulliken charges =  -1.00000   1.00000

 Dipole moment (field-independent basis, Debye):
    X=             -0.0000    Y=              0.0000    Z=             -0.0000  Tot=              0.0000
 Quadrupole moment (field-independent basis, Debye-Ang):
   XX=            -12.6959   YY=            -11.7055   ZZ=            -15.0347
   XY=              0.0000   XZ=              0.0000   YZ=              0.0000

 3-0=-150.0856205\MP4SDQ=-150.0899989\CCSD=-150.0888335\CCSD(T)=-150.10
 Normal termination of Gaussian 16 at Fri Feb  9 18:00:44 2024.
