 Gaussian 16, Revision A.03,
 Gaussian 16:  ES64L-G16RevA.03 25-Dec-2016

 ------------------
 #p CCSD(T)/cc-pVTZ
 ------------------

 -----
 O2_19
 -----
 Symbolic Z-matrix:
 Charge = -1 Multiplicity = 2

                         Standard orientation:
 ---------------------------------------------------------------------
 Center     Atomic      Atomic             Coordinates (Angstroms)
 Number     Number       Type             X           Y           Z
 ---------------------------------------------------------------------
      1          8           0        0.000000    0.000000    0.685000
      2          8           0        0.000000    0.000000   -0.685000
 ---------------------------------------------------------------------

 SCF Done:  E(UHF) =  -149.625532739     A.U. after   11 cycles
 E2 =    -0.4708372471D+00 EUMP2 =    -0.15009636998561D+03
 CCSD(T)
 CCSD(T)= -0.15011555915D+03

 Unable to determine electronic state:  an orbital has unidentified symmetry.
 Alpha  occ. eigenvalues --  -20.28863 -20.28829  -1.14025  -0.79348  -0.35810
 Alpha  occ. eigenvalues --   -0.30537  -0.27870  -0.16097  -0.10197
 Alpha virt. eigenvalues --    0.62059   1.03086   1.03284   1.06024   1.08315
 Alpha virt. eigenvalues --    1.11657   1.14246   1.26790   1.78095   1.85117
 Alpha virt. eigenvalues --    1.87810   1.89212   1.89219   2.20120   2.20149

  Beta  occ. eigenvalues --  -20.26246 -20.26196  -1.06542  -0.68730  -0.28138
  Beta  occ. eigenvalues --   -0.25542  -0.11443  -0.07068
  Beta virt. eigenvalues --    0.43522   0.65009   1.04800   1.06979   1.09210
  Beta virt. eigenvalues --    1.11759   1.15198   1.21125   1.27480   1.80287
  Beta virt. eigenvalues --    1.87805   1.89868   1.92221   1.92231   2.24977

 Mulliken charges and spin densities:
               1          2
     1  O   -0.500000   0.500000
     2  O   -0.500000   0.500000
 Sum of Mulliken charges =  -1.00000   1.00000

 Dipole moment (field-independent basis, Debye):
    X=             -0.0000    Y=              0.0000    Z=              0.0000  Tot=              0.0000
 Quadrupole moment (field-independent basis, Debye-Ang):
   XX=            -12.8606   YY=            -11.9235   ZZ=            -15.1156
   XY=              0.0000   XZ=              0.0000   YZ=              0.0000

 -150.0914319\MP4SDQ=-150.0986663\CCSD=-150.0964895\CCSD(T)=-150.115559
 Normal termination of Gaussian 16 at Fri Feb  9 18:01:35 2024.
