 Gaussian 16, Revision A.03,
 Gaussian 16:  ES64L-G16RevA.03 25-Dec-2016

 ------------------
 #p CCSD(T)/cc-pVTZ
 ------------------

 -----
 O2_11
 -----
 Symbolic Z-matrix:
 Charge = -1 Multiplicity = 2

                         Standard orientation:
 ---------------------------------------------------------------------
 Center     Atomic      Atomic             Coordinates (Angstroms)
 Number     Number       Type             X           Y           Z
 ---------------------------------------------------------------------
      1          8           0        0.000000    0.000000    0.565000
      2          8           0        0.000000    0.000000   -0.565000
 ---------------------------------------------------------------------

 SCF Done:  E(UHF) =  -149.589837635     A.U. after   11 cycles
 E2 =    -0.4431990639D+00 EUMP2 =    -0.15003303669891D+03
 CCSD(T)
 CCSD(T)= -0.15005343182D+03

 Unable to determine electronic state:  an orbital has unidentified symmetry.
 Alpha  occ. eigenvalues --  -20.24220 -20.24125  -1.31075  -0.70503  -0.42180
 Alpha  occ. eigenvalues --   -0.36999  -0.34421  -0.06534  -0.00813
 Alpha virt. eigenvalues --    0.74950   1.01993   1.04453   1.04576   1.13174
 Alpha virt. eigenvalues --    1.15891   1.25044   1.25770   1.76670   1.83987
 Alpha virt. eigenvalues --    1.84010   1.98851   2.01960   2.30747   2.30767

  Beta  occ. eigenvalues --  -20.21736 -20.21611  -1.25133  -0.60361  -0.34724
  Beta  occ. eigenvalues --   -0.31120  -0.20510   0.02215
  Beta virt. eigenvalues --    0.52767   0.76587   1.05037   1.05303   1.07984
  Beta virt. eigenvalues --    1.16928   1.23617   1.26765   1.28369   1.78902
  Beta virt. eigenvalues --    1.86655   1.86675   2.02136   2.05291   2.35774

 Mulliken charges and spin densities:
               1          2
     1  O   -0.500000   0.500000
     2  O   -0.500000   0.500000
 Sum of Mulliken charges =  -1.00000   1.00000

 Dipole moment (field-independent basis, Debye):
    X=             -0.0000    Y=              0.0000    Z=             -0.0000  Tot=              0.0000
 Quadrupole moment (field-independent basis, Debye-Ang):
   XX=            -11.4505   YY=            -12.5180   ZZ=            -14.9785
   XY=              0.0000   XZ=              0.0000   YZ=              0.0000

 3-0=-150.0374212\MP4SDQ=-150.0397976\CCSD=-150.0392364\CCSD(T)=-150.05
 Normal termination of Gaussian 16 at Fri Feb  9 17:59:52 2024.
