 Gaussian 16, Revision A.03,
 Gaussian 16:  ES64L-G16RevA.03 25-Dec-2016

 ------------------
 #p CCSD(T)/cc-pVTZ
 ------------------

 -----
 O2_10
 -----
 Symbolic Z-matrix:
 Charge = -1 Multiplicity = 2

                         Standard orientation:
 ---------------------------------------------------------------------
 Center     Atomic      Atomic             Coordinates (Angstroms)
 Number     Number       Type             X           Y           Z
 ---------------------------------------------------------------------
      1          8           0        0.000000    0.000000    0.550000
      2          8           0        0.000000    0.000000   -0.550000
 ---------------------------------------------------------------------

 SCF Done:  E(UHF) =  -149.568731796     A.U. after   11 cycles
 E2 =    -0.4405180014D+00 EUMP2 =    -0.15000924979759D+03
 CCSD(T)
 CCSD(T)= -0.15002958925D+03

 Unable to determine electronic state:  an orbital has unidentified symmetry.
 Alpha  occ. eigenvalues --  -20.23630 -20.23517  -1.34039  -0.69330  -0.43401
 Alpha  occ. eigenvalues --   -0.38235  -0.35300  -0.05002   0.00683
 Alpha virt. eigenvalues --    0.75646   1.01568   1.03842   1.04131   1.13429
 Alpha virt. eigenvalues --    1.16171   1.25777   1.30299   1.75341   1.83368
 Alpha virt. eigenvalues --    1.83393   2.01159   2.04316   2.32231   2.32253

  Beta  occ. eigenvalues --  -20.21175 -20.21029  -1.28336  -0.59265  -0.35983
  Beta  occ. eigenvalues --   -0.31850  -0.22121   0.03684
  Beta virt. eigenvalues --    0.54107   0.77143   1.04398   1.04824   1.07231
  Beta virt. eigenvalues --    1.17224   1.24044   1.26824   1.33763   1.77576
  Beta virt. eigenvalues --    1.86002   1.86023   2.04521   2.07784   2.37279

 Mulliken charges and spin densities:
               1          2
     1  O   -0.500000   0.500000
     2  O   -0.500000   0.500000
 Sum of Mulliken charges =  -1.00000   1.00000

 Dipole moment (field-independent basis, Debye):
    X=             -0.0000    Y=             -0.0000    Z=              0.0000  Tot=              0.0000
 Quadrupole moment (field-independent basis, Debye-Ang):
   XX=            -12.4742   YY=            -11.3826   ZZ=            -14.9681
   XY=              0.0000   XZ=              0.0000   YZ=              0.0000

 0=-150.0142984\MP4SDQ=-150.0163135\CCSD=-150.0158484\CCSD(T)=-150.0295
 Normal termination of Gaussian 16 at Fri Feb  9 17:59:40 2024.
