 Gaussian 16, Revision A.03,
 Gaussian 16:  ES64L-G16RevA.03 25-Dec-2016

 ------------------
 #p CCSD(T)/cc-pVTZ
 ------------------

 -----
 O2_25
 -----
 Symbolic Z-matrix:
 Charge = -1 Multiplicity = 2

                         Standard orientation:
 ---------------------------------------------------------------------
 Center     Atomic      Atomic             Coordinates (Angstroms)
 Number     Number       Type             X           Y           Z
 ---------------------------------------------------------------------
      1          8           0        0.000000    0.000000    0.775000
      2          8           0        0.000000    0.000000   -0.775000
 ---------------------------------------------------------------------

 SCF Done:  E(UHF) =  -149.585106786     A.U. after   11 cycles
 E2 =    -0.4968558253D+00 EUMP2 =    -0.15008196261129D+03
 CCSD(T)
 CCSD(T)= -0.15009816575D+03

 Unable to determine electronic state:  an orbital has unidentified symmetry.
 Alpha  occ. eigenvalues --  -20.31664 -20.31643  -1.07088  -0.84711  -0.33598
 Alpha  occ. eigenvalues --   -0.28254  -0.23535  -0.20888  -0.14943
 Alpha virt. eigenvalues --    0.49867   1.00208   1.02448   1.05258   1.10141
 Alpha virt. eigenvalues --    1.10833   1.13382   1.28167   1.72162   1.80434
 Alpha virt. eigenvalues --    1.82883   1.92951   1.92972   2.13837   2.13870

  Beta  occ. eigenvalues --  -20.29012 -20.28981  -0.98867  -0.73924  -0.25788
  Beta  occ. eigenvalues --   -0.21604  -0.11821  -0.07488
  Beta virt. eigenvalues --    0.38158   0.53008   1.01458   1.06294   1.11259
  Beta virt. eigenvalues --    1.12239   1.14305   1.19916   1.28847   1.74206
  Beta virt. eigenvalues --    1.82818   1.84123   1.96249   1.96256   2.18561

 Mulliken charges and spin densities:
               1          2
     1  O   -0.500000   0.500000
     2  O   -0.500000   0.500000
 Sum of Mulliken charges =  -1.00000   1.00000

 Dipole moment (field-independent basis, Debye):
    X=             -0.0000    Y=             -0.0000    Z=              0.0000  Tot=              0.0000
 Quadrupole moment (field-independent basis, Debye-Ang):
   XX=            -13.0587   YY=            -12.1716   ZZ=            -15.3077
   XY=              0.0000   XZ=              0.0000   YZ=              0.0000

 -0=-150.0658366\MP4SDQ=-150.0786047\CCSD=-150.0741496\CCSD(T)=-150.098
 Normal termination of Gaussian 16 at Fri Feb  9 18:03:08 2024.
