 Gaussian 16, Revision A.03,
 Gaussian 16:  ES64L-G16RevA.03 25-Dec-2016

 ------------------
 #p CCSD(T)/cc-pVTZ
 ------------------

 -----
 O2_24
 -----
 Symbolic Z-matrix:
 Charge = -1 Multiplicity = 2

                         Standard orientation:
 ---------------------------------------------------------------------
 Center     Atomic      Atomic             Coordinates (Angstroms)
 Number     Number       Type             X           Y           Z
 ---------------------------------------------------------------------
      1          8           0        0.000000    0.000000    0.760000
      2          8           0        0.000000    0.000000   -0.760000
 ---------------------------------------------------------------------

 SCF Done:  E(UHF) =  -149.593338464     A.U. after   11 cycles
 E2 =    -0.4922880586D+00 EUMP2 =    -0.15008562652244D+03
 CCSD(T)
 CCSD(T)= -0.15010247189D+03

 Unable to determine electronic state:  an orbital has unidentified symmetry.
 Alpha  occ. eigenvalues --  -20.31244 -20.31221  -1.07990  -0.83907  -0.33865
 Alpha  occ. eigenvalues --   -0.28533  -0.24215  -0.20196  -0.14255
 Alpha virt. eigenvalues --    0.51735   1.00382   1.02659   1.05461   1.09886
 Alpha virt. eigenvalues --    1.10963   1.13516   1.27947   1.73214   1.80885
 Alpha virt. eigenvalues --    1.83366   1.92373   1.92387   2.14783   2.14816

  Beta  occ. eigenvalues --  -20.28596 -20.28562  -0.99872  -0.73138  -0.26077
  Beta  occ. eigenvalues --   -0.22235  -0.11129  -0.08034
  Beta virt. eigenvalues --    0.38972   0.54879   1.01671   1.06489   1.10971
  Beta virt. eigenvalues --    1.12277   1.14443   1.20095   1.28614   1.75282
  Beta virt. eigenvalues --    1.83306   1.84717   1.95623   1.95626   2.19529

 Mulliken charges and spin densities:
               1          2
     1  O   -0.500000   0.500000
     2  O   -0.500000   0.500000
 Sum of Mulliken charges =  -1.00000   1.00000

 Dipole moment (field-independent basis, Debye):
    X=             -0.0000    Y=             -0.0000    Z=              0.0000  Tot=              0.0000
 Quadrupole moment (field-independent basis, Debye-Ang):
   XX=            -13.0301   YY=            -12.1366   ZZ=            -15.2684
   XY=              0.0000   XZ=              0.0000   YZ=              0.0000

 -0=-150.0715946\MP4SDQ=-150.0833654\CCSD=-150.0793426\CCSD(T)=-150.102
 Normal termination of Gaussian 16 at Fri Feb  9 18:02:53 2024.
