 Gaussian 16, Revision A.03,
 Gaussian 16:  ES64L-G16RevA.03 25-Dec-2016

 ------------------
 #p CCSD(T)/cc-pVTZ
 ------------------

 ----
 O2_2
 ----
 Symbolic Z-matrix:
 Charge = -1 Multiplicity = 2

                         Standard orientation:
 ---------------------------------------------------------------------
 Center     Atomic      Atomic             Coordinates (Angstroms)
 Number     Number       Type             X           Y           Z
 ---------------------------------------------------------------------
      1          8           0        0.000000    0.000000    0.430000
      2          8           0        0.000000    0.000000   -0.430000
 ---------------------------------------------------------------------

 SCF Done:  E(UHF) =  -149.034826659     A.U. after   12 cycles
 E2 =    -0.4259008824D+00 EUMP2 =    -0.14946072754171D+03
 CCSD(T)
 CCSD(T)= -0.14947885815D+03

 Unable to determine electronic state:  an orbital has unidentified symmetry.
 Alpha  occ. eigenvalues --  -20.21696 -20.20897  -1.65595  -0.60757  -0.59406
 Alpha  occ. eigenvalues --   -0.54513  -0.43868   0.10511   0.15705
 Alpha virt. eigenvalues --    0.77432   0.95446   0.97911   0.98151   1.16494
 Alpha virt. eigenvalues --    1.19543   1.26658   1.67703   1.78534   1.78570
 Alpha virt. eigenvalues --    1.93660   2.22621   2.26080   2.44220   2.44278

  Beta  occ. eigenvalues --  -20.19663 -20.18803  -1.62075  -0.52601  -0.51477
  Beta  occ. eigenvalues --   -0.42210  -0.39356   0.18303
  Beta virt. eigenvalues --    0.65817   0.78482   0.98338   0.98665   0.98879
  Beta virt. eigenvalues --    1.20766   1.28121   1.28865   1.69890   1.80979
  Beta virt. eigenvalues --    1.81003   1.97535   2.26515   2.30282   2.49426

 Mulliken charges and spin densities:
               1          2
     1  O   -0.500000   0.500000
     2  O   -0.500000   0.500000
 Sum of Mulliken charges =  -1.00000   1.00000

 Dipole moment (field-independent basis, Debye):
    X=             -0.0000    Y=             -0.0000    Z=             -0.0000  Tot=              0.0000
 Quadrupole moment (field-independent basis, Debye-Ang):
   XX=            -12.2632   YY=            -10.8706   ZZ=            -15.0282
   XY=              0.0000   XZ=              0.0000   YZ=              0.0000

 0=-149.4669158\MP4SDQ=-149.4679207\CCSD=-149.4676816\CCSD(T)=-149.4788
 Normal termination of Gaussian 16 at Fri Feb  9 17:58:01 2024.
