 Gaussian 16, Revision A.03,
 Gaussian 16:  ES64L-G16RevA.03 25-Dec-2016

 ------------------
 #p CCSD(T)/cc-pVTZ
 ------------------

 -----
 O2_29
 -----
 Symbolic Z-matrix:
 Charge = -1 Multiplicity = 2

                         Standard orientation:
 ---------------------------------------------------------------------
 Center     Atomic      Atomic             Coordinates (Angstroms)
 Number     Number       Type             X           Y           Z
 ---------------------------------------------------------------------
      1          8           0        0.000000    0.000000    0.835000
      2          8           0        0.000000    0.000000   -0.835000
 ---------------------------------------------------------------------

 SCF Done:  E(UHF) =  -149.549780598     A.U. after   12 cycles
 E2 =    -0.5159253396D+00 EUMP2 =    -0.15006570593808D+03
 CCSD(T)
 CCSD(T)= -0.15007866176D+03

 Unable to determine electronic state:  an orbital has unidentified symmetry.
 Alpha  occ. eigenvalues --  -20.33168 -20.33152  -1.04252  -0.87581  -0.32830
 Alpha  occ. eigenvalues --   -0.27439  -0.23307  -0.21003  -0.17360
 Alpha virt. eigenvalues --    0.43235   1.00104   1.01426   1.04242   1.10325
 Alpha virt. eigenvalues --    1.11031   1.12862   1.28847   1.68086   1.79890
 Alpha virt. eigenvalues --    1.82251   1.94994   1.95070   2.10444   2.10476

  Beta  occ. eigenvalues --  -20.30508 -20.30484  -0.95679  -0.76762  -0.24933
  Beta  occ. eigenvalues --   -0.19221  -0.14261  -0.05654
  Beta virt. eigenvalues --    0.35175   0.46313   1.01272   1.05294   1.11717
  Beta virt. eigenvalues --    1.12271   1.13776   1.19257   1.29634   1.70044
  Beta virt. eigenvalues --    1.82189   1.83169   1.98474   1.98516   2.15082

 Mulliken charges and spin densities:
               1          2
     1  O   -0.500000   0.500000
     2  O   -0.500000   0.500000
 Sum of Mulliken charges =  -1.00000   1.00000

 Dipole moment (field-independent basis, Debye):
    X=             -0.0000    Y=              0.0000    Z=             -0.0000  Tot=              0.0000
 Quadrupole moment (field-independent basis, Debye-Ang):
   XX=            -13.1556   YY=            -12.2879   ZZ=            -15.4986
   XY=              0.0000   XZ=              0.0000   YZ=              0.0000

 3-0=-150.0402933\MP4SDQ=-150.0571859\CCSD=-150.0508994\CCSD(T)=-150.07
 Normal termination of Gaussian 16 at Fri Feb  9 18:03:59 2024.
