 Gaussian 16, Revision A.03,
 Gaussian 16:  ES64L-G16RevA.03 25-Dec-2016

 ------------------
 #p CCSD(T)/cc-pVTZ
 ------------------

 -----
 O2_27
 -----
 Symbolic Z-matrix:
 Charge = -1 Multiplicity = 2

                         Standard orientation:
 ---------------------------------------------------------------------
 Center     Atomic      Atomic             Coordinates (Angstroms)
 Number     Number       Type             X           Y           Z
 ---------------------------------------------------------------------
      1          8           0        0.000000    0.000000    0.805000
      2          8           0        0.000000    0.000000   -0.805000
 ---------------------------------------------------------------------

 SCF Done:  E(UHF) =  -149.567769697     A.U. after   11 cycles
 E2 =    -0.5062349702D+00 EUMP2 =    -0.15007400466712D+03
 CCSD(T)
 CCSD(T)= -0.15008872643D+03

 Unable to determine electronic state:  an orbital has unidentified symmetry.
 Alpha  occ. eigenvalues --  -20.32450 -20.32432  -1.05528  -0.86214  -0.33159
 Alpha  occ. eigenvalues --   -0.27791  -0.22230  -0.22163  -0.16214
 Alpha virt. eigenvalues --    0.46384   1.00060   1.01968   1.04784   1.10578
 Alpha virt. eigenvalues --    1.10608   1.13120   1.28557   1.70087   1.79918
 Alpha virt. eigenvalues --    1.82314   1.94033   1.94073   2.12064   2.12097

  Beta  occ. eigenvalues --  -20.29793 -20.29766  -0.97119  -0.75404  -0.25305
  Beta  occ. eigenvalues --   -0.20383  -0.13102  -0.06507
  Beta virt. eigenvalues --    0.36614   0.49501   1.01257   1.05832   1.11789
  Beta virt. eigenvalues --    1.12047   1.14038   1.19577   1.29281   1.72086
  Beta virt. eigenvalues --    1.82247   1.83368   1.97422   1.97442   2.16744

 Mulliken charges and spin densities:
               1          2
     1  O   -0.500000   0.500000
     2  O   -0.500000   0.500000
 Sum of Mulliken charges =  -1.00000   1.00000

 Dipole moment (field-independent basis, Debye):
    X=             -0.0000    Y=             -0.0000    Z=             -0.0000  Tot=              0.0000
 Quadrupole moment (field-independent basis, Debye-Ang):
   XX=            -13.1105   YY=            -12.2342   ZZ=            -15.3962
   XY=              0.0000   XZ=              0.0000   YZ=              0.0000

 -0=-150.0534189\MP4SDQ=-150.0682328\CCSD=-150.0628739\CCSD(T)=-150.088
 Normal termination of Gaussian 16 at Fri Feb  9 18:03:34 2024.
