 Gaussian 16, Revision A.03,
 Gaussian 16:  ES64L-G16RevA.03 25-Dec-2016

 ------------------
 #p CCSD(T)/cc-pVTZ
 ------------------

 -----
 O2_20
 -----
 Symbolic Z-matrix:
 Charge = -1 Multiplicity = 2

                         Standard orientation:
 ---------------------------------------------------------------------
 Center     Atomic      Atomic             Coordinates (Angstroms)
 Number     Number       Type             X           Y           Z
 ---------------------------------------------------------------------
      1          8           0        0.000000    0.000000    0.700000
      2          8           0        0.000000    0.000000   -0.700000
 ---------------------------------------------------------------------

 SCF Done:  E(UHF) =  -149.620788562     A.U. after   11 cycles
 E2 =    -0.4749224313D+00 EUMP2 =    -0.15009571099290D+03
 CCSD(T)
 CCSD(T)= -0.15011453846D+03

 Unable to determine electronic state:  an orbital has unidentified symmetry.
 Alpha  occ. eigenvalues --  -20.29377 -20.29346  -1.12588  -0.80331  -0.35327
 Alpha  occ. eigenvalues --   -0.30042  -0.27108  -0.17012  -0.11100
 Alpha virt. eigenvalues --    0.59916   1.02196   1.03227   1.05983   1.08675
 Alpha virt. eigenvalues --    1.11509   1.14089   1.27013   1.77241   1.84006
 Alpha virt. eigenvalues --    1.86650   1.89870   1.89874   2.18971   2.19001

  Beta  occ. eigenvalues --  -20.26752 -20.26706  -1.04961  -0.69673  -0.27631
  Beta  occ. eigenvalues --   -0.24864  -0.10657  -0.07969
  Beta virt. eigenvalues --    0.42544   0.62944   1.03783   1.06956   1.09610
  Beta virt. eigenvalues --    1.11965   1.15035   1.20897   1.27687   1.79410
  Beta virt. eigenvalues --    1.86630   1.88551   1.92926   1.92934   2.23806

 Mulliken charges and spin densities:
               1          2
     1  O   -0.500000   0.500000
     2  O   -0.500000   0.500000
 Sum of Mulliken charges =  -1.00000   1.00000

 Dipole moment (field-independent basis, Debye):
    X=             -0.0000    Y=             -0.0000    Z=              0.0000  Tot=              0.0000
 Quadrupole moment (field-independent basis, Debye-Ang):
   XX=            -11.9714   YY=            -12.8980   ZZ=            -15.1408
   XY=              0.0000   XZ=              0.0000   YZ=              0.0000

 =-150.0891419\MP4SDQ=-150.0972091\CCSD=-150.0947121\CCSD(T)=-150.11453
 Normal termination of Gaussian 16 at Fri Feb  9 18:01:48 2024.
