 Gaussian 16, Revision A.03,
 Gaussian 16:  ES64L-G16RevA.03 25-Dec-2016

 ------------------
 #p CCSD(T)/cc-pVTZ
 ------------------

 -----
 O2_26
 -----
 Symbolic Z-matrix:
 Charge = -1 Multiplicity = 2

                         Standard orientation:
 ---------------------------------------------------------------------
 Center     Atomic      Atomic             Coordinates (Angstroms)
 Number     Number       Type             X           Y           Z
 ---------------------------------------------------------------------
      1          8           0        0.000000    0.000000    0.790000
      2          8           0        0.000000    0.000000   -0.790000
 ---------------------------------------------------------------------

 SCF Done:  E(UHF) =  -149.576555186     A.U. after   11 cycles
 E2 =    -0.5015056662D+00 EUMP2 =    -0.15007806085258D+03
 CCSD(T)
 CCSD(T)= -0.15009355719D+03

 Unable to determine electronic state:  an orbital has unidentified symmetry.
 Alpha  occ. eigenvalues --  -20.32066 -20.32046  -1.06269  -0.85480  -0.33363
 Alpha  occ. eigenvalues --   -0.28007  -0.22873  -0.21542  -0.15595
 Alpha virt. eigenvalues --    0.48083   1.00105   1.02217   1.05031   1.10381
 Alpha virt. eigenvalues --    1.10705   1.13251   1.28372   1.71118   1.80113
 Alpha virt. eigenvalues --    1.82533   1.93506   1.93535   2.12931   2.12964

  Beta  occ. eigenvalues --  -20.29411 -20.29382  -0.97951  -0.74680  -0.25531
  Beta  occ. eigenvalues --   -0.20987  -0.12478  -0.06980
  Beta virt. eigenvalues --    0.37372   0.51214   1.01325   1.06074   1.11531
  Beta virt. eigenvalues --    1.12162   1.14171   1.19744   1.29071   1.73139
  Beta virt. eigenvalues --    1.82466   1.83673   1.96849   1.96862   2.17633

 Mulliken charges and spin densities:
               1          2
     1  O   -0.500000   0.500000
     2  O   -0.500000   0.500000
 Sum of Mulliken charges =  -1.00000   1.00000

 Dipole moment (field-independent basis, Debye):
    X=             -0.0000    Y=              0.0000    Z=             -0.0000  Tot=              0.0000
 Quadrupole moment (field-independent basis, Debye-Ang):
   XX=            -12.2041   YY=            -13.0854   ZZ=            -15.3503
   XY=              0.0000   XZ=              0.0000   YZ=              0.0000

 3-0=-150.0597504\MP4SDQ=-150.0735345\CCSD=-150.0686327\CCSD(T)=-150.09
 Normal termination of Gaussian 16 at Fri Feb  9 18:03:21 2024.
