 Gaussian 16, Revision A.03,
 Gaussian 16:  ES64L-G16RevA.03 25-Dec-2016

 ------------------
 #p CCSD(T)/cc-pVTZ
 ------------------

 -----
 O2_22
 -----
 Symbolic Z-matrix:
 Charge = -1 Multiplicity = 2

                         Standard orientation:
 ---------------------------------------------------------------------
 Center     Atomic      Atomic             Coordinates (Angstroms)
 Number     Number       Type             X           Y           Z
 ---------------------------------------------------------------------
      1          8           0        0.000000    0.000000    0.730000
      2          8           0        0.000000    0.000000   -0.730000
 ---------------------------------------------------------------------

 SCF Done:  E(UHF) =  -149.608423595     A.U. after   11 cycles
 E2 =    -0.4834137081D+00 EUMP2 =    -0.15009183730316D+03
 CCSD(T)
 CCSD(T)= -0.15010978558D+03

 Unable to determine electronic state:  an orbital has unidentified symmetry.
 Alpha  occ. eigenvalues --  -20.30349 -20.30322  -1.10076  -0.82191  -0.34510
 Alpha  occ. eigenvalues --   -0.29202  -0.25628  -0.18693  -0.12763
 Alpha virt. eigenvalues --    0.55706   1.01014   1.03004   1.05787   1.09322
 Alpha virt. eigenvalues --    1.11229   1.13794   1.27481   1.75298   1.82181
 Alpha virt. eigenvalues --    1.84737   1.91154   1.91158   2.16795   2.16827

  Beta  occ. eigenvalues --  -20.27710 -20.27671  -1.02187  -0.71468  -0.26768
  Beta  occ. eigenvalues --   -0.23531  -0.09633  -0.09250
  Beta virt. eigenvalues --    0.40692   0.58824   1.02417   1.06792   1.10335
  Beta virt. eigenvalues --    1.12218   1.14728   1.20476   1.28140   1.77416
  Beta virt. eigenvalues --    1.84692   1.86344   1.94307   1.94310   2.21586

 Mulliken charges and spin densities:
               1          2
     1  O   -0.500000   0.500000
     2  O   -0.500000   0.500000
 Sum of Mulliken charges =  -1.00000   1.00000

 Dipole moment (field-independent basis, Debye):
    X=             -0.0000    Y=             -0.0000    Z=              0.0000  Tot=              0.0000
 Quadrupole moment (field-independent basis, Debye-Ang):
   XX=            -12.9676   YY=            -12.0593   ZZ=            -15.1990
   XY=              0.0000   XZ=              0.0000   YZ=              0.0000

 3-0=-150.0817214\MP4SDQ=-150.0915742\CCSD=-150.0883599\CCSD(T)=-150.10
 Normal termination of Gaussian 16 at Fri Feb  9 18:02:19 2024.
