 Gaussian 16, Revision A.03,
 Gaussian 16:  ES64L-G16RevA.03 25-Dec-2016

 ------------------
 #p CCSD(T)/cc-pVTZ
 ------------------

 -----
 O2_21
 -----
 Symbolic Z-matrix:
 Charge = -1 Multiplicity = 2

                         Standard orientation:
 ---------------------------------------------------------------------
 Center     Atomic      Atomic             Coordinates (Angstroms)
 Number     Number       Type             X           Y           Z
 ---------------------------------------------------------------------
      1          8           0        0.000000    0.000000    0.715000
      2          8           0        0.000000    0.000000   -0.715000
 ---------------------------------------------------------------------

 SCF Done:  E(UHF) =  -149.615023126     A.U. after   11 cycles
 E2 =    -0.4791170684D+00 EUMP2 =    -0.15009414019408D+03
 CCSD(T)
 CCSD(T)= -0.15011255476D+03

 Unable to determine electronic state:  an orbital has unidentified symmetry.
 Alpha  occ. eigenvalues --  -20.29872 -20.29844  -1.11275  -0.81278  -0.34895
 Alpha  occ. eigenvalues --   -0.29599  -0.26360  -0.17876  -0.11954
 Alpha virt. eigenvalues --    0.57789   1.01520   1.03132   1.05903   1.09010
 Alpha virt. eigenvalues --    1.11366   1.13939   1.27245   1.76298   1.83027
 Alpha virt. eigenvalues --    1.85626   1.90520   1.90520   2.17862   2.17894

  Beta  occ. eigenvalues --  -20.27240 -20.27198  -1.03512  -0.70586  -0.27176
  Beta  occ. eigenvalues --   -0.24193  -0.09928  -0.08823
  Beta virt. eigenvalues --    0.41601   0.60872   1.03004   1.06893   1.09985
  Beta virt. eigenvalues --    1.12117   1.14878   1.20681   1.27908   1.78442
  Beta virt. eigenvalues --    1.85592   1.87376   1.93622   1.93628   2.22675

 Mulliken charges and spin densities:
               1          2
     1  O   -0.500000   0.500000
     2  O   -0.500000   0.500000
 Sum of Mulliken charges =  -1.00000   1.00000

 Dipole moment (field-independent basis, Debye):
    X=             -0.0000    Y=             -0.0000    Z=             -0.0000  Tot=              0.0000
 Quadrupole moment (field-independent basis, Debye-Ang):
   XX=            -12.0167   YY=            -12.9337   ZZ=            -15.1686
   XY=              0.0000   XZ=              0.0000   YZ=              0.0000

 0=-150.0858445\MP4SDQ=-150.0947858\CCSD=-150.0919425\CCSD(T)=-150.1125
 Normal termination of Gaussian 16 at Fri Feb  9 18:02:03 2024.
