 Gaussian 16, Revision A.03,
 Gaussian 16:  ES64L-G16RevA.03 25-Dec-2016

 ------------------
 #p CCSD(T)/cc-pVTZ
 ------------------

 -----
 O2_23
 -----
 Symbolic Z-matrix:
 Charge = -1 Multiplicity = 2

                         Standard orientation:
 ---------------------------------------------------------------------
 Center     Atomic      Atomic             Coordinates (Angstroms)
 Number     Number       Type             X           Y           Z
 ---------------------------------------------------------------------
      1          8           0        0.000000    0.000000    0.745000
      2          8           0        0.000000    0.000000   -0.745000
 ---------------------------------------------------------------------

 SCF Done:  E(UHF) =  -149.601149790     A.U. after   11 cycles
 E2 =    -0.4878058639D+00 EUMP2 =    -0.15008895565392D+03
 CCSD(T)
 CCSD(T)= -0.15010638176D+03

 Unable to determine electronic state:  an orbital has unidentified symmetry.
 Alpha  occ. eigenvalues --  -20.30806 -20.30781  -1.08984  -0.83067  -0.34168
 Alpha  occ. eigenvalues --   -0.28847  -0.24913  -0.19466  -0.13529
 Alpha virt. eigenvalues --    0.53684   1.00644   1.02845   1.05639   1.09613
 Alpha virt. eigenvalues --    1.11094   1.13653   1.27716   1.74264   1.81467
 Alpha virt. eigenvalues --    1.83984   1.91773   1.91781   2.15769   2.15801

  Beta  occ. eigenvalues --  -20.28162 -20.28126  -1.00976  -0.72319  -0.26403
  Beta  occ. eigenvalues --   -0.22877  -0.10400  -0.08620
  Beta virt. eigenvalues --    0.39817   0.56820   1.01983   1.06656   1.10663
  Beta virt. eigenvalues --    1.12270   1.14583   1.20281   1.28377   1.76357
  Beta virt. eigenvalues --    1.83930   1.85458   1.94976   1.94976   2.20537

 Mulliken charges and spin densities:
               1          2
     1  O   -0.500000   0.500000
     2  O   -0.500000   0.500000
 Sum of Mulliken charges =  -1.00000   1.00000

 Dipole moment (field-independent basis, Debye):
    X=             -0.0000    Y=              0.0000    Z=             -0.0000  Tot=              0.0000
 Quadrupole moment (field-independent basis, Debye-Ang):
   XX=            -12.0992   YY=            -12.9998   ZZ=            -15.2322
   XY=              0.0000   XZ=              0.0000   YZ=              0.0000

 3-0=-150.0769273\MP4SDQ=-150.0877247\CCSD=-150.0841165\CCSD(T)=-150.10
 Normal termination of Gaussian 16 at Fri Feb  9 18:02:37 2024.
