 Gaussian 16, Revision A.03,
 Gaussian 16:  ES64L-G16RevA.03 25-Dec-2016

 ------------------
 #p CCSD(T)/cc-pVTZ
 ------------------

 -----
 O2_28
 -----
 Symbolic Z-matrix:
 Charge = -1 Multiplicity = 2

                         Standard orientation:
 ---------------------------------------------------------------------
 Center     Atomic      Atomic             Coordinates (Angstroms)
 Number     Number       Type             X           Y           Z
 ---------------------------------------------------------------------
      1          8           0        0.000000    0.000000    0.820000
      2          8           0        0.000000    0.000000   -0.820000
 ---------------------------------------------------------------------

 SCF Done:  E(UHF) =  -149.558823904     A.U. after   12 cycles
 E2 =    -0.5110419194D+00 EUMP2 =    -0.15006986582296D+03
 CCSD(T)
 CCSD(T)= -0.15008374186D+03

 Unable to determine electronic state:  an orbital has unidentified symmetry.
 Alpha  occ. eigenvalues --  -20.32818 -20.32800  -1.04857  -0.86914  -0.32982
 Alpha  occ. eigenvalues --   -0.27603  -0.22750  -0.21607  -0.16802
 Alpha virt. eigenvalues --    0.44769   1.00062   1.01703   1.04520   1.10452
 Alpha virt. eigenvalues --    1.10824   1.12991   1.28717   1.69076   1.79845
 Alpha virt. eigenvalues --    1.82222   1.94531   1.94585   2.11235   2.11267

  Beta  occ. eigenvalues --  -20.30159 -20.30133  -0.96364  -0.76098  -0.25106
  Beta  occ. eigenvalues --   -0.19794  -0.13696  -0.06065
  Beta virt. eigenvalues --    0.35882   0.47868   1.01242   1.05571   1.11897
  Beta virt. eigenvalues --    1.12035   1.13906   1.19415   1.29470   1.71054
  Beta virt. eigenvalues --    1.82157   1.83201   1.97965   1.97994   2.15894

 Mulliken charges and spin densities:
               1          2
     1  O   -0.500000   0.500000
     2  O   -0.500000   0.500000
 Sum of Mulliken charges =  -1.00000   1.00000

 Dipole moment (field-independent basis, Debye):
    X=             -0.0000    Y=             -0.0000    Z=             -0.0000  Tot=              0.0000
 Quadrupole moment (field-independent basis, Debye-Ang):
   XX=            -13.1339   YY=            -12.2621   ZZ=            -15.4456
   XY=              0.0000   XZ=              0.0000   YZ=              0.0000

 3-0=-150.0469132\MP4SDQ=-150.062765\CCSD=-150.0569428\CCSD(T)=-150.083
 Normal termination of Gaussian 16 at Fri Feb  9 18:03:47 2024.
