 Gaussian 16, Revision A.03,
 Gaussian 16:  ES64L-G16RevA.03 25-Dec-2016

 ------------------
 #p CCSD(T)/cc-pVTZ
 ------------------

 -----
 O2_36
 -----
 Symbolic Z-matrix:
 Charge = -1 Multiplicity = 2

                         Standard orientation:
 ---------------------------------------------------------------------
 Center     Atomic      Atomic             Coordinates (Angstroms)
 Number     Number       Type             X           Y           Z
 ---------------------------------------------------------------------
      1          8           0        0.000000    0.000000    0.940000
      2          8           0        0.000000    0.000000   -0.940000
 ---------------------------------------------------------------------

 SCF Done:  E(UHF) =  -149.487333425     A.U. after   12 cycles
 E2 =    -0.5522456920D+00 EUMP2 =    -0.15003957911676D+03
 CCSD(T)
 CCSD(T)= -0.15004372708D+03

 Unable to determine electronic state:  an orbital has unidentified symmetry.
 Alpha  occ. eigenvalues --  -20.35212 -20.35201  -1.01430  -0.91423  -0.32293
 Alpha  occ. eigenvalues --   -0.26833  -0.26493  -0.20579  -0.17319
 Alpha virt. eigenvalues --    0.34483   0.99344   1.01066   1.02109   1.09408
 Alpha virt. eigenvalues --    1.11938   1.12366   1.28306   1.61852   1.82838
 Alpha virt. eigenvalues --    1.85173   1.92107   1.97636   1.98028   2.05892

  Beta  occ. eigenvalues --  -20.32553 -20.32536  -0.92423  -0.80658  -0.24263
  Beta  occ. eigenvalues --   -0.17539  -0.15662  -0.03443
  Beta virt. eigenvalues --    0.30836   0.37407   1.02221   1.03143   1.09879
  Beta virt. eigenvalues --    1.12849   1.13782   1.18209   1.29440   1.63698
  Beta virt. eigenvalues --    1.85174   1.85955   1.94137   2.01302   2.01470

 Mulliken charges and spin densities:
               1          2
     1  O   -0.500000   0.500000
     2  O   -0.500000   0.500000
 Sum of Mulliken charges =  -1.00000   1.00000

 Dipole moment (field-independent basis, Debye):
    X=             -0.0000    Y=             -0.0000    Z=             -0.0000  Tot=              0.0000
 Quadrupole moment (field-independent basis, Debye-Ang):
   XX=            -13.2680   YY=            -12.4158   ZZ=            -15.9742
   XY=              0.0000   XZ=              0.0000   YZ=              0.0000

 0=-149.9941377\MP4SDQ=-150.0178998\CCSD=-150.0088577\CCSD(T)=-150.0437
 Normal termination of Gaussian 16 at Fri Feb  9 18:05:29 2024.
