 Gaussian 16, Revision A.03,
 Gaussian 16:  ES64L-G16RevA.03 25-Dec-2016

 ------------------
 #p CCSD(T)/cc-pVTZ
 ------------------

 ----
 O2_3
 ----
 Symbolic Z-matrix:
 Charge = -1 Multiplicity = 2

                         Standard orientation:
 ---------------------------------------------------------------------
 Center     Atomic      Atomic             Coordinates (Angstroms)
 Number     Number       Type             X           Y           Z
 ---------------------------------------------------------------------
      1          8           0        0.000000    0.000000    0.445000
      2          8           0        0.000000    0.000000   -0.445000
 ---------------------------------------------------------------------

 SCF Done:  E(UHF) =  -149.157199131     A.U. after   11 cycles
 E2 =    -0.4271827438D+00 EUMP2 =    -0.14958438187466D+03
 CCSD(T)
 CCSD(T)= -0.14960295056D+03

 Unable to determine electronic state:  an orbital has unidentified symmetry.
 Alpha  occ. eigenvalues --  -20.21372 -20.20775  -1.60908  -0.61658  -0.56578
 Alpha  occ. eigenvalues --   -0.51623  -0.42521   0.08257   0.13538
 Alpha virt. eigenvalues --    0.77434   0.96514   0.98927   0.98983   1.15971
 Alpha virt. eigenvalues --    1.18971   1.26526   1.66276   1.79171   1.79205
 Alpha virt. eigenvalues --    1.86153   2.19828   2.23258   2.42821   2.42873

  Beta  occ. eigenvalues --  -20.19260 -20.18607  -1.57095  -0.52253  -0.49645
  Beta  occ. eigenvalues --   -0.38736  -0.38105   0.16210
  Beta virt. eigenvalues --    0.64319   0.78494   0.99423   0.99435   1.00154
  Beta virt. eigenvalues --    1.20173   1.27946   1.28106   1.68480   1.81631
  Beta virt. eigenvalues --    1.81655   1.90037   2.23662   2.27404   2.48009

 Mulliken charges and spin densities:
               1          2
     1  O   -0.500000   0.500000
     2  O   -0.500000   0.500000
 Sum of Mulliken charges =  -1.00000   1.00000

 Dipole moment (field-independent basis, Debye):
    X=             -0.0000    Y=             -0.0000    Z=              0.0000  Tot=              0.0000
 Quadrupole moment (field-independent basis, Debye-Ang):
   XX=            -10.9222   YY=            -12.2635   ZZ=            -14.9947
   XY=              0.0000   XZ=              0.0000   YZ=              0.0000

 -0=-149.5908055\MP4SDQ=-149.5917703\CCSD=-149.5915393\CCSD(T)=-149.602
 Normal termination of Gaussian 16 at Fri Feb  9 17:58:13 2024.
