 Gaussian 16, Revision A.03,
 Gaussian 16:  ES64L-G16RevA.03 25-Dec-2016

 ------------------
 #p CCSD(T)/cc-pVTZ
 ------------------

 -----
 O2_34
 -----
 Symbolic Z-matrix:
 Charge = -1 Multiplicity = 2

                         Standard orientation:
 ---------------------------------------------------------------------
 Center     Atomic      Atomic             Coordinates (Angstroms)
 Number     Number       Type             X           Y           Z
 ---------------------------------------------------------------------
      1          8           0        0.000000    0.000000    0.910000
      2          8           0        0.000000    0.000000   -0.910000
 ---------------------------------------------------------------------

 SCF Done:  E(UHF) =  -149.504707797     A.U. after   12 cycles
 E2 =    -0.5414822630D+00 EUMP2 =    -0.15004619006013D+03
 CCSD(T)
 CCSD(T)= -0.15005330962D+03

 Unable to determine electronic state:  an orbital has unidentified symmetry.
 Alpha  occ. eigenvalues --  -20.34696 -20.34683  -1.02026  -0.90460  -0.32369
 Alpha  occ. eigenvalues --   -0.26927  -0.25695  -0.19768  -0.18277
 Alpha virt. eigenvalues --    0.36667   0.99942   1.00708   1.02727   1.09679
 Alpha virt. eigenvalues --    1.11995   1.12209   1.28801   1.63510   1.81621
 Alpha virt. eigenvalues --    1.83951   1.95750   1.97051   1.98585   2.07025

  Beta  occ. eigenvalues --  -20.32035 -20.32016  -0.93124  -0.79669  -0.24374
  Beta  occ. eigenvalues --   -0.16710  -0.16597  -0.03972
  Beta virt. eigenvalues --    0.31976   0.39634   1.01858   1.03769   1.10470
  Beta virt. eigenvalues --    1.13120   1.13364   1.18503   1.29822   1.65383
  Beta virt. eigenvalues --    1.83929   1.84728   1.98681   2.00663   2.01227

 Mulliken charges and spin densities:
               1          2
     1  O   -0.500000   0.500000
     2  O   -0.500000   0.500000
 Sum of Mulliken charges =  -1.00000   1.00000

 Dipole moment (field-independent basis, Debye):
    X=             -0.0000    Y=             -0.0000    Z=              0.0000  Tot=              0.0000
 Quadrupole moment (field-independent basis, Debye-Ang):
   XX=            -12.3876   YY=            -13.2424   ZZ=            -15.8191
   XY=              0.0000   XZ=              0.0000   YZ=              0.0000

 3-0=-150.0070041\MP4SDQ=-150.0289378\CCSD=-150.0205236\CCSD(T)=-150.05
 Normal termination of Gaussian 16 at Fri Feb  9 18:05:03 2024.
