 Gaussian 16, Revision A.03,
 Gaussian 16:  ES64L-G16RevA.03 25-Dec-2016

 ------------------
 #p CCSD(T)/cc-pVTZ
 ------------------

 -----
 O2_30
 -----
 Symbolic Z-matrix:
 Charge = -1 Multiplicity = 2

                         Standard orientation:
 ---------------------------------------------------------------------
 Center     Atomic      Atomic             Coordinates (Angstroms)
 Number     Number       Type             X           Y           Z
 ---------------------------------------------------------------------
      1          8           0        0.000000    0.000000    0.850000
      2          8           0        0.000000    0.000000   -0.850000
 ---------------------------------------------------------------------

 SCF Done:  E(UHF) =  -149.540693200     A.U. after   12 cycles
 E2 =    -0.5208846360D+00 EUMP2 =    -0.15006157783577D+03
 CCSD(T)
 CCSD(T)= -0.15007353555D+03

 Unable to determine electronic state:  an orbital has unidentified symmetry.
 Alpha  occ. eigenvalues --  -20.33503 -20.33488  -1.03706  -0.88216  -0.32701
 Alpha  occ. eigenvalues --   -0.27299  -0.23836  -0.20419  -0.17891
 Alpha virt. eigenvalues --    0.41779   1.00178   1.01140   1.03952   1.10198
 Alpha virt. eigenvalues --    1.11232   1.12733   1.28940   1.67121   1.80047
 Alpha virt. eigenvalues --    1.82395   1.95419   1.95525   2.09690   2.09721

  Beta  occ. eigenvalues --  -20.30843 -20.30820  -0.95059  -0.77397  -0.24782
  Beta  occ. eigenvalues --   -0.18663  -0.14799  -0.05270
  Beta virt. eigenvalues --    0.34492   0.44836   1.01337   1.05004   1.11508
  Beta virt. eigenvalues --    1.12499   1.13645   1.19102   1.29767   1.69059
  Beta virt. eigenvalues --    1.82339   1.83263   1.98946   1.99009   2.12305

 Mulliken charges and spin densities:
               1          2
     1  O   -0.500000   0.500000
     2  O   -0.500000   0.500000
 Sum of Mulliken charges =  -1.00000   1.00000

 Dipole moment (field-independent basis, Debye):
    X=             -0.0000    Y=             -0.0000    Z=             -0.0000  Tot=              0.0000
 Quadrupole moment (field-independent basis, Debye-Ang):
   XX=            -12.3115   YY=            -13.1758   ZZ=            -15.5552
   XY=              0.0000   XZ=              0.0000   YZ=              0.0000

 -0=-150.0336105\MP4SDQ=-150.0515407\CCSD=-150.0447943\CCSD(T)=-150.073
 Normal termination of Gaussian 16 at Fri Feb  9 18:04:12 2024.
