 Gaussian 16, Revision A.03,
 Gaussian 16:  ES64L-G16RevA.03 25-Dec-2016

 ------------------
 #p CCSD(T)/cc-pVTZ
 ------------------

 -----
 O2_35
 -----
 Symbolic Z-matrix:
 Charge = -1 Multiplicity = 2

                         Standard orientation:
 ---------------------------------------------------------------------
 Center     Atomic      Atomic             Coordinates (Angstroms)
 Number     Number       Type             X           Y           Z
 ---------------------------------------------------------------------
      1          8           0        0.000000    0.000000    0.925000
      2          8           0        0.000000    0.000000   -0.925000
 ---------------------------------------------------------------------

 SCF Done:  E(UHF) =  -149.495951248     A.U. after   12 cycles
 E2 =    -0.5468245392D+00 EUMP2 =    -0.15004277578698D+03
 CCSD(T)
 CCSD(T)= -0.15004845818D+03

 Unable to determine electronic state:  an orbital has unidentified symmetry.
 Alpha  occ. eigenvalues --  -20.34960 -20.34948  -1.01711  -0.90954  -0.32325
 Alpha  occ. eigenvalues --   -0.26874  -0.26104  -0.20183  -0.17789
 Alpha virt. eigenvalues --    0.35547   0.99641   1.00881   1.02417   1.09545
 Alpha virt. eigenvalues --    1.12075   1.12181   1.28596   1.62669   1.82202
 Alpha virt. eigenvalues --    1.84534   1.94109   1.97358   1.98000   2.06443

  Beta  occ. eigenvalues --  -20.32300 -20.32282  -0.92754  -0.80175  -0.24312
  Beta  occ. eigenvalues --   -0.17134  -0.16121  -0.03699
  Beta virt. eigenvalues --    0.31397   0.38492   1.02033   1.03455   1.10178
  Beta virt. eigenvalues --    1.12985   1.13574   1.18356   1.29673   1.64528
  Beta virt. eigenvalues --    1.84523   1.85310   1.96382   2.00998   2.01251

 Mulliken charges and spin densities:
               1          2
     1  O   -0.500000   0.500000
     2  O   -0.500000   0.500000
 Sum of Mulliken charges =  -1.00000   1.00000

 Dipole moment (field-independent basis, Debye):
    X=             -0.0000    Y=              0.0000    Z=             -0.0000  Tot=              0.0000
 Quadrupole moment (field-independent basis, Debye-Ang):
   XX=            -12.4025   YY=            -13.2558   ZZ=            -15.8947
   XY=              0.0000   XZ=              0.0000   YZ=              0.0000

 3-0=-150.0005192\MP4SDQ=-150.0233867\CCSD=-150.0146346\CCSD(T)=-150.04
 Normal termination of Gaussian 16 at Fri Feb  9 18:05:16 2024.
