 Gaussian 16, Revision A.03,
 Gaussian 16:  ES64L-G16RevA.03 25-Dec-2016

 ------------------
 #p CCSD(T)/cc-pVTZ
 ------------------

 -----
 O2_31
 -----
 Symbolic Z-matrix:
 Charge = -1 Multiplicity = 2

                         Standard orientation:
 ---------------------------------------------------------------------
 Center     Atomic      Atomic             Coordinates (Angstroms)
 Number     Number       Type             X           Y           Z
 ---------------------------------------------------------------------
      1          8           0        0.000000    0.000000    0.865000
      2          8           0        0.000000    0.000000   -0.865000
 ---------------------------------------------------------------------

 SCF Done:  E(UHF) =  -149.531606984     A.U. after   12 cycles
 E2 =    -0.5259196517D+00 EUMP2 =    -0.15005752663611D+03
 CCSD(T)
 CCSD(T)= -0.15006840496D+03

 Unable to determine electronic state:  an orbital has unidentified symmetry.
 Alpha  occ. eigenvalues --  -20.33823 -20.33809  -1.03215  -0.88820  -0.32592
 Alpha  occ. eigenvalues --   -0.27179  -0.24337  -0.19855  -0.18396
 Alpha virt. eigenvalues --    0.40398   1.00280   1.00845   1.03653   1.10070
 Alpha virt. eigenvalues --    1.11427   1.12603   1.28990   1.66180   1.80307
 Alpha virt. eigenvalues --    1.82646   1.95795   1.95952   2.06608   2.08971

  Beta  occ. eigenvalues --  -20.31162 -20.31140  -0.94498  -0.78005  -0.24653
  Beta  occ. eigenvalues --   -0.18122  -0.15312  -0.04911
  Beta virt. eigenvalues --    0.33831   0.43433   1.01433   1.04704   1.11276
  Beta virt. eigenvalues --    1.12721   1.13515   1.18949   1.29860   1.68101
  Beta virt. eigenvalues --    1.82597   1.83477   1.99371   1.99470   2.08741

 Mulliken charges and spin densities:
               1          2
     1  O   -0.500000   0.500000
     2  O   -0.500000   0.500000
 Sum of Mulliken charges =  -1.00000   1.00000

 Dipole moment (field-independent basis, Debye):
    X=             -0.0000    Y=             -0.0000    Z=             -0.0000  Tot=              0.0000
 Quadrupole moment (field-independent basis, Debye-Ang):
   XX=            -13.1945   YY=            -12.3333   ZZ=            -15.6155
   XY=              0.0000   XZ=              0.0000   YZ=              0.0000

 -0=-150.0269074\MP4SDQ=-150.0458665\CCSD=-150.0386707\CCSD(T)=-150.068
 Normal termination of Gaussian 16 at Fri Feb  9 18:04:25 2024.
