 Gaussian 16, Revision A.03,
 Gaussian 16:  ES64L-G16RevA.03 25-Dec-2016

 ------------------
 #p CCSD(T)/cc-pVTZ
 ------------------

 -----
 O2_39
 -----
 Symbolic Z-matrix:
 Charge = -1 Multiplicity = 2

                         Standard orientation:
 ---------------------------------------------------------------------
 Center     Atomic      Atomic             Coordinates (Angstroms)
 Number     Number       Type             X           Y           Z
 ---------------------------------------------------------------------
      1          8           0        0.000000    0.000000    0.985000
      2          8           0        0.000000    0.000000   -0.985000
 ---------------------------------------------------------------------

 SCF Done:  E(UHF) =  -149.462445660     A.U. after   12 cycles
 E2 =    -0.5689933763D+00 EUMP2 =    -0.15003143903648D+03
 CCSD(T)
 CCSD(T)= -0.15003037205D+03

 Unable to determine electronic state:  an orbital has unidentified symmetry.
 Alpha  occ. eigenvalues --  -20.35900 -20.35890  -1.00770  -0.92696  -0.32258
 Alpha  occ. eigenvalues --   -0.27551  -0.26777  -0.21661  -0.16015
 Alpha virt. eigenvalues --    0.31592   0.98493   1.01224   1.01671   1.08985
 Alpha virt. eigenvalues --    1.11515   1.12911   1.26860   1.59533   1.84964
 Alpha virt. eigenvalues --    1.87268   1.87318   1.98307   1.98520   2.04417

  Beta  occ. eigenvalues --  -20.33245 -20.33231  -0.91627  -0.81980  -0.24185
  Beta  occ. eigenvalues --   -0.18649  -0.14379  -0.02772
  Beta virt. eigenvalues --    0.29254   0.34456   1.02243   1.02839   1.08973
  Beta virt. eigenvalues --    1.12429   1.14391   1.17766   1.28157   1.61345
  Beta virt. eigenvalues --    1.87354   1.88143   1.88977   2.02041   2.02138

 Mulliken charges and spin densities:
               1          2
     1  O   -0.500000   0.500000
     2  O   -0.500000   0.500000
 Sum of Mulliken charges =  -1.00000   1.00000

 Dipole moment (field-independent basis, Debye):
    X=             -0.0000    Y=             -0.0000    Z=              0.0000  Tot=              0.0000
 Quadrupole moment (field-independent basis, Debye-Ang):
   XX=            -12.4477   YY=            -13.2984   ZZ=            -16.2364
   XY=              0.0000   XZ=              0.0000   YZ=              0.0000

 0=-149.9757126\MP4SDQ=-150.0018593\CCSD=-149.992326\CCSD(T)=-150.03037
 Normal termination of Gaussian 16 at Fri Feb  9 18:06:08 2024.
