 Gaussian 16, Revision A.03,
 Gaussian 16:  ES64L-G16RevA.03 25-Dec-2016

 ------------------
 #p CCSD(T)/cc-pVTZ
 ------------------

 -----
 O2_37
 -----
 Symbolic Z-matrix:
 Charge = -1 Multiplicity = 2

                         Standard orientation:
 ---------------------------------------------------------------------
 Center     Atomic      Atomic             Coordinates (Angstroms)
 Number     Number       Type             X           Y           Z
 ---------------------------------------------------------------------
      1          8           0        0.000000    0.000000    0.955000
      2          8           0        0.000000    0.000000   -0.955000
 ---------------------------------------------------------------------

 SCF Done:  E(UHF) =  -149.478869117     A.U. after   12 cycles
 E2 =    -0.5577467884D+00 EUMP2 =    -0.15003661590563D+03
 CCSD(T)
 CCSD(T)= -0.15003912932D+03

 Unable to determine electronic state:  an orbital has unidentified symmetry.
 Alpha  occ. eigenvalues --  -20.35452 -20.35441  -1.01182  -0.91869  -0.32271
 Alpha  occ. eigenvalues --   -0.26863  -0.26804  -0.20956  -0.16867
 Alpha virt. eigenvalues --    0.33471   0.99053   1.01260   1.01807   1.09270
 Alpha virt. eigenvalues --    1.11800   1.12549   1.27924   1.61058   1.83517
 Alpha virt. eigenvalues --    1.85857   1.90243   1.97887   1.98179   2.05372

  Beta  occ. eigenvalues --  -20.32795 -20.32779  -0.92126  -0.81119  -0.24227
  Beta  occ. eigenvalues --   -0.17926  -0.15219  -0.03205
  Beta virt. eigenvalues --    0.30292   0.36375   1.02419   1.02836   1.09576
  Beta virt. eigenvalues --    1.12711   1.13988   1.18062   1.29113   1.62892
  Beta virt. eigenvalues --    1.85870   1.86650   1.92137   2.01577   2.01708

 Mulliken charges and spin densities:
               1          2
     1  O   -0.500000   0.500000
     2  O   -0.500000   0.500000
 Sum of Mulliken charges =  -1.00000   1.00000

 Dipole moment (field-independent basis, Debye):
    X=             -0.0000    Y=             -0.0000    Z=             -0.0000  Tot=              0.0000
 Quadrupole moment (field-independent basis, Debye-Ang):
   XX=            -12.4278   YY=            -13.2792   ZZ=            -16.0577
   XY=              0.0000   XZ=              0.0000   YZ=              0.0000

 3-0=-149.9878712\MP4SDQ=-150.0124823\CCSD=-150.0032069\CCSD(T)=-150.03
 Normal termination of Gaussian 16 at Fri Feb  9 18:05:42 2024.
