 Gaussian 16, Revision A.03,
 Gaussian 16:  ES64L-G16RevA.03 25-Dec-2016

 ------------------
 #p CCSD(T)/cc-pVTZ
 ------------------

 -----
 O2_38
 -----
 Symbolic Z-matrix:
 Charge = -1 Multiplicity = 2

                         Standard orientation:
 ---------------------------------------------------------------------
 Center     Atomic      Atomic             Coordinates (Angstroms)
 Number     Number       Type             X           Y           Z
 ---------------------------------------------------------------------
      1          8           0        0.000000    0.000000    0.970000
      2          8           0        0.000000    0.000000   -0.970000
 ---------------------------------------------------------------------

 SCF Done:  E(UHF) =  -149.470570126     A.U. after   12 cycles
 E2 =    -0.5633289609D+00 EUMP2 =    -0.15003389908683D+03
 CCSD(T)
 CCSD(T)= -0.15003467506D+03

 Unable to determine electronic state:  an orbital has unidentified symmetry.
 Alpha  occ. eigenvalues --  -20.35681 -20.35671  -1.00963  -0.92293  -0.32260
 Alpha  occ. eigenvalues --   -0.27215  -0.26786  -0.21317  -0.16432
 Alpha virt. eigenvalues --    0.32509   0.98768   1.01462   1.01511   1.09128
 Alpha virt. eigenvalues --    1.11659   1.12731   1.27443   1.60285   1.84229
 Alpha virt. eigenvalues --    1.86576   1.88621   1.98110   1.98352   2.04880

  Beta  occ. eigenvalues --  -20.33025 -20.33010  -0.91862  -0.81560  -0.24201
  Beta  occ. eigenvalues --   -0.18296  -0.14791  -0.02981
  Beta virt. eigenvalues --    0.29765   0.35392   1.02535   1.02625   1.09274
  Beta virt. eigenvalues --    1.12571   1.14191   1.17914   1.28687   1.62108
  Beta virt. eigenvalues --    1.86600   1.87383   1.90414   2.01823   2.01933

 Mulliken charges and spin densities:
               1          2
     1  O   -0.500000   0.500000
     2  O   -0.500000   0.500000
 Sum of Mulliken charges =  -1.00000   1.00000

 Dipole moment (field-independent basis, Debye):
    X=             -0.0000    Y=              0.0000    Z=              0.0000  Tot=              0.0000
 Quadrupole moment (field-independent basis, Debye-Ang):
   XX=            -13.2893   YY=            -12.4384   ZZ=            -16.1451
   XY=              0.0000   XZ=              0.0000   YZ=              0.0000

 3-0=-149.9817277\MP4SDQ=-150.0071358\CCSD=-149.9976935\CCSD(T)=-150.03
 Normal termination of Gaussian 16 at Fri Feb  9 18:05:55 2024.
