 Gaussian 16, Revision A.03,
 Gaussian 16:  ES64L-G16RevA.03 25-Dec-2016

 ------------------
 #p CCSD(T)/cc-pVTZ
 ------------------

 -----
 O2_32
 -----
 Symbolic Z-matrix:
 Charge = -1 Multiplicity = 2

                         Standard orientation:
 ---------------------------------------------------------------------
 Center     Atomic      Atomic             Coordinates (Angstroms)
 Number     Number       Type             X           Y           Z
 ---------------------------------------------------------------------
      1          8           0        0.000000    0.000000    0.880000
      2          8           0        0.000000    0.000000   -0.880000
 ---------------------------------------------------------------------

 SCF Done:  E(UHF) =  -149.522560166     A.U. after   12 cycles
 E2 =    -0.5310305812D+00 EUMP2 =    -0.15005359074744D+03
 CCSD(T)
 CCSD(T)= -0.15006330506D+03

 Unable to determine electronic state:  an orbital has unidentified symmetry.
 Alpha  occ. eigenvalues --  -20.34128 -20.34114  -1.02774  -0.89394  -0.32501
 Alpha  occ. eigenvalues --   -0.27079  -0.24813  -0.19310  -0.18876
 Alpha virt. eigenvalues --    0.39089   1.00404   1.00546   1.03347   1.09941
 Alpha virt. eigenvalues --    1.11619   1.12473   1.28989   1.65265   1.80663
 Alpha virt. eigenvalues --    1.82996   1.96094   1.96348   2.03402   2.08289

  Beta  occ. eigenvalues --  -20.31466 -20.31446  -0.93992  -0.78585  -0.24543
  Beta  occ. eigenvalues --   -0.17597  -0.15800  -0.04577
  Beta virt. eigenvalues --    0.33192   0.42101   1.01555   1.04396   1.11023
  Beta virt. eigenvalues --    1.12938   1.13384   1.18799   1.29906   1.67169
  Beta virt. eigenvalues --    1.82955   1.83799   1.99720   1.99899   2.05444

 Mulliken charges and spin densities:
               1          2
     1  O   -0.500000   0.500000
     2  O   -0.500000   0.500000
 Sum of Mulliken charges =  -1.00000   1.00000

 Dipole moment (field-independent basis, Debye):
    X=             -0.0000    Y=             -0.0000    Z=             -0.0000  Tot=              0.0000
 Quadrupole moment (field-independent basis, Debye-Ang):
   XX=            -12.3531   YY=            -13.2118   ZZ=            -15.6795
   XY=              0.0000   XZ=              0.0000   YZ=              0.0000

 3-0=-150.0202199\MP4SDQ=-150.0401933\CCSD=-150.0325648\CCSD(T)=-150.06
 Normal termination of Gaussian 16 at Fri Feb  9 18:04:37 2024.
