 Gaussian 16, Revision A.03,
 Gaussian 16:  ES64L-G16RevA.03 25-Dec-2016

 ------------------
 #p CCSD(T)/cc-pVTZ
 ------------------

 -----
 O2_49
 -----
 Symbolic Z-matrix:
 Charge = -1 Multiplicity = 2

                         Standard orientation:
 ---------------------------------------------------------------------
 Center     Atomic      Atomic             Coordinates (Angstroms)
 Number     Number       Type             X           Y           Z
 ---------------------------------------------------------------------
      1          8           0        0.000000    0.000000    1.135000
      2          8           0        0.000000    0.000000   -1.135000
 ---------------------------------------------------------------------

 SCF Done:  E(UHF) =  -149.391567590     A.U. after   12 cycles
 E2 =    -0.6303798467D+00 EUMP2 =    -0.15002194743655D+03
 CCSD(T)
 CCSD(T)= -0.14999618980D+03

 Unable to determine electronic state:  an orbital has unidentified symmetry.
 Alpha  occ. eigenvalues --  -20.37609 -20.37602  -0.99857  -0.95798  -0.32549
 Alpha  occ. eigenvalues --   -0.30166  -0.27029  -0.24374  -0.12653
 Alpha virt. eigenvalues --    0.24387   0.96402   0.99023   1.03922   1.07371
 Alpha virt. eigenvalues --    1.09908   1.14430   1.16813   1.52942   1.85869
 Alpha virt. eigenvalues --    1.91872   1.94299   1.99136   1.99319   2.01065

  Beta  occ. eigenvalues --  -20.34981 -20.34972  -0.90414  -0.85294  -0.24389
  Beta  occ. eigenvalues --   -0.21461  -0.11008  -0.01286
  Beta virt. eigenvalues --    0.24901   0.27096   1.00001   1.05161   1.06477
  Beta virt. eigenvalues --    1.10836   1.16000   1.16173   1.18412   1.54693
  Beta virt. eigenvalues --    1.87283   1.94437   1.95371   2.03004   2.03071

 Mulliken charges and spin densities:
               1          2
     1  O   -0.500000   0.500000
     2  O   -0.500000   0.500000
 Sum of Mulliken charges =  -1.00000   1.00000

 Dipole moment (field-independent basis, Debye):
    X=             -0.0000    Y=             -0.0000    Z=             -0.0000  Tot=              0.0000
 Quadrupole moment (field-independent basis, Debye-Ang):
   XX=            -12.4891   YY=            -13.3487   ZZ=            -17.3621
   XY=              0.0000   XZ=              0.0000   YZ=              0.0000

 0=-149.9223329\MP4SDQ=-149.9512137\CCSD=-149.9473974\CCSD(T)=-149.9961
 Normal termination of Gaussian 16 at Fri Feb  9 18:08:22 2024.
