 Gaussian 16, Revision A.03,
 Gaussian 16:  ES64L-G16RevA.03 25-Dec-2016

 ------------------
 #p CCSD(T)/cc-pVTZ
 ------------------

 -----
 O2_46
 -----
 Symbolic Z-matrix:
 Charge = -1 Multiplicity = 2

                         Standard orientation:
 ---------------------------------------------------------------------
 Center     Atomic      Atomic             Coordinates (Angstroms)
 Number     Number       Type             X           Y           Z
 ---------------------------------------------------------------------
      1          8           0        0.000000    0.000000    1.090000
      2          8           0        0.000000    0.000000   -1.090000
 ---------------------------------------------------------------------

 SCF Done:  E(UHF) =  -149.410834833     A.U. after   12 cycles
 E2 =    -0.6110373262D+00 EUMP2 =    -0.15002187215934D+03
 CCSD(T)
 CCSD(T)= -0.15000476349D+03

 Unable to determine electronic state:  an orbital has unidentified symmetry.
 Alpha  occ. eigenvalues --  -20.37174 -20.37167  -0.99982  -0.95019  -0.32419
 Alpha  occ. eigenvalues --   -0.29502  -0.26905  -0.23679  -0.13520
 Alpha virt. eigenvalues --    0.26235   0.96888   0.99539   1.03232   1.07892
 Alpha virt. eigenvalues --    1.10427   1.14041   1.20339   1.54769   1.84567
 Alpha virt. eigenvalues --    1.90048   1.92455   1.99069   1.99239   2.01861

  Beta  occ. eigenvalues --  -20.34537 -20.34526  -0.90608  -0.84448  -0.24276
  Beta  occ. eigenvalues --   -0.20737  -0.11888  -0.01636
  Beta virt. eigenvalues --    0.26077   0.28985   1.00527   1.04447   1.07098
  Beta virt. eigenvalues --    1.11351   1.15629   1.16679   1.21866   1.56531
  Beta virt. eigenvalues --    1.85989   1.92567   1.93454   2.02909   2.02977

 Mulliken charges and spin densities:
               1          2
     1  O   -0.500000   0.500000
     2  O   -0.500000   0.500000
 Sum of Mulliken charges =  -1.00000   1.00000

 Dipole moment (field-independent basis, Debye):
    X=             -0.0000    Y=              0.0000    Z=              0.0000  Tot=              0.0000
 Quadrupole moment (field-independent basis, Debye-Ang):
   XX=            -12.4846   YY=            -13.3399   ZZ=            -16.9843
   XY=              0.0000   XZ=              0.0000   YZ=              0.0000

 -0=-149.9371898\MP4SDQ=-149.9663228\CCSD=-149.9591932\CCSD(T)=-150.004
 Normal termination of Gaussian 16 at Fri Feb  9 18:07:42 2024.
