 Gaussian 16, Revision A.03,
 Gaussian 16:  ES64L-G16RevA.03 25-Dec-2016

 ------------------
 #p CCSD(T)/cc-pVTZ
 ------------------

 -----
 O2_47
 -----
 Symbolic Z-matrix:
 Charge = -1 Multiplicity = 2

                         Standard orientation:
 ---------------------------------------------------------------------
 Center     Atomic      Atomic             Coordinates (Angstroms)
 Number     Number       Type             X           Y           Z
 ---------------------------------------------------------------------
      1          8           0        0.000000    0.000000    1.105000
      2          8           0        0.000000    0.000000   -1.105000
 ---------------------------------------------------------------------

 SCF Done:  E(UHF) =  -149.404226053     A.U. after   12 cycles
 E2 =    -0.6173953852D+00 EUMP2 =    -0.15002162143842D+03
 CCSD(T)
 CCSD(T)= -0.15000175133D+03

 Unable to determine electronic state:  an orbital has unidentified symmetry.
 Alpha  occ. eigenvalues --  -20.37325 -20.37318  -0.99929  -0.95291  -0.32460
 Alpha  occ. eigenvalues --   -0.29733  -0.26943  -0.23921  -0.13219
 Alpha virt. eigenvalues --    0.25594   0.96712   0.99353   1.03462   1.07722
 Alpha virt. eigenvalues --    1.10258   1.14177   1.19180   1.54149   1.84901
 Alpha virt. eigenvalues --    1.90690   1.93105   1.99105   1.99278   2.01579

  Beta  occ. eigenvalues --  -20.34691 -20.34681  -0.90531  -0.84742  -0.24310
  Beta  occ. eigenvalues --   -0.20989  -0.11583  -0.01512
  Beta virt. eigenvalues --    0.25674   0.28330   1.00337   1.04684   1.06877
  Beta virt. eigenvalues --    1.11183   1.15772   1.16514   1.20725   1.55906
  Beta virt. eigenvalues --    1.86315   1.93226   1.94128   2.02955   2.03023

 Mulliken charges and spin densities:
               1          2
     1  O   -0.500000   0.500000
     2  O   -0.500000   0.500000
 Sum of Mulliken charges =  -1.00000   1.00000

 Dipole moment (field-independent basis, Debye):
    X=             -0.0000    Y=             -0.0000    Z=              0.0000  Tot=              0.0000
 Quadrupole moment (field-independent basis, Debye-Ang):
   XX=            -13.3433   YY=            -12.4867   ZZ=            -17.1065
   XY=              0.0000   XZ=              0.0000   YZ=              0.0000

 3-0=-149.9321472\MP4SDQ=-149.9613159\CCSD=-149.9551051\CCSD(T)=-150.00
 Normal termination of Gaussian 16 at Fri Feb  9 18:07:56 2024.
