 Gaussian 16, Revision A.03,
 Gaussian 16:  ES64L-G16RevA.03 25-Dec-2016

 ------------------
 #p CCSD(T)/cc-pVTZ
 ------------------

 -----
 O2_40
 -----
 Symbolic Z-matrix:
 Charge = -1 Multiplicity = 2

                         Standard orientation:
 ---------------------------------------------------------------------
 Center     Atomic      Atomic             Coordinates (Angstroms)
 Number     Number       Type             X           Y           Z
 ---------------------------------------------------------------------
      1          8           0        0.000000    0.000000    1.000000
      2          8           0        0.000000    0.000000   -1.000000
 ---------------------------------------------------------------------

 SCF Done:  E(UHF) =  -149.454502686     A.U. after   12 cycles
 E2 =    -0.5747412032D+00 EUMP2 =    -0.15002924388922D+03
 CCSD(T)
 CCSD(T)= -0.15002622598D+03

 Unable to determine electronic state:  an orbital has unidentified symmetry.
 Alpha  occ. eigenvalues --  -20.36108 -20.36099  -1.00601  -0.93080  -0.32263
 Alpha  occ. eigenvalues --   -0.27870  -0.26776  -0.21989  -0.15613
 Alpha virt. eigenvalues --    0.30718   0.98227   1.00946   1.01884   1.08838
 Alpha virt. eigenvalues --    1.11369   1.13087   1.26177   1.58801   1.85712
 Alpha virt. eigenvalues --    1.86185   1.88073   1.98480   1.98674   2.03981

  Beta  occ. eigenvalues --  -20.33456 -20.33442  -0.91418  -0.82382  -0.24178
  Beta  occ. eigenvalues --   -0.18988  -0.13982  -0.02577
  Beta virt. eigenvalues --    0.28759   0.33564   1.01961   1.03058   1.08678
  Beta virt. eigenvalues --    1.12284   1.14587   1.17616   1.27522   1.60603
  Beta virt. eigenvalues --    1.87824   1.88121   1.88921   2.02233   2.02321

 Mulliken charges and spin densities:
               1          2
     1  O   -0.500000   0.500000
     2  O   -0.500000   0.500000
 Sum of Mulliken charges =  -1.00000   1.00000

 Dipole moment (field-independent basis, Debye):
    X=             -0.0000    Y=             -0.0000    Z=             -0.0000  Tot=              0.0000
 Quadrupole moment (field-independent basis, Debye-Ang):
   XX=            -13.3067   YY=            -12.4559   ZZ=            -16.3317
   XY=              0.0000   XZ=              0.0000   YZ=              0.0000

 0=-149.9698287\MP4SDQ=-149.9966491\CCSD=-149.9871112\CCSD(T)=-150.0262
 Normal termination of Gaussian 16 at Fri Feb  9 18:06:21 2024.
