 Gaussian 16, Revision A.03,
 Gaussian 16:  ES64L-G16RevA.03 25-Dec-2016

 ------------------
 #p CCSD(T)/cc-pVTZ
 ------------------

 -----
 O2_48
 -----
 Symbolic Z-matrix:
 Charge = -1 Multiplicity = 2

                         Standard orientation:
 ---------------------------------------------------------------------
 Center     Atomic      Atomic             Coordinates (Angstroms)
 Number     Number       Type             X           Y           Z
 ---------------------------------------------------------------------
      1          8           0        0.000000    0.000000    1.120000
      2          8           0        0.000000    0.000000   -1.120000
 ---------------------------------------------------------------------

 SCF Done:  E(UHF) =  -149.397804558     A.U. after   12 cycles
 E2 =    -0.6238428458D+00 EUMP2 =    -0.15002164740373D+03
 CCSD(T)
 CCSD(T)= -0.14999889458D+03

 Unable to determine electronic state:  an orbital has unidentified symmetry.
 Alpha  occ. eigenvalues --  -20.37470 -20.37463  -0.99888  -0.95550  -0.32503
 Alpha  occ. eigenvalues --   -0.29954  -0.26984  -0.24152  -0.12930
 Alpha virt. eigenvalues --    0.24979   0.96550   0.99181   1.03692   1.07548
 Alpha virt. eigenvalues --    1.10085   1.14307   1.18002   1.53540   1.85343
 Alpha virt. eigenvalues --    1.91299   1.93720   1.99127   1.99304   2.01314

  Beta  occ. eigenvalues --  -20.34839 -20.34829  -0.90467  -0.85024  -0.24348
  Beta  occ. eigenvalues --   -0.21230  -0.11290  -0.01395
  Beta virt. eigenvalues --    0.25282   0.27701   1.00162   1.04922   1.06670
  Beta virt. eigenvalues --    1.11011   1.15899   1.16345   1.19566   1.55294
  Beta virt. eigenvalues --    1.86754   1.93850   1.94768   2.02987   2.03054

 Mulliken charges and spin densities:
               1          2
     1  O   -0.500000   0.500000
     2  O   -0.500000   0.500000
 Sum of Mulliken charges =  -1.00000   1.00000

 Dipole moment (field-independent basis, Debye):
    X=             -0.0000    Y=             -0.0000    Z=             -0.0000  Tot=              0.0000
 Quadrupole moment (field-independent basis, Debye-Ang):
   XX=            -13.3462   YY=            -12.4881   ZZ=            -17.2324
   XY=              0.0000   XZ=              0.0000   YZ=              0.0000

 3-0=-149.9271981\MP4SDQ=-149.9562849\CCSD=-149.9511741\CCSD(T)=-149.99
 Normal termination of Gaussian 16 at Fri Feb  9 18:08:09 2024.
