 Gaussian 16, Revision A.03,
 Gaussian 16:  ES64L-G16RevA.03 25-Dec-2016

 ------------------
 #p CCSD(T)/cc-pVTZ
 ------------------

 -----
 O2_42
 -----
 Symbolic Z-matrix:
 Charge = -1 Multiplicity = 2

                         Standard orientation:
 ---------------------------------------------------------------------
 Center     Atomic      Atomic             Coordinates (Angstroms)
 Number     Number       Type             X           Y           Z
 ---------------------------------------------------------------------
      1          8           0        0.000000    0.000000    1.030000
      2          8           0        0.000000    0.000000   -1.030000
 ---------------------------------------------------------------------

 SCF Done:  E(UHF) =  -149.439179678     A.U. after   12 cycles
 E2 =    -0.5864915735D+00 EUMP2 =    -0.15002567125131D+03
 CCSD(T)
 CCSD(T)= -0.15001841832D+03

 Unable to determine electronic state:  an orbital has unidentified symmetry.
 Alpha  occ. eigenvalues --  -20.36496 -20.36488  -1.00327  -0.93791  -0.32295
 Alpha  occ. eigenvalues --   -0.28466  -0.26797  -0.22603  -0.14857
 Alpha virt. eigenvalues --    0.29089   0.97729   1.00424   1.02324   1.08536
 Alpha virt. eigenvalues --    1.11068   1.13427   1.24524   1.57392   1.84794
 Alpha virt. eigenvalues --    1.87215   1.89591   1.98756   1.98931   2.03185

  Beta  occ. eigenvalues --  -20.33849 -20.33836  -0.91071  -0.83133  -0.24186
  Beta  occ. eigenvalues --   -0.19621  -0.13230  -0.02222
  Beta virt. eigenvalues --    0.27811   0.31900   1.01429   1.03511   1.08109
  Beta virt. eigenvalues --    1.11985   1.14963   1.17313   1.25951   1.59178
  Beta virt. eigenvalues --    1.86324   1.89662   1.90487   2.02543   2.02620

 Mulliken charges and spin densities:
               1          2
     1  O   -0.500000   0.500000
     2  O   -0.500000   0.500000
 Sum of Mulliken charges =  -1.00000   1.00000

 Dipole moment (field-independent basis, Debye):
    X=             -0.0000    Y=             -0.0000    Z=             -0.0000  Tot=              0.0000
 Quadrupole moment (field-independent basis, Debye-Ang):
   XX=            -12.4691   YY=            -13.3206   ZZ=            -16.5338
   XY=              0.0000   XZ=              0.0000   YZ=              0.0000

 -0=-149.9584549\MP4SDQ=-149.986402\CCSD=-149.9771567\CCSD(T)=-150.0184
 Normal termination of Gaussian 16 at Fri Feb  9 18:06:48 2024.
