 Gaussian 16, Revision A.03,
 Gaussian 16:  ES64L-G16RevA.03 25-Dec-2016

 ------------------
 #p CCSD(T)/cc-pVTZ
 ------------------

 -----
 O2_44
 -----
 Symbolic Z-matrix:
 Charge = -1 Multiplicity = 2

                         Standard orientation:
 ---------------------------------------------------------------------
 Center     Atomic      Atomic             Coordinates (Angstroms)
 Number     Number       Type             X           Y           Z
 ---------------------------------------------------------------------
      1          8           0        0.000000    0.000000    1.060000
      2          8           0        0.000000    0.000000   -1.060000
 ---------------------------------------------------------------------

 SCF Done:  E(UHF) =  -149.424622893     A.U. after   12 cycles
 E2 =    -0.5985882020D+00 EUMP2 =    -0.15002321109466D+03
 CCSD(T)
 CCSD(T)= -0.15001126567D+03

 Unable to determine electronic state:  an orbital has unidentified symmetry.
 Alpha  occ. eigenvalues --  -20.36850 -20.36843  -1.00125  -0.94435  -0.32348
 Alpha  occ. eigenvalues --   -0.29008  -0.26841  -0.23165  -0.14161
 Alpha virt. eigenvalues --    0.27600   0.97281   0.99954   1.02775   1.08221
 Alpha virt. eigenvalues --    1.10755   1.13747   1.22547   1.56051   1.84317
 Alpha virt. eigenvalues --    1.88675   1.91068   1.98949   1.99117   2.02481

  Beta  occ. eigenvalues --  -20.34208 -20.34196  -0.90806  -0.83820  -0.24221
  Beta  occ. eigenvalues --   -0.20203  -0.12533  -0.01910
  Beta virt. eigenvalues --    0.26919   0.30379   1.00950   1.03975   1.07579
  Beta virt. eigenvalues --    1.11675   1.15313   1.17001   1.24033   1.57823
  Beta virt. eigenvalues --    1.85776   1.91160   1.92015   2.02765   2.02836

 Mulliken charges and spin densities:
               1          2
     1  O   -0.500000   0.500000
     2  O   -0.500000   0.500000
 Sum of Mulliken charges =  -1.00000   1.00000

 Dipole moment (field-independent basis, Debye):
    X=             -0.0000    Y=             -0.0000    Z=             -0.0000  Tot=              0.0000
 Quadrupole moment (field-independent basis, Debye-Ang):
   XX=            -12.4785   YY=            -13.3315   ZZ=            -16.7514
   XY=              0.0000   XZ=              0.0000   YZ=              0.0000

 3-0=-149.947589\MP4SDQ=-149.9763245\CCSD=-149.9678502\CCSD(T)=-150.011
 Normal termination of Gaussian 16 at Fri Feb  9 18:07:15 2024.
