 Gaussian 16, Revision A.03,
 Gaussian 16:  ES64L-G16RevA.03 25-Dec-2016

 ------------------
 #p CCSD(T)/cc-pVTZ
 ------------------

 -----
 O2_43
 -----
 Symbolic Z-matrix:
 Charge = -1 Multiplicity = 2

                         Standard orientation:
 ---------------------------------------------------------------------
 Center     Atomic      Atomic             Coordinates (Angstroms)
 Number     Number       Type             X           Y           Z
 ---------------------------------------------------------------------
      1          8           0        0.000000    0.000000    1.045000
      2          8           0        0.000000    0.000000   -1.045000
 ---------------------------------------------------------------------

 SCF Done:  E(UHF) =  -149.431804975     A.U. after   12 cycles
 E2 =    -0.5924961635D+00 EUMP2 =    -0.15002430113855D+03
 CCSD(T)
 CCSD(T)= -0.15001476005D+03

 Unable to determine electronic state:  an orbital has unidentified symmetry.
 Alpha  occ. eigenvalues --  -20.36677 -20.36669  -1.00217  -0.94121  -0.32319
 Alpha  occ. eigenvalues --   -0.28743  -0.26816  -0.22890  -0.14502
 Alpha virt. eigenvalues --    0.28328   0.97498   1.00182   1.02548   1.08380
 Alpha virt. eigenvalues --    1.10913   1.13590   1.23571   1.56713   1.84452
 Alpha virt. eigenvalues --    1.87953   1.90338   1.98862   1.99033   2.02822

  Beta  occ. eigenvalues --  -20.34032 -20.34020  -0.90929  -0.83484  -0.24201
  Beta  occ. eigenvalues --   -0.19918  -0.12875  -0.02061
  Beta virt. eigenvalues --    0.27358   0.31122   1.01183   1.03742   1.07838
  Beta virt. eigenvalues --    1.11832   1.15142   1.17158   1.25030   1.58492
  Beta virt. eigenvalues --    1.85943   1.90420   1.91259   2.02664   2.02738

 Mulliken charges and spin densities:
               1          2
     1  O   -0.500000   0.500000
     2  O   -0.500000   0.500000
 Sum of Mulliken charges =  -1.00000   1.00000

 Dipole moment (field-independent basis, Debye):
    X=             -0.0000    Y=             -0.0000    Z=             -0.0000  Tot=              0.0000
 Quadrupole moment (field-independent basis, Debye-Ang):
   XX=            -12.4742   YY=            -13.3264   ZZ=            -16.6407
   XY=              0.0000   XZ=              0.0000   YZ=              0.0000

 -0=-149.9529606\MP4SDQ=-149.9813474\CCSD=-149.972422\CCSD(T)=-150.0147
 Normal termination of Gaussian 16 at Fri Feb  9 18:07:02 2024.
