 Gaussian 16, Revision A.03,
 Gaussian 16:  ES64L-G16RevA.03 25-Dec-2016

 ------------------
 #p CCSD(T)/cc-pVTZ
 ------------------

 ----
 O2_4
 ----
 Symbolic Z-matrix:
 Charge = -1 Multiplicity = 2

                         Standard orientation:
 ---------------------------------------------------------------------
 Center     Atomic      Atomic             Coordinates (Angstroms)
 Number     Number       Type             X           Y           Z
 ---------------------------------------------------------------------
      1          8           0        0.000000    0.000000    0.460000
      2          8           0        0.000000    0.000000   -0.460000
 ---------------------------------------------------------------------

 SCF Done:  E(UHF) =  -149.257901212     A.U. after   11 cycles
 E2 =    -0.4285689080D+00 EUMP2 =    -0.14968647011959D+03
 CCSD(T)
 CCSD(T)= -0.14970543808D+03

 Unable to determine electronic state:  an orbital has unidentified symmetry.
 Alpha  occ. eigenvalues --  -20.21298 -20.20848  -1.56416  -0.62631  -0.54046
 Alpha  occ. eigenvalues --   -0.49042  -0.41290   0.06087   0.11446
 Alpha virt. eigenvalues --    0.77379   0.97485   0.99687   0.99961   1.15499
 Alpha virt. eigenvalues --    1.18453   1.26381   1.64264   1.79507   1.79784
 Alpha virt. eigenvalues --    1.79817   2.17016   2.20414   2.41362   2.41407

  Beta  occ. eigenvalues --  -20.19117 -20.18615  -1.52313  -0.53113  -0.47006
  Beta  occ. eigenvalues --   -0.36987  -0.35608   0.14184
  Beta virt. eigenvalues --    0.62812   0.78459   1.00171   1.00443   1.01361
  Beta virt. eigenvalues --    1.19632   1.27395   1.27753   1.66636   1.82262
  Beta virt. eigenvalues --    1.82286   1.83228   2.20789   2.24494   2.46530

 Mulliken charges and spin densities:
               1          2
     1  O   -0.500000   0.500000
     2  O   -0.500000   0.500000
 Sum of Mulliken charges =  -1.00000   1.00000

 Dipole moment (field-independent basis, Debye):
    X=             -0.0000    Y=              0.0000    Z=              0.0000  Tot=              0.0000
 Quadrupole moment (field-independent basis, Debye-Ang):
   XX=            -10.9800   YY=            -12.2748   ZZ=            -14.9723
   XY=              0.0000   XZ=              0.0000   YZ=              0.0000

 -0=-149.6930344\MP4SDQ=-149.6940018\CCSD=-149.6937725\CCSD(T)=-149.705
 Normal termination of Gaussian 16 at Fri Feb  9 17:58:25 2024.
