 Gaussian 16, Revision A.03,
 Gaussian 16:  ES64L-G16RevA.03 25-Dec-2016

 ------------------
 #p CCSD(T)/cc-pVTZ
 ------------------

 -----
 O2_45
 -----
 Symbolic Z-matrix:
 Charge = -1 Multiplicity = 2

                         Standard orientation:
 ---------------------------------------------------------------------
 Center     Atomic      Atomic             Coordinates (Angstroms)
 Number     Number       Type             X           Y           Z
 ---------------------------------------------------------------------
      1          8           0        0.000000    0.000000    1.075000
      2          8           0        0.000000    0.000000   -1.075000
 ---------------------------------------------------------------------

 SCF Done:  E(UHF) =  -149.417633199     A.U. after   12 cycles
 E2 =    -0.6047684020D+00 EUMP2 =    -0.15002240160085D+03
 CCSD(T)
 CCSD(T)= -0.15000793411D+03

 Unable to determine electronic state:  an orbital has unidentified symmetry.
 Alpha  occ. eigenvalues --  -20.37016 -20.37008  -1.00046  -0.94734  -0.32382
 Alpha  occ. eigenvalues --   -0.29261  -0.26871  -0.23428  -0.13834
 Alpha virt. eigenvalues --    0.26903   0.97078   0.99739   1.03003   1.08058
 Alpha virt. eigenvalues --    1.10593   1.13897   1.21465   1.55403   1.84364
 Alpha virt. eigenvalues --    1.89375   1.91775   1.99017   1.99186   2.02161

  Beta  occ. eigenvalues --  -20.34376 -20.34365  -0.90699  -0.84140  -0.24246
  Beta  occ. eigenvalues --   -0.20476  -0.12204  -0.01769
  Beta virt. eigenvalues --    0.26492   0.29667   1.00731   1.04210   1.07332
  Beta virt. eigenvalues --    1.11514   1.15476   1.16842   1.22974   1.57170
  Beta virt. eigenvalues --    1.85800   1.91878   1.92748   2.02846   2.02915

 Mulliken charges and spin densities:
               1          2
     1  O   -0.500000   0.500000
     2  O   -0.500000   0.500000
 Sum of Mulliken charges =  -1.00000   1.00000

 Dipole moment (field-independent basis, Debye):
    X=             -0.0000    Y=              0.0000    Z=             -0.0000  Tot=              0.0000
 Quadrupole moment (field-independent basis, Debye-Ang):
   XX=            -12.4819   YY=            -13.3360   ZZ=            -16.8660
   XY=              0.0000   XZ=              0.0000   YZ=              0.0000

 -0=-149.9423344\MP4SDQ=-149.9713208\CCSD=-149.963441\CCSD(T)=-150.0079
 Normal termination of Gaussian 16 at Fri Feb  9 18:07:29 2024.
