 Gaussian 16, Revision A.03,
 Gaussian 16:  ES64L-G16RevA.03 25-Dec-2016

 ------------------
 #p CCSD(T)/cc-pVTZ
 ------------------

 -----
 O2_41
 -----
 Symbolic Z-matrix:
 Charge = -1 Multiplicity = 2

                         Standard orientation:
 ---------------------------------------------------------------------
 Center     Atomic      Atomic             Coordinates (Angstroms)
 Number     Number       Type             X           Y           Z
 ---------------------------------------------------------------------
      1          8           0        0.000000    0.000000    1.015000
      2          8           0        0.000000    0.000000   -1.015000
 ---------------------------------------------------------------------

 SCF Done:  E(UHF) =  -149.446746235     A.U. after   12 cycles
 E2 =    -0.5805735785D+00 EUMP2 =    -0.15002731981304D+03
 CCSD(T)
 CCSD(T)= -0.15002224062D+03

 Unable to determine electronic state:  an orbital has unidentified symmetry.
 Alpha  occ. eigenvalues --  -20.36307 -20.36298  -1.00454  -0.93444  -0.32276
 Alpha  occ. eigenvalues --   -0.28175  -0.26783  -0.22303  -0.15228
 Alpha virt. eigenvalues --    0.29885   0.97972   1.00679   1.02102   1.08689
 Alpha virt. eigenvalues --    1.11220   1.13259   1.25396   1.58088   1.85365
 Alpha virt. eigenvalues --    1.86465   1.88834   1.98629   1.98811   2.03571

  Beta  occ. eigenvalues --  -20.33657 -20.33643  -0.91233  -0.82766  -0.24179
  Beta  occ. eigenvalues --   -0.19311  -0.13599  -0.02393
  Beta virt. eigenvalues --    0.28278   0.32713   1.01689   1.03283   1.08389
  Beta virt. eigenvalues --    1.12136   1.14778   1.17465   1.26785   1.59881
  Beta virt. eigenvalues --    1.86945   1.88894   1.89705   2.02400   2.02482

 Mulliken charges and spin densities:
               1          2
     1  O   -0.500000   0.500000
     2  O   -0.500000   0.500000
 Sum of Mulliken charges =  -1.00000   1.00000

 Dipole moment (field-independent basis, Debye):
    X=             -0.0000    Y=             -0.0000    Z=              0.0000  Tot=              0.0000
 Quadrupole moment (field-independent basis, Debye-Ang):
   XX=            -13.3140   YY=            -12.4630   ZZ=            -16.4308
   XY=              0.0000   XZ=              0.0000   YZ=              0.0000

 -0=-149.9640766\MP4SDQ=-149.9914993\CCSD=-149.9820537\CCSD(T)=-150.022
 Normal termination of Gaussian 16 at Fri Feb  9 18:06:35 2024.
