 Gaussian 16, Revision A.03,
 Gaussian 16:  ES64L-G16RevA.03 25-Dec-2016

 ------------------
 #p CCSD(T)/cc-pVTZ
 ------------------

 -----
 O2_51
 -----
 Symbolic Z-matrix:
 Charge = -1 Multiplicity = 2

                         Standard orientation:
 ---------------------------------------------------------------------
 Center     Atomic      Atomic             Coordinates (Angstroms)
 Number     Number       Type             X           Y           Z
 ---------------------------------------------------------------------
      1          8           0        0.000000    0.000000    1.165000
      2          8           0        0.000000    0.000000   -1.165000
 ---------------------------------------------------------------------

 SCF Done:  E(UHF) =  -149.379634414     A.U. after   12 cycles
 E2 =    -0.6437225195D+00 EUMP2 =    -0.15002335693334D+03
 CCSD(T)
 CCSD(T)= -0.14999122074D+03

 Unable to determine electronic state:  an orbital has unidentified symmetry.
 Alpha  occ. eigenvalues --  -20.37869 -20.37863  -0.99821  -0.96262  -0.32648
 Alpha  occ. eigenvalues --   -0.30563  -0.27125  -0.24791  -0.12133
 Alpha virt. eigenvalues --    0.23269   0.96146   0.98750   1.04382   1.07004
 Alpha virt. eigenvalues --    1.09542   1.14442   1.14657   1.51771   1.87094
 Alpha virt. eigenvalues --    1.92906   1.95343   1.99119   1.99318   2.00610

  Beta  occ. eigenvalues --  -20.35249 -20.35240  -0.90340  -0.85802  -0.24480
  Beta  occ. eigenvalues --   -0.21898  -0.10477  -0.01088
  Beta virt. eigenvalues --    0.24171   0.25954   0.99722   1.05636   1.06133
  Beta virt. eigenvalues --    1.10473   1.15623   1.15818   1.16663   1.53518
  Beta virt. eigenvalues --    1.88527   1.95497   1.96460   2.03002   2.03070

 Mulliken charges and spin densities:
               1          2
     1  O   -0.500000   0.500000
     2  O   -0.500000   0.500000
 Sum of Mulliken charges =  -1.00000   1.00000

 Dipole moment (field-independent basis, Debye):
    X=             -0.0000    Y=              0.0000    Z=             -0.0000  Tot=              0.0000
 Quadrupole moment (field-independent basis, Debye-Ang):
   XX=            -13.3526   YY=            -12.4895   ZZ=            -17.6330
   XY=              0.0000   XZ=              0.0000   YZ=              0.0000

 3-0=-149.9128145\MP4SDQ=-149.9408839\CCSD=-149.940294\CCSD(T)=-149.991
 Normal termination of Gaussian 16 at Fri Feb  9 18:08:48 2024.
