 Gaussian 16, Revision A.03,
 Gaussian 16:  ES64L-G16RevA.03 25-Dec-2016

 ------------------
 #p CCSD(T)/cc-pVTZ
 ------------------

 -----
 O2_53
 -----
 Symbolic Z-matrix:
 Charge = -1 Multiplicity = 2

                         Standard orientation:
 ---------------------------------------------------------------------
 Center     Atomic      Atomic             Coordinates (Angstroms)
 Number     Number       Type             X           Y           Z
 ---------------------------------------------------------------------
      1          8           0        0.000000    0.000000    1.195000
      2          8           0        0.000000    0.000000   -1.195000
 ---------------------------------------------------------------------

 SCF Done:  E(UHF) =  -149.368398152     A.U. after   12 cycles
 E2 =    -0.6574228945D+00 EUMP2 =    -0.15002582104696D+03
 CCSD(T)
 CCSD(T)= -0.14998681115D+03

 Unable to determine electronic state:  an orbital has unidentified symmetry.
 Alpha  occ. eigenvalues --  -20.38110 -20.38104  -0.99815  -0.96686  -0.32753
 Alpha  occ. eigenvalues --   -0.30927  -0.27229  -0.25177  -0.11656
 Alpha virt. eigenvalues --    0.22231   0.95943   0.98531   1.04838   1.06621
 Alpha virt. eigenvalues --    1.09160   1.12139   1.14851   1.50623   1.88434
 Alpha virt. eigenvalues --    1.93787   1.96233   1.99065   1.99286   2.00201

  Beta  occ. eigenvalues --  -20.35496 -20.35488  -0.90302  -0.86271  -0.24581
  Beta  occ. eigenvalues --   -0.22302  -0.09986  -0.00914
  Beta virt. eigenvalues --    0.23480   0.24893   0.99498   1.05844   1.06109
  Beta virt. eigenvalues --    1.10093   1.13538   1.15448   1.16645   1.52370
  Beta virt. eigenvalues --    1.89900   1.96399   1.97391   2.02959   2.03030

 Mulliken charges and spin densities:
               1          2
     1  O   -0.500000   0.500000
     2  O   -0.500000   0.500000
 Sum of Mulliken charges =  -1.00000   1.00000

 Dipole moment (field-independent basis, Debye):
    X=             -0.0000    Y=              0.0000    Z=              0.0000  Tot=              0.0000
 Quadrupole moment (field-independent basis, Debye-Ang):
   XX=            -13.3553   YY=            -12.4885   ZZ=            -17.9193
   XY=              0.0000   XZ=              0.0000   YZ=              0.0000

 0=-149.9035073\MP4SDQ=-149.9301888\CCSD=-149.9337662\CCSD(T)=-149.9868
 Normal termination of Gaussian 16 at Fri Feb  9 18:09:14 2024.
