 Gaussian 16, Revision A.03,
 Gaussian 16:  ES64L-G16RevA.03 25-Dec-2016

 ------------------
 #p CCSD(T)/cc-pVTZ
 ------------------

 -----
 O2_58
 -----
 Symbolic Z-matrix:
 Charge = -1 Multiplicity = 2

                         Standard orientation:
 ---------------------------------------------------------------------
 Center     Atomic      Atomic             Coordinates (Angstroms)
 Number     Number       Type             X           Y           Z
 ---------------------------------------------------------------------
      1          8           0        0.000000    0.000000    1.270000
      2          8           0        0.000000    0.000000   -1.270000
 ---------------------------------------------------------------------

 SCF Done:  E(UHF) =  -149.343142801     A.U. after   12 cycles
 E2 =    -0.6932350830D+00 EUMP2 =    -0.15003637788402D+03
 CCSD(T)
 CCSD(T)= -0.14997799790D+03

 Unable to determine electronic state:  an orbital has unidentified symmetry.
 Alpha  occ. eigenvalues --  -20.38636 -20.38631  -0.99897  -0.97606  -0.33036
 Alpha  occ. eigenvalues --   -0.31722  -0.27513  -0.26022  -0.10628
 Alpha virt. eigenvalues --    0.19924   0.95636   0.98192   1.05601   1.05947
 Alpha virt. eigenvalues --    1.06903   1.08139   1.15241   1.47751   1.91655
 Alpha virt. eigenvalues --    1.95353   1.97811   1.98808   1.99123   1.99343

  Beta  occ. eigenvalues --  -20.36039 -20.36032  -0.90324  -0.87296  -0.24859
  Beta  occ. eigenvalues --   -0.23190  -0.08916  -0.00567
  Beta virt. eigenvalues --    0.21906   0.22533   0.99150   1.05340   1.07256
  Beta virt. eigenvalues --    1.08293   1.09079   1.14456   1.17039   1.49502
  Beta virt. eigenvalues --    1.93247   1.98003   1.99054   2.02724   2.02806

 Mulliken charges and spin densities:
               1          2
     1  O   -0.500000   0.500000
     2  O   -0.500000   0.500000
 Sum of Mulliken charges =  -1.00000   1.00000

 Dipole moment (field-independent basis, Debye):
    X=             -0.0000    Y=              0.0000    Z=             -0.0000  Tot=              0.0000
 Quadrupole moment (field-independent basis, Debye-Ang):
   XX=            -13.3589   YY=            -12.4820   ZZ=            -18.7042
   XY=              0.0000   XZ=              0.0000   YZ=              0.0000

 0=-149.8805623\MP4SDQ=-149.9009022\CCSD=-149.9197537\CCSD(T)=-149.9779
 Normal termination of Gaussian 16 at Fri Feb  9 18:10:20 2024.
