 Gaussian 16, Revision A.03,
 Gaussian 16:  ES64L-G16RevA.03 25-Dec-2016

 ------------------
 #p CCSD(T)/cc-pVTZ
 ------------------

 -----
 O2_55
 -----
 Symbolic Z-matrix:
 Charge = -1 Multiplicity = 2

                         Standard orientation:
 ---------------------------------------------------------------------
 Center     Atomic      Atomic             Coordinates (Angstroms)
 Number     Number       Type             X           Y           Z
 ---------------------------------------------------------------------
      1          8           0        0.000000    0.000000    1.225000
      2          8           0        0.000000    0.000000   -1.225000
 ---------------------------------------------------------------------

 SCF Done:  E(UHF) =  -149.357827068     A.U. after   12 cycles
 E2 =    -0.6714801602D+00 EUMP2 =    -0.15002930722793D+03
 CCSD(T)
 CCSD(T)= -0.14998292517D+03

 Unable to determine electronic state:  an orbital has unidentified symmetry.
 Alpha  occ. eigenvalues --  -20.38332 -20.38327  -0.99833  -0.97077  -0.32864
 Alpha  occ. eigenvalues --   -0.31264  -0.27340  -0.25534  -0.11218
 Alpha virt. eigenvalues --    0.21262   0.95787   0.98361   1.05289   1.06223
 Alpha virt. eigenvalues --    1.08762   1.09940   1.15023   1.49484   1.89783
 Alpha virt. eigenvalues --    1.94518   1.96970   1.98979   1.99230   1.99833

  Beta  occ. eigenvalues --  -20.35725 -20.35718  -0.90293  -0.86704  -0.24688
  Beta  occ. eigenvalues --   -0.22677  -0.09532  -0.00762
  Beta virt. eigenvalues --    0.22825   0.23902   0.99324   1.05606   1.06575
  Beta virt. eigenvalues --    1.09698   1.11350   1.15062   1.16807   1.51231
  Beta virt. eigenvalues --    1.91291   1.97148   1.98165   2.02883   2.02957

 Mulliken charges and spin densities:
               1          2
     1  O   -0.500000   0.500000
     2  O   -0.500000   0.500000
 Sum of Mulliken charges =  -1.00000   1.00000

 Dipole moment (field-independent basis, Debye):
    X=             -0.0000    Y=             -0.0000    Z=             -0.0000  Tot=              0.0000
 Quadrupole moment (field-independent basis, Debye-Ang):
   XX=            -12.4864   YY=            -13.3572   ZZ=            -18.2212
   XY=              0.0000   XZ=              0.0000   YZ=              0.0000

 3-0=-149.8943212\MP4SDQ=-149.918985\CCSD=-149.9277822\CCSD(T)=-149.982
 Normal termination of Gaussian 16 at Fri Feb  9 18:09:41 2024.
