 Gaussian 16, Revision A.03,
 Gaussian 16:  ES64L-G16RevA.03 25-Dec-2016

 ------------------
 #p CCSD(T)/cc-pVTZ
 ------------------

 -----
 O2_50
 -----
 Symbolic Z-matrix:
 Charge = -1 Multiplicity = 2

                         Standard orientation:
 ---------------------------------------------------------------------
 Center     Atomic      Atomic             Coordinates (Angstroms)
 Number     Number       Type             X           Y           Z
 ---------------------------------------------------------------------
      1          8           0        0.000000    0.000000    1.150000
      2          8           0        0.000000    0.000000   -1.150000
 ---------------------------------------------------------------------

 SCF Done:  E(UHF) =  -149.385512020     A.U. after   12 cycles
 E2 =    -0.6370064201D+00 EUMP2 =    -0.15002251843990D+03
 CCSD(T)
 CCSD(T)= -0.14999363320D+03

 Unable to determine electronic state:  an orbital has unidentified symmetry.
 Alpha  occ. eigenvalues --  -20.37742 -20.37736  -0.99835  -0.96035  -0.32598
 Alpha  occ. eigenvalues --   -0.30368  -0.27076  -0.24587  -0.12388
 Alpha virt. eigenvalues --    0.23818   0.96267   0.98880   1.04152   1.07189
 Alpha virt. eigenvalues --    1.09727   1.14545   1.15625   1.52352   1.86459
 Alpha virt. eigenvalues --    1.92408   1.94840   1.99133   1.99323   2.00830

  Beta  occ. eigenvalues --  -20.35118 -20.35108  -0.90372  -0.85553  -0.24433
  Beta  occ. eigenvalues --   -0.21684  -0.10737  -0.01184
  Beta virt. eigenvalues --    0.24531   0.26515   0.99855   1.05399   1.06298
  Beta virt. eigenvalues --    1.10656   1.15998   1.16020   1.17329   1.54101
  Beta virt. eigenvalues --    1.87881   1.94986   1.95935   2.03009   2.03076

 Mulliken charges and spin densities:
               1          2
     1  O   -0.500000   0.500000
     2  O   -0.500000   0.500000
 Sum of Mulliken charges =  -1.00000   1.00000

 Dipole moment (field-independent basis, Debye):
    X=             -0.0000    Y=              0.0000    Z=             -0.0000  Tot=              0.0000
 Quadrupole moment (field-independent basis, Debye-Ang):
   XX=            -12.4895   YY=            -13.3508   ZZ=            -17.4956
   XY=              0.0000   XZ=              0.0000   YZ=              0.0000

 0=-149.9175419\MP4SDQ=-149.9460857\CCSD=-149.9437719\CCSD(T)=-149.9936
 Normal termination of Gaussian 16 at Fri Feb  9 18:08:35 2024.
