 Gaussian 16, Revision A.03,
 Gaussian 16:  ES64L-G16RevA.03 25-Dec-2016

 ------------------
 #p CCSD(T)/cc-pVTZ
 ------------------

 -----
 O2_56
 -----
 Symbolic Z-matrix:
 Charge = -1 Multiplicity = 2

                         Standard orientation:
 ---------------------------------------------------------------------
 Center     Atomic      Atomic             Coordinates (Angstroms)
 Number     Number       Type             X           Y           Z
 ---------------------------------------------------------------------
      1          8           0        0.000000    0.000000    1.240000
      2          8           0        0.000000    0.000000   -1.240000
 ---------------------------------------------------------------------

 SCF Done:  E(UHF) =  -149.352780401     A.U. after   12 cycles
 E2 =    -0.6786425150D+00 EUMP2 =    -0.15003142291584D+03
 CCSD(T)
 CCSD(T)= -0.14998116743D+03

 Unable to determine electronic state:  an orbital has unidentified symmetry.
 Alpha  occ. eigenvalues --  -20.38437 -20.38432  -0.99850  -0.97260  -0.32921
 Alpha  occ. eigenvalues --   -0.31423  -0.27397  -0.25702  -0.11013
 Alpha virt. eigenvalues --    0.20802   0.95727   0.98294   1.05511   1.06019
 Alpha virt. eigenvalues --    1.08558   1.08890   1.15101   1.48912   1.90434
 Alpha virt. eigenvalues --    1.94830   1.97285   1.98927   1.99197   1.99662

  Beta  occ. eigenvalues --  -20.35834 -20.35826  -0.90298  -0.86909  -0.24744
  Beta  occ. eigenvalues --   -0.22854  -0.09318  -0.00692
  Beta virt. eigenvalues --    0.22511   0.23431   0.99255   1.05506   1.06805
  Beta virt. eigenvalues --    1.09495   1.10296   1.14863   1.16888   1.50660
  Beta virt. eigenvalues --    1.91968   1.97468   1.98496   2.02835   2.02912

 Mulliken charges and spin densities:
               1          2
     1  O   -0.500000   0.500000
     2  O   -0.500000   0.500000
 Sum of Mulliken charges =  -1.00000   1.00000

 Dipole moment (field-independent basis, Debye):
    X=             -0.0000    Y=              0.0000    Z=             -0.0000  Tot=              0.0000
 Quadrupole moment (field-independent basis, Debye-Ang):
   XX=            -13.3579   YY=            -12.4851   ZZ=            -18.3781
   XY=              0.0000   XZ=              0.0000   YZ=              0.0000

 3-0=-149.8897442\MP4SDQ=-149.9131464\CCSD=-149.9249841\CCSD(T)=-149.98
 Normal termination of Gaussian 16 at Fri Feb  9 18:09:54 2024.
