 Gaussian 16, Revision A.03,
 Gaussian 16:  ES64L-G16RevA.03 25-Dec-2016

 ------------------
 #p CCSD(T)/cc-pVTZ
 ------------------

 -----
 O2_57
 -----
 Symbolic Z-matrix:
 Charge = -1 Multiplicity = 2

                         Standard orientation:
 ---------------------------------------------------------------------
 Center     Atomic      Atomic             Coordinates (Angstroms)
 Number     Number       Type             X           Y           Z
 ---------------------------------------------------------------------
      1          8           0        0.000000    0.000000    1.255000
      2          8           0        0.000000    0.000000   -1.255000
 ---------------------------------------------------------------------

 SCF Done:  E(UHF) =  -149.347887138     A.U. after   12 cycles
 E2 =    -0.6858940975D+00 EUMP2 =    -0.15003378123519D+03
 CCSD(T)
 CCSD(T)= -0.14997952614D+03

 Unable to determine electronic state:  an orbital has unidentified symmetry.
 Alpha  occ. eigenvalues --  -20.38538 -20.38534  -0.99871  -0.97437  -0.32978
 Alpha  occ. eigenvalues --   -0.31575  -0.27455  -0.25865  -0.10816
 Alpha virt. eigenvalues --    0.20356   0.95676   0.98238   1.05730   1.05812
 Alpha virt. eigenvalues --    1.07877   1.08350   1.15173   1.48335   1.91060
 Alpha virt. eigenvalues --    1.95108   1.97564   1.98870   1.99161   1.99499

  Beta  occ. eigenvalues --  -20.35938 -20.35931  -0.90309  -0.87106  -0.24801
  Beta  occ. eigenvalues --   -0.23025  -0.09113  -0.00628
  Beta virt. eigenvalues --    0.22204   0.22975   0.99197   1.05418   1.07032
  Beta virt. eigenvalues --    1.09276   1.09289   1.14661   1.16965   1.50084
  Beta virt. eigenvalues --    1.92622   1.97752   1.98792   2.02782   2.02861

 Mulliken charges and spin densities:
               1          2
     1  O   -0.500000   0.500000
     2  O   -0.500000   0.500000
 Sum of Mulliken charges =  -1.00000   1.00000

 Dipole moment (field-independent basis, Debye):
    X=             -0.0000    Y=             -0.0000    Z=              0.0000  Tot=              0.0000
 Quadrupole moment (field-independent basis, Debye-Ang):
   XX=            -12.4836   YY=            -13.3585   ZZ=            -18.5391
   XY=              0.0000   XZ=              0.0000   YZ=              0.0000

 3-0=-149.885162\MP4SDQ=-149.9071251\CCSD=-149.922309\CCSD(T)=-149.9795
 Normal termination of Gaussian 16 at Fri Feb  9 18:10:07 2024.
