 Gaussian 16, Revision A.03,
 Gaussian 16:  ES64L-G16RevA.03 25-Dec-2016

 ------------------
 #p CCSD(T)/cc-pVTZ
 ------------------

 -----
 O2_54
 -----
 Symbolic Z-matrix:
 Charge = -1 Multiplicity = 2

                         Standard orientation:
 ---------------------------------------------------------------------
 Center     Atomic      Atomic             Coordinates (Angstroms)
 Number     Number       Type             X           Y           Z
 ---------------------------------------------------------------------
      1          8           0        0.000000    0.000000    1.210000
      2          8           0        0.000000    0.000000   -1.210000
 ---------------------------------------------------------------------

 SCF Done:  E(UHF) =  -149.363031546     A.U. after   12 cycles
 E2 =    -0.6644069528D+00 EUMP2 =    -0.15002743849905D+03
 CCSD(T)
 CCSD(T)= -0.14998480489D+03

 Unable to determine electronic state:  an orbital has unidentified symmetry.
 Alpha  occ. eigenvalues --  -20.38223 -20.38218  -0.99821  -0.96885  -0.32808
 Alpha  occ. eigenvalues --   -0.31099  -0.27284  -0.25359  -0.11433
 Alpha virt. eigenvalues --    0.21738   0.95859   0.98440   1.05065   1.06424
 Alpha virt. eigenvalues --    1.08963   1.11024   1.14940   1.50054   1.89113
 Alpha virt. eigenvalues --    1.94171   1.96620   1.99025   1.99260   2.00012

  Beta  occ. eigenvalues --  -20.35613 -20.35605  -0.90294  -0.86492  -0.24634
  Beta  occ. eigenvalues --   -0.22493  -0.09754  -0.00835
  Beta virt. eigenvalues --    0.23148   0.24389   0.99405   1.05719   1.06343
  Beta virt. eigenvalues --    1.09898   1.12434   1.15257   1.16724   1.51800
  Beta virt. eigenvalues --    1.90599   1.96793   1.97797   2.02925   2.02997

 Mulliken charges and spin densities:
               1          2
     1  O   -0.500000   0.500000
     2  O   -0.500000   0.500000
 Sum of Mulliken charges =  -1.00000   1.00000

 Dipole moment (field-independent basis, Debye):
    X=             -0.0000    Y=              0.0000    Z=             -0.0000  Tot=              0.0000
 Quadrupole moment (field-independent basis, Debye-Ang):
   XX=            -12.4876   YY=            -13.3564   ZZ=            -18.0683
   XY=              0.0000   XZ=              0.0000   YZ=              0.0000

 -0=-149.8989049\MP4SDQ=-149.9246596\CCSD=-149.9307082\CCSD(T)=-149.984
 Normal termination of Gaussian 16 at Fri Feb  9 18:09:28 2024.
