 Gaussian 16, Revision A.03,
 Gaussian 16:  ES64L-G16RevA.03 25-Dec-2016

 ------------------
 #p CCSD(T)/cc-pVTZ
 ------------------

 -----
 O2_52
 -----
 Symbolic Z-matrix:
 Charge = -1 Multiplicity = 2

                         Standard orientation:
 ---------------------------------------------------------------------
 Center     Atomic      Atomic             Coordinates (Angstroms)
 Number     Number       Type             X           Y           Z
 ---------------------------------------------------------------------
      1          8           0        0.000000    0.000000    1.180000
      2          8           0        0.000000    0.000000   -1.180000
 ---------------------------------------------------------------------

 SCF Done:  E(UHF) =  -149.373931088     A.U. after   12 cycles
 E2 =    -0.6505280491D+00 EUMP2 =    -0.15002445913718D+03
 CCSD(T)
 CCSD(T)= -0.14998894815D+03

 Unable to determine electronic state:  an orbital has unidentified symmetry.
 Alpha  occ. eigenvalues --  -20.37992 -20.37986  -0.99814  -0.96478  -0.32700
 Alpha  occ. eigenvalues --   -0.30749  -0.27176  -0.24988  -0.11890
 Alpha virt. eigenvalues --    0.22741   0.96038   0.98634   1.04611   1.06814
 Alpha virt. eigenvalues --    1.09353   1.13281   1.14756   1.51195   1.87757
 Alpha virt. eigenvalues --    1.93366   1.95808   1.99096   1.99306   2.00400

  Beta  occ. eigenvalues --  -20.35375 -20.35366  -0.90317  -0.86041  -0.24529
  Beta  occ. eigenvalues --   -0.22104  -0.10227  -0.00998
  Beta virt. eigenvalues --    0.23821   0.25414   0.99604   1.05873   1.05982
  Beta virt. eigenvalues --    1.10285   1.14640   1.15635   1.16588   1.52942
  Beta virt. eigenvalues --    1.89205   1.95968   1.96945   2.02985   2.03055

 Mulliken charges and spin densities:
               1          2
     1  O   -0.500000   0.500000
     2  O   -0.500000   0.500000
 Sum of Mulliken charges =  -1.00000   1.00000

 Dipole moment (field-independent basis, Debye):
    X=             -0.0000    Y=             -0.0000    Z=             -0.0000  Tot=              0.0000
 Quadrupole moment (field-independent basis, Debye-Ang):
   XX=            -13.3541   YY=            -12.4892   ZZ=            -17.7742
   XY=              0.0000   XZ=              0.0000   YZ=              0.0000

 3-0=-149.9081401\MP4SDQ=-149.9355909\CCSD=-149.9369601\CCSD(T)=-149.98
 Normal termination of Gaussian 16 at Fri Feb  9 18:09:01 2024.
