 Gaussian 16, Revision A.03,
 Gaussian 16:  ES64L-G16RevA.03 25-Dec-2016

 ------------------
 #p CCSD(T)/cc-pVTZ
 ------------------

 ----
 O2_5
 ----
 Symbolic Z-matrix:
 Charge = -1 Multiplicity = 2

                         Standard orientation:
 ---------------------------------------------------------------------
 Center     Atomic      Atomic             Coordinates (Angstroms)
 Number     Number       Type             X           Y           Z
 ---------------------------------------------------------------------
      1          8           0        0.000000    0.000000    0.475000
      2          8           0        0.000000    0.000000   -0.475000
 ---------------------------------------------------------------------

 SCF Done:  E(UHF) =  -149.340465662     A.U. after   11 cycles
 E2 =    -0.4300968006D+00 EUMP2 =    -0.14977056246307D+03
 CCSD(T)
 CCSD(T)= -0.14978988408D+03

 Unable to determine electronic state:  an orbital has unidentified symmetry.
 Alpha  occ. eigenvalues --  -20.21420 -20.21075  -1.52132  -0.63664  -0.51777
 Alpha  occ. eigenvalues --   -0.46731  -0.40152   0.04008   0.09436
 Alpha virt. eigenvalues --    0.77269   0.98366   1.00429   1.00851   1.15072
 Alpha virt. eigenvalues --    1.17983   1.26235   1.60715   1.74883   1.80383
 Alpha virt. eigenvalues --    1.80415   2.14214   2.17579   2.39861   2.39900

  Beta  occ. eigenvalues --  -20.19178 -20.18785  -1.47747  -0.54041  -0.44646
  Beta  occ. eigenvalues --   -0.35975  -0.32785   0.12233
  Beta virt. eigenvalues --    0.61308   0.78380   1.00910   1.01366   1.02502
  Beta virt. eigenvalues --    1.19139   1.26731   1.27556   1.63535   1.78140
  Beta virt. eigenvalues --    1.82880   1.82904   2.17924   2.21583   2.45010

 Mulliken charges and spin densities:
               1          2
     1  O   -0.500000   0.500000
     2  O   -0.500000   0.500000
 Sum of Mulliken charges =  -1.00000   1.00000

 Dipole moment (field-independent basis, Debye):
    X=             -0.0000    Y=             -0.0000    Z=              0.0000  Tot=              0.0000
 Quadrupole moment (field-independent basis, Debye-Ang):
   XX=            -12.2949   YY=            -11.0425   ZZ=            -14.9587
   XY=              0.0000   XZ=              0.0000   YZ=              0.0000

 =-149.7771625\MP4SDQ=-149.7781781\CCSD=-149.7779418\CCSD(T)=-149.78988
 Normal termination of Gaussian 16 at Fri Feb  9 17:58:38 2024.
