 Gaussian 16, Revision A.03,
 Gaussian 16:  ES64L-G16RevA.03 25-Dec-2016

 ------------------
 #p CCSD(T)/cc-pVTZ
 ------------------

 -----
 O2_59
 -----
 Symbolic Z-matrix:
 Charge = -1 Multiplicity = 2

                         Standard orientation:
 ---------------------------------------------------------------------
 Center     Atomic      Atomic             Coordinates (Angstroms)
 Number     Number       Type             X           Y           Z
 ---------------------------------------------------------------------
      1          8           0        0.000000    0.000000    1.285000
      2          8           0        0.000000    0.000000   -1.285000
 ---------------------------------------------------------------------

 SCF Done:  E(UHF) =  -149.338542865     A.U. after   12 cycles
 E2 =    -0.7006657497D+00 EUMP2 =    -0.15003920861486D+03
 CCSD(T)
 CCSD(T)= -0.14997657683D+03

 Unable to determine electronic state:  an orbital has unidentified symmetry.
 Alpha  occ. eigenvalues --  -20.38730 -20.38725  -0.99925  -0.97769  -0.33094
 Alpha  occ. eigenvalues --   -0.31864  -0.27572  -0.26173  -0.10447
 Alpha virt. eigenvalues --    0.19506   0.95605   0.98156   1.05388   1.05970
 Alpha virt. eigenvalues --    1.06160   1.07926   1.15303   1.47159   1.92213
 Alpha virt. eigenvalues --    1.95567   1.98027   1.98743   1.99085   1.99194

  Beta  occ. eigenvalues --  -20.36136 -20.36130  -0.90344  -0.87480  -0.24918
  Beta  occ. eigenvalues --   -0.23349  -0.08726  -0.00510
  Beta virt. eigenvalues --    0.21616   0.22104   0.99112   1.05273   1.07351
  Beta virt. eigenvalues --    1.07477   1.08866   1.14248   1.17109   1.48911
  Beta virt. eigenvalues --    1.93838   1.98223   1.99284   2.02661   2.02747

 Mulliken charges and spin densities:
               1          2
     1  O   -0.500000   0.500000
     2  O   -0.500000   0.500000
 Sum of Mulliken charges =  -1.00000   1.00000

 Dipole moment (field-independent basis, Debye):
    X=             -0.0000    Y=              0.0000    Z=              0.0000  Tot=              0.0000
 Quadrupole moment (field-independent basis, Debye-Ang):
   XX=            -12.4802   YY=            -13.3593   ZZ=            -18.8734
   XY=              0.0000   XZ=              0.0000   YZ=              0.0000

 -0=-149.8759328\MP4SDQ=-149.8944586\CCSD=-149.917313\CCSD(T)=-149.9765
 Normal termination of Gaussian 16 at Fri Feb  9 18:10:33 2024.
