 Gaussian 16, Revision A.03,
 Gaussian 16:  ES64L-G16RevA.03 25-Dec-2016

 ------------------
 #p CCSD(T)/cc-pVTZ
 ------------------

 ----
 O2_6
 ----
 Symbolic Z-matrix:
 Charge = -1 Multiplicity = 2

                         Standard orientation:
 ---------------------------------------------------------------------
 Center     Atomic      Atomic             Coordinates (Angstroms)
 Number     Number       Type             X           Y           Z
 ---------------------------------------------------------------------
      1          8           0        0.000000    0.000000    0.490000
      2          8           0        0.000000    0.000000   -0.490000
 ---------------------------------------------------------------------

 SCF Done:  E(UHF) =  -149.407830111     A.U. after   11 cycles
 E2 =    -0.4317930473D+00 EUMP2 =    -0.14983962315796D+03
 CCSD(T)
 CCSD(T)= -0.14985924936D+03

 Unable to determine electronic state:  an orbital has unidentified symmetry.
 Alpha  occ. eigenvalues --  -20.21691 -20.21423  -1.48068  -0.64743  -0.49737
 Alpha  occ. eigenvalues --   -0.44658  -0.39089   0.02020   0.07512
 Alpha virt. eigenvalues --    0.77105   0.99161   1.01153   1.01658   1.14683
 Alpha virt. eigenvalues --    1.17554   1.26099   1.55249   1.72824   1.80975
 Alpha virt. eigenvalues --    1.81005   2.11450   2.14777   2.38335   2.38370

  Beta  occ. eigenvalues --  -20.19395 -20.19083  -1.43405  -0.55022  -0.42531
  Beta  occ. eigenvalues --   -0.35047  -0.30230   0.10360
  Beta virt. eigenvalues --    0.59816   0.78259   1.01638   1.02207   1.03577
  Beta virt. eigenvalues --    1.18688   1.26112   1.27366   1.58546   1.75568
  Beta virt. eigenvalues --    1.83494   1.83517   2.15094   2.18695   2.43464

 Mulliken charges and spin densities:
               1          2
     1  O   -0.500000   0.500000
     2  O   -0.500000   0.500000
 Sum of Mulliken charges =  -1.00000   1.00000

 Dipole moment (field-independent basis, Debye):
    X=             -0.0000    Y=             -0.0000    Z=              0.0000  Tot=              0.0000
 Quadrupole moment (field-independent basis, Debye-Ang):
   XX=            -12.3221   YY=            -11.1082   ZZ=            -14.9520
   XY=              0.0000   XZ=              0.0000   YZ=              0.0000

 0=-149.8461472\MP4SDQ=-149.8472593\CCSD=-149.8470054\CCSD(T)=-149.8592
 Normal termination of Gaussian 16 at Fri Feb  9 17:58:50 2024.
