 Gaussian 16, Revision A.03,
 Gaussian 16:  ES64L-G16RevA.03 25-Dec-2016

 ------------------
 #p CCSD(T)/cc-pVTZ
 ------------------

 -----
 O2_68
 -----
 Symbolic Z-matrix:
 Charge = -1 Multiplicity = 2

                         Standard orientation:
 ---------------------------------------------------------------------
 Center     Atomic      Atomic             Coordinates (Angstroms)
 Number     Number       Type             X           Y           Z
 ---------------------------------------------------------------------
      1          8           0        0.000000    0.000000    1.420000
      2          8           0        0.000000    0.000000   -1.420000
 ---------------------------------------------------------------------

 SCF Done:  E(UHF) =  -149.302897238     A.U. after   12 cycles
 E2 =    -0.7716662768D+00 EUMP2 =    -0.15007456351463D+03
 CCSD(T)
 CCSD(T)= -0.14996790398D+03

 Unable to determine electronic state:  an orbital has unidentified symmetry.
 Alpha  occ. eigenvalues --  -20.39431 -20.39428  -1.00281  -0.98992  -0.33610
 Alpha  occ. eigenvalues --   -0.32924  -0.28104  -0.27311  -0.09117
 Alpha virt. eigenvalues --    0.16236   0.95653   0.98171   0.99520   1.03412
 Alpha virt. eigenvalues --    1.05940   1.07856   1.15720   1.41140   1.95338
 Alpha virt. eigenvalues --    1.96433   1.98045   1.98073   1.98193   1.98646

  Beta  occ. eigenvalues --  -20.36868 -20.36863  -0.90653  -0.88868  -0.25453
  Beta  occ. eigenvalues --   -0.24553  -0.07312  -0.00127
  Beta virt. eigenvalues --    0.18740   0.19320   0.99119   1.00813   1.05051
  Beta virt. eigenvalues --    1.06885   1.09226   1.12302   1.17594   1.42918
  Beta virt. eigenvalues --    1.97407   1.99117   2.00252   2.01368   2.02007

 Mulliken charges and spin densities:
               1          2
     1  O   -0.500000   0.500000
     2  O   -0.500000   0.500000
 Sum of Mulliken charges =  -1.00000   1.00000

 Dipole moment (field-independent basis, Debye):
    X=             -0.0000    Y=              0.0000    Z=              0.0000  Tot=              0.0000
 Quadrupole moment (field-independent basis, Debye-Ang):
   XX=            -13.3611   YY=            -12.4630   ZZ=            -20.5856
   XY=              0.0000   XZ=              0.0000   YZ=              0.0000

 =-149.8308495\MP4SDQ=-149.8233347\CCSD=-149.8998541\CCSD(T)=-149.96790
 Normal termination of Gaussian 16 at Fri Feb  9 18:12:36 2024.
