 Gaussian 16, Revision A.03,
 Gaussian 16:  ES64L-G16RevA.03 25-Dec-2016

 ------------------
 #p CCSD(T)/cc-pVTZ
 ------------------

 -----
 O2_67
 -----
 Symbolic Z-matrix:
 Charge = -1 Multiplicity = 2

                         Standard orientation:
 ---------------------------------------------------------------------
 Center     Atomic      Atomic             Coordinates (Angstroms)
 Number     Number       Type             X           Y           Z
 ---------------------------------------------------------------------
      1          8           0        0.000000    0.000000    1.405000
      2          8           0        0.000000    0.000000   -1.405000
 ---------------------------------------------------------------------

 SCF Done:  E(UHF) =  -149.306399095     A.U. after   12 cycles
 E2 =    -0.7634027467D+00 EUMP2 =    -0.15006980184140D+03
 CCSD(T)
 CCSD(T)= -0.14996855288D+03

 Unable to determine electronic state:  an orbital has unidentified symmetry.
 Alpha  occ. eigenvalues --  -20.39365 -20.39361  -1.00237  -0.98875  -0.33555
 Alpha  occ. eigenvalues --   -0.32823  -0.28047  -0.27202  -0.09242
 Alpha virt. eigenvalues --    0.16560   0.95625   0.98145   1.00063   1.03632
 Alpha virt. eigenvalues --    1.06162   1.07693   1.15683   1.41879   1.95156
 Alpha virt. eigenvalues --    1.96408   1.98150   1.98162   1.98291   1.98857

  Beta  occ. eigenvalues --  -20.36799 -20.36794  -0.90612  -0.88735  -0.25395
  Beta  occ. eigenvalues --   -0.24438  -0.07446  -0.00161
  Beta virt. eigenvalues --    0.19076   0.19549   0.99095   1.01364   1.05049
  Beta virt. eigenvalues --    1.07106   1.09058   1.12519   1.17551   1.43654
  Beta virt. eigenvalues --    1.97163   1.99091   2.00219   2.01641   2.02083

 Mulliken charges and spin densities:
               1          2
     1  O   -0.500000   0.500000
     2  O   -0.500000   0.500000
 Sum of Mulliken charges =  -1.00000   1.00000

 Dipole moment (field-independent basis, Debye):
    X=             -0.0000    Y=              0.0000    Z=              0.0000  Tot=              0.0000
 Quadrupole moment (field-independent basis, Debye-Ang):
   XX=            -12.4649   YY=            -13.3609   ZZ=            -20.3784
   XY=              0.0000   XZ=              0.0000   YZ=              0.0000

 -0=-149.8363151\MP4SDQ=-149.8326394\CCSD=-149.9014401\CCSD(T)=-149.968
 Normal termination of Gaussian 16 at Fri Feb  9 18:12:22 2024.
