 Gaussian 16, Revision A.03,
 Gaussian 16:  ES64L-G16RevA.03 25-Dec-2016

 ------------------
 #p CCSD(T)/cc-pVTZ
 ------------------

 -----
 O2_64
 -----
 Symbolic Z-matrix:
 Charge = -1 Multiplicity = 2

                         Standard orientation:
 ---------------------------------------------------------------------
 Center     Atomic      Atomic             Coordinates (Angstroms)
 Number     Number       Type             X           Y           Z
 ---------------------------------------------------------------------
      1          8           0        0.000000    0.000000    1.360000
      2          8           0        0.000000    0.000000   -1.360000
 ---------------------------------------------------------------------

 SCF Done:  E(UHF) =  -149.317550036     A.U. after   12 cycles
 E2 =    -0.7391809225D+00 EUMP2 =    -0.15005673095859D+03
 CCSD(T)
 CCSD(T)= -0.14997093072D+03

 Unable to determine electronic state:  an orbital has unidentified symmetry.
 Alpha  occ. eigenvalues --  -20.39150 -20.39146  -1.00108  -0.98499  -0.33385
 Alpha  occ. eigenvalues --   -0.32496  -0.27871  -0.26851  -0.09649
 Alpha virt. eigenvalues --    0.17588   0.95570   0.98100   1.01950   1.04295
 Alpha virt. eigenvalues --    1.06829   1.07160   1.15562   1.43989   1.94376
 Alpha virt. eigenvalues --    1.96246   1.98380   1.98524   1.98607   1.98709

  Beta  occ. eigenvalues --  -20.36574 -20.36568  -0.90494  -0.88305  -0.25217
  Beta  occ. eigenvalues --   -0.24066  -0.07881  -0.00274
  Beta virt. eigenvalues --    0.20135   0.20273   0.99051   1.03280   1.05077
  Beta virt. eigenvalues --    1.07772   1.08511   1.13174   1.17406   1.45755
  Beta virt. eigenvalues --    1.96215   1.98922   2.00028   2.02309   2.02420

 Mulliken charges and spin densities:
               1          2
     1  O   -0.500000   0.500000
     2  O   -0.500000   0.500000
 Sum of Mulliken charges =  -1.00000   1.00000

 Dipole moment (field-independent basis, Debye):
    X=             -0.0000    Y=             -0.0000    Z=              0.0000  Tot=              0.0000
 Quadrupole moment (field-independent basis, Debye-Ang):
   XX=            -13.3605   YY=            -12.4707   ZZ=            -19.7821
   XY=              0.0000   XZ=              0.0000   YZ=              0.0000

 149.8519\MP4SDQ=-149.8582542\CCSD=-149.9066915\CCSD(T)=-149.9709307\S2
 Normal termination of Gaussian 16 at Fri Feb  9 18:11:42 2024.
