 Gaussian 16, Revision A.03,
 Gaussian 16:  ES64L-G16RevA.03 25-Dec-2016

 ------------------
 #p CCSD(T)/cc-pVTZ
 ------------------

 -----
 O2_61
 -----
 Symbolic Z-matrix:
 Charge = -1 Multiplicity = 2

                         Standard orientation:
 ---------------------------------------------------------------------
 Center     Atomic      Atomic             Coordinates (Angstroms)
 Number     Number       Type             X           Y           Z
 ---------------------------------------------------------------------
      1          8           0        0.000000    0.000000    1.315000
      2          8           0        0.000000    0.000000   -1.315000
 ---------------------------------------------------------------------

 SCF Done:  E(UHF) =  -149.329757978     A.U. after   12 cycles
 E2 =    -0.7157977558D+00 EUMP2 =    -0.15004555573346D+03
 CCSD(T)
 CCSD(T)= -0.14997404025D+03

 Unable to determine electronic state:  an orbital has unidentified symmetry.
 Alpha  occ. eigenvalues --  -20.38907 -20.38903  -0.99992  -0.98077  -0.33211
 Alpha  occ. eigenvalues --   -0.32131  -0.27692  -0.26459  -0.10108
 Alpha virt. eigenvalues --    0.18705   0.95569   0.98110   1.04231   1.04955
 Alpha virt. eigenvalues --    1.06575   1.07492   1.15417   1.45937   1.93209
 Alpha virt. eigenvalues --    1.95911   1.98373   1.98604   1.98913   1.98965

  Beta  occ. eigenvalues --  -20.36321 -20.36315  -0.90395  -0.87827  -0.25037
  Beta  occ. eigenvalues --   -0.23651  -0.08368  -0.00407
  Beta virt. eigenvalues --    0.21057   0.21283   0.99064   1.05169   1.05592
  Beta virt. eigenvalues --    1.07906   1.08433   1.13824   1.17238   1.47694
  Beta virt. eigenvalues --    1.94909   1.98577   1.99657   2.02527   2.02621

 Mulliken charges and spin densities:
               1          2
     1  O   -0.500000   0.500000
     2  O   -0.500000   0.500000
 Sum of Mulliken charges =  -1.00000   1.00000

 Dipole moment (field-independent basis, Debye):
    X=             -0.0000    Y=              0.0000    Z=              0.0000  Tot=              0.0000
 Quadrupole moment (field-independent basis, Debye-Ang):
   XX=            -12.4765   YY=            -13.3599   ZZ=            -19.2242
   XY=              0.0000   XZ=              0.0000   YZ=              0.0000

 -149.8665346\MP4SDQ=-149.8808323\CCSD=-149.9127605\CCSD(T)=-149.974040
 Normal termination of Gaussian 16 at Fri Feb  9 18:11:01 2024.
