 Gaussian 16, Revision A.03,
 Gaussian 16:  ES64L-G16RevA.03 25-Dec-2016

 ------------------
 #p CCSD(T)/cc-pVTZ
 ------------------

 -----
 O2_60
 -----
 Symbolic Z-matrix:
 Charge = -1 Multiplicity = 2

                         Standard orientation:
 ---------------------------------------------------------------------
 Center     Atomic      Atomic             Coordinates (Angstroms)
 Number     Number       Type             X           Y           Z
 ---------------------------------------------------------------------
      1          8           0        0.000000    0.000000    1.300000
      2          8           0        0.000000    0.000000   -1.300000
 ---------------------------------------------------------------------

 SCF Done:  E(UHF) =  -149.334082777     A.U. after   12 cycles
 E2 =    -0.7081864798D+00 EUMP2 =    -0.15004226925717D+03
 CCSD(T)
 CCSD(T)= -0.14997525923D+03

 Unable to determine electronic state:  an orbital has unidentified symmetry.
 Alpha  occ. eigenvalues --  -20.38820 -20.38816  -0.99957  -0.97926  -0.33152
 Alpha  occ. eigenvalues --   -0.32000  -0.27632  -0.26318  -0.10274
 Alpha virt. eigenvalues --    0.19100   0.95583   0.98128   1.05079   1.05173
 Alpha virt. eigenvalues --    1.06370   1.07710   1.15362   1.46554   1.92732
 Alpha virt. eigenvalues --    1.95753   1.98214   1.98674   1.99047   1.99051

  Beta  occ. eigenvalues --  -20.36230 -20.36224  -0.90368  -0.87657  -0.24978
  Beta  occ. eigenvalues --   -0.23503  -0.08543  -0.00457
  Beta virt. eigenvalues --    0.21333   0.21687   0.99084   1.05216   1.06450
  Beta virt. eigenvalues --    1.07694   1.08651   1.14037   1.17176   1.48309
  Beta virt. eigenvalues --    1.94393   1.98414   1.99484   2.02595   2.02685

 Mulliken charges and spin densities:
               1          2
     1  O   -0.500000   0.500000
     2  O   -0.500000   0.500000
 Sum of Mulliken charges =  -1.00000   1.00000

 Dipole moment (field-independent basis, Debye):
    X=             -0.0000    Y=             -0.0000    Z=             -0.0000  Tot=              0.0000
 Quadrupole moment (field-independent basis, Debye-Ang):
   XX=            -13.3596   YY=            -12.4784   ZZ=            -19.0467
   XY=              0.0000   XZ=              0.0000   YZ=              0.0000

 0=-149.8712611\MP4SDQ=-149.8877751\CCSD=-149.9149834\CCSD(T)=-149.9752
 Normal termination of Gaussian 16 at Fri Feb  9 18:10:47 2024.
