 Gaussian 16, Revision A.03,
 Gaussian 16:  ES64L-G16RevA.03 25-Dec-2016

 ------------------
 #p CCSD(T)/cc-pVTZ
 ------------------

 -----
 O2_63
 -----
 Symbolic Z-matrix:
 Charge = -1 Multiplicity = 2

                         Standard orientation:
 ---------------------------------------------------------------------
 Center     Atomic      Atomic             Coordinates (Angstroms)
 Number     Number       Type             X           Y           Z
 ---------------------------------------------------------------------
      1          8           0        0.000000    0.000000    1.345000
      2          8           0        0.000000    0.000000   -1.345000
 ---------------------------------------------------------------------

 SCF Done:  E(UHF) =  -149.321496093     A.U. after   12 cycles
 E2 =    -0.7312943056D+00 EUMP2 =    -0.15005279039814D+03
 CCSD(T)
 CCSD(T)= -0.14997188036D+03

 Unable to determine electronic state:  an orbital has unidentified symmetry.
 Alpha  occ. eigenvalues --  -20.39072 -20.39068  -1.00067  -0.98363  -0.33327
 Alpha  occ. eigenvalues --   -0.32379  -0.27812  -0.26725  -0.09796
 Alpha virt. eigenvalues --    0.17950   0.95563   0.98096   1.02666   1.04516
 Alpha virt. eigenvalues --    1.06970   1.07051   1.15517   1.44655   1.94031
 Alpha virt. eigenvalues --    1.96156   1.98456   1.98619   1.98650   1.98721

  Beta  occ. eigenvalues --  -20.36493 -20.36487  -0.90459  -0.88151  -0.25157
  Beta  occ. eigenvalues --   -0.23933  -0.08037  -0.00316
  Beta virt. eigenvalues --    0.20507   0.20528   0.99048   1.04007   1.05100
  Beta virt. eigenvalues --    1.07993   1.08315   1.13392   1.17353   1.46418
  Beta virt. eigenvalues --    1.95820   1.98829   1.99927   2.02383   2.02488

 Mulliken charges and spin densities:
               1          2
     1  O   -0.500000   0.500000
     2  O   -0.500000   0.500000
 Sum of Mulliken charges =  -1.00000   1.00000

 Dipole moment (field-independent basis, Debye):
    X=             -0.0000    Y=              0.0000    Z=             -0.0000  Tot=              0.0000
 Quadrupole moment (field-independent basis, Debye-Ang):
   XX=            -13.3603   YY=            -12.4727   ZZ=            -19.5919
   XY=              0.0000   XZ=              0.0000   YZ=              0.0000

 3-0=-149.8568668\MP4SDQ=-149.8660915\CCSD=-149.9086185\CCSD(T)=-149.97
 Normal termination of Gaussian 16 at Fri Feb  9 18:11:28 2024.
