 Gaussian 16, Revision A.03,
 Gaussian 16:  ES64L-G16RevA.03 25-Dec-2016

 ------------------
 #p CCSD(T)/cc-pVTZ
 ------------------

 -----
 O2_69
 -----
 Symbolic Z-matrix:
 Charge = -1 Multiplicity = 2

                         Standard orientation:
 ---------------------------------------------------------------------
 Center     Atomic      Atomic             Coordinates (Angstroms)
 Number     Number       Type             X           Y           Z
 ---------------------------------------------------------------------
      1          8           0        0.000000    0.000000    1.435000
      2          8           0        0.000000    0.000000   -1.435000
 ---------------------------------------------------------------------

 SCF Done:  E(UHF) =  -149.299496276     A.U. after   12 cycles
 E2 =    -0.7800255448D+00 EUMP2 =    -0.15007952182073D+03
 CCSD(T)
 CCSD(T)= -0.14996732064D+03

 Unable to determine electronic state:  an orbital has unidentified symmetry.
 Alpha  occ. eigenvalues --  -20.39494 -20.39491  -1.00326  -0.99104  -0.33664
 Alpha  occ. eigenvalues --   -0.33021  -0.28160  -0.27415  -0.08996
 Alpha virt. eigenvalues --    0.15919   0.95684   0.98200   0.99020   1.03193
 Alpha virt. eigenvalues --    1.05720   1.08013   1.15754   1.40384   1.95486
 Alpha virt. eigenvalues --    1.96445   1.97929   1.97997   1.98099   1.98398

  Beta  occ. eigenvalues --  -20.36934 -20.36930  -0.90696  -0.88997  -0.25510
  Beta  occ. eigenvalues --   -0.24664  -0.07182  -0.00094
  Beta virt. eigenvalues --    0.18413   0.19098   0.99148   1.00304   1.05059
  Beta virt. eigenvalues --    1.06665   1.09386   1.12085   1.17637   1.42166
  Beta virt. eigenvalues --    1.97617   1.99130   2.00272   2.01118   2.01932

 Mulliken charges and spin densities:
               1          2
     1  O   -0.500000   0.500000
     2  O   -0.500000   0.500000
 Sum of Mulliken charges =  -1.00000   1.00000

 Dipole moment (field-independent basis, Debye):
    X=             -0.0000    Y=             -0.0000    Z=              0.0000  Tot=              0.0000
 Quadrupole moment (field-independent basis, Debye-Ang):
   XX=            -12.4611   YY=            -13.3612   ZZ=            -20.7970
   XY=              0.0000   XZ=              0.0000   YZ=              0.0000

 -0=-149.8252274\MP4SDQ=-149.8136143\CCSD=-149.8983444\CCSD(T)=-149.967
 Normal termination of Gaussian 16 at Fri Feb  9 18:12:49 2024.
