 Gaussian 16, Revision A.03,
 Gaussian 16:  ES64L-G16RevA.03 25-Dec-2016

 ------------------
 #p CCSD(T)/cc-pVTZ
 ------------------

 -----
 O2_62
 -----
 Symbolic Z-matrix:
 Charge = -1 Multiplicity = 2

                         Standard orientation:
 ---------------------------------------------------------------------
 Center     Atomic      Atomic             Coordinates (Angstroms)
 Number     Number       Type             X           Y           Z
 ---------------------------------------------------------------------
      1          8           0        0.000000    0.000000    1.330000
      2          8           0        0.000000    0.000000   -1.330000
 ---------------------------------------------------------------------

 SCF Done:  E(UHF) =  -149.325563920     A.U. after   12 cycles
 E2 =    -0.7235001494D+00 EUMP2 =    -0.15004906406945D+03
 CCSD(T)
 CCSD(T)= -0.14997291543D+03

 Unable to determine electronic state:  an orbital has unidentified symmetry.
 Alpha  occ. eigenvalues --  -20.38991 -20.38987  -1.00029  -0.98223  -0.33269
 Alpha  occ. eigenvalues --   -0.32257  -0.27752  -0.26594  -0.09949
 Alpha virt. eigenvalues --    0.18322   0.95563   0.98099   1.03427   1.04736
 Alpha virt. eigenvalues --    1.06775   1.07272   1.15468   1.45304   1.93642
 Alpha virt. eigenvalues --    1.96045   1.98508   1.98531   1.98779   1.98840

  Beta  occ. eigenvalues --  -20.36408 -20.36402  -0.90426  -0.87992  -0.25097
  Beta  occ. eigenvalues --   -0.23795  -0.08199  -0.00360
  Beta virt. eigenvalues --    0.20789   0.20889   0.99053   1.04777   1.05130
  Beta virt. eigenvalues --    1.08113   1.08214   1.13609   1.17297   1.47065
  Beta virt. eigenvalues --    1.95385   1.98715   1.99804   2.02456   2.02555

 Mulliken charges and spin densities:
               1          2
     1  O   -0.500000   0.500000
     2  O   -0.500000   0.500000
 Sum of Mulliken charges =  -1.00000   1.00000

 Dipole moment (field-independent basis, Debye):
    X=             -0.0000    Y=             -0.0000    Z=             -0.0000  Tot=              0.0000
 Quadrupole moment (field-independent basis, Debye-Ang):
   XX=            -12.4746   YY=            -13.3601   ZZ=            -19.4059
   XY=              0.0000   XZ=              0.0000   YZ=              0.0000

 3-0=-149.8617407\MP4SDQ=-149.873611\CCSD=-149.9106402\CCSD(T)=-149.972
 Normal termination of Gaussian 16 at Fri Feb  9 18:11:15 2024.
