 Gaussian 16, Revision A.03,
 Gaussian 16:  ES64L-G16RevA.03 25-Dec-2016

 ------------------
 #p CCSD(T)/cc-pVTZ
 ------------------

 -----
 O2_65
 -----
 Symbolic Z-matrix:
 Charge = -1 Multiplicity = 2

                         Standard orientation:
 ---------------------------------------------------------------------
 Center     Atomic      Atomic             Coordinates (Angstroms)
 Number     Number       Type             X           Y           Z
 ---------------------------------------------------------------------
      1          8           0        0.000000    0.000000    1.375000
      2          8           0        0.000000    0.000000   -1.375000
 ---------------------------------------------------------------------

 SCF Done:  E(UHF) =  -149.313721364     A.U. after   12 cycles
 E2 =    -0.7471607250D+00 EUMP2 =    -0.15006088208937D+03
 CCSD(T)
 CCSD(T)= -0.14997006232D+03

 Unable to determine electronic state:  an orbital has unidentified symmetry.
 Alpha  occ. eigenvalues --  -20.39224 -20.39221  -1.00150  -0.98629  -0.33443
 Alpha  occ. eigenvalues --   -0.32609  -0.27930  -0.26972  -0.09508
 Alpha virt. eigenvalues --    0.17236   0.95584   0.98110   1.01277   1.04074
 Alpha virt. eigenvalues --    1.06606   1.07344   1.15605   1.43304   1.94678
 Alpha virt. eigenvalues --    1.96317   1.98304   1.98401   1.98498   1.98780

  Beta  occ. eigenvalues --  -20.36652 -20.36646  -0.90532  -0.88453  -0.25277
  Beta  occ. eigenvalues --   -0.24195  -0.07731  -0.00234
  Beta virt. eigenvalues --    0.19772   0.20025   0.99060   1.02598   1.05061
  Beta virt. eigenvalues --    1.07550   1.08700   1.12956   1.17457   1.45073
  Beta virt. eigenvalues --    1.96569   1.98995   2.00109   2.02234   2.02259

 Mulliken charges and spin densities:
               1          2
     1  O   -0.500000   0.500000
     2  O   -0.500000   0.500000
 Sum of Mulliken charges =  -1.00000   1.00000

 Dipole moment (field-independent basis, Debye):
    X=             -0.0000    Y=             -0.0000    Z=              0.0000  Tot=              0.0000
 Quadrupole moment (field-independent basis, Debye-Ang):
   XX=            -12.4688   YY=            -13.3606   ZZ=            -19.9766
   XY=              0.0000   XZ=              0.0000   YZ=              0.0000

 -0=-149.8468276\MP4SDQ=-149.8500795\CCSD=-149.9048552\CCSD(T)=-149.970
 Normal termination of Gaussian 16 at Fri Feb  9 18:11:55 2024.
