 Gaussian 16, Revision A.03,
 Gaussian 16:  ES64L-G16RevA.03 25-Dec-2016

 ------------------
 #p CCSD(T)/cc-pVTZ
 ------------------

 ----
 O2_7
 ----
 Symbolic Z-matrix:
 Charge = -1 Multiplicity = 2

                         Standard orientation:
 ---------------------------------------------------------------------
 Center     Atomic      Atomic             Coordinates (Angstroms)
 Number     Number       Type             X           Y           Z
 ---------------------------------------------------------------------
      1          8           0        0.000000    0.000000    0.505000
      2          8           0        0.000000    0.000000   -0.505000
 ---------------------------------------------------------------------

 SCF Done:  E(UHF) =  -149.462446373     A.U. after   11 cycles
 E2 =    -0.4336754577D+00 EUMP2 =    -0.14989612183052D+03
 CCSD(T)
 CCSD(T)= -0.14991600185D+03

 Unable to determine electronic state:  an orbital has unidentified symmetry.
 Alpha  occ. eigenvalues --  -20.22074 -20.21863  -1.44227  -0.65858  -0.47901
 Alpha  occ. eigenvalues --   -0.42794  -0.38084   0.00126   0.05674
 Alpha virt. eigenvalues --    0.76880   0.99875   1.01859   1.02386   1.14328
 Alpha virt. eigenvalues --    1.17163   1.25980   1.48841   1.72466   1.81565
 Alpha virt. eigenvalues --    1.81594   2.08744   2.12033   2.36799   2.36830

  Beta  occ. eigenvalues --  -20.19731 -20.19478  -1.39293  -0.56045  -0.40630
  Beta  occ. eigenvalues --   -0.34185  -0.27912   0.08569
  Beta virt. eigenvalues --    0.58344   0.78091   1.02353   1.02971   1.04587
  Beta virt. eigenvalues --    1.18274   1.25536   1.27192   1.52371   1.74921
  Beta virt. eigenvalues --    1.84109   1.84132   2.12321   2.15854   2.41908

 Mulliken charges and spin densities:
               1          2
     1  O   -0.500000   0.500000
     2  O   -0.500000   0.500000
 Sum of Mulliken charges =  -1.00000   1.00000

 Dipole moment (field-independent basis, Debye):
    X=             -0.0000    Y=              0.0000    Z=              0.0000  Tot=              0.0000
 Quadrupole moment (field-independent basis, Debye-Ang):
   XX=            -11.1759   YY=            -12.3548   ZZ=            -14.9507
   XY=              0.0000   XZ=              0.0000   YZ=              0.0000

 -0=-149.9024543\MP4SDQ=-149.903713\CCSD=-149.9034291\CCSD(T)=-149.9160
 Normal termination of Gaussian 16 at Fri Feb  9 17:59:03 2024.
