 Gaussian 16, Revision A.03,
 Gaussian 16:  ES64L-G16RevA.03 25-Dec-2016

 ------------------
 #p CCSD(T)/cc-pVTZ
 ------------------

 -----
 O2_73
 -----
 Symbolic Z-matrix:
 Charge = -1 Multiplicity = 2

                         Standard orientation:
 ---------------------------------------------------------------------
 Center     Atomic      Atomic             Coordinates (Angstroms)
 Number     Number       Type             X           Y           Z
 ---------------------------------------------------------------------
      1          8           0        0.000000    0.000000    1.495000
      2          8           0        0.000000    0.000000   -1.495000
 ---------------------------------------------------------------------

 SCF Done:  E(UHF) =  -149.286828000     A.U. after   12 cycles
 E2 =    -0.8144247364D+00 EUMP2 =    -0.15010125273606D+03
 CCSD(T)
 CCSD(T)= -0.14996557168D+03

 Unable to determine electronic state:  an orbital has unidentified symmetry.
 Alpha  occ. eigenvalues --  -20.39719 -20.39716  -1.00505  -0.99512  -0.33870
 Alpha  occ. eigenvalues --   -0.33372  -0.28374  -0.27795  -0.08553
 Alpha virt. eigenvalues --    0.14733   0.95840   0.97426   0.98348   1.02339
 Alpha virt. eigenvalues --    1.04862   1.08558   1.15882   1.37226   1.95802
 Alpha virt. eigenvalues --    1.96398   1.97471   1.97585   1.97701   1.97753

  Beta  occ. eigenvalues --  -20.37172 -20.37167  -0.90870  -0.89467  -0.25728
  Beta  occ. eigenvalues --   -0.25068  -0.06706   0.00025
  Beta virt. eigenvalues --    0.17183   0.18267   0.98677   0.99294   1.05128
  Beta virt. eigenvalues --    1.05806   1.09939   1.11239   1.17793   1.39022
  Beta virt. eigenvalues --    1.98172   1.99086   2.00252   2.00296   2.01640

 Mulliken charges and spin densities:
               1          2
     1  O   -0.500000   0.500000
     2  O   -0.500000   0.500000
 Sum of Mulliken charges =  -1.00000   1.00000

 Dipole moment (field-independent basis, Debye):
    X=             -0.0000    Y=             -0.0000    Z=             -0.0000  Tot=              0.0000
 Quadrupole moment (field-independent basis, Debye-Ang):
   XX=            -13.3619   YY=            -12.4539   ZZ=            -21.6836
   XY=              0.0000   XZ=              0.0000   YZ=              0.0000

 0=-149.8009255\MP4SDQ=-149.7701942\CCSD=-149.8930044\CCSD(T)=-149.9655
 Normal termination of Gaussian 16 at Fri Feb  9 18:13:41 2024.
