 Gaussian 16, Revision A.03,
 Gaussian 16:  ES64L-G16RevA.03 25-Dec-2016

 ------------------
 #p CCSD(T)/cc-pVTZ
 ------------------

 -----
 O2_70
 -----
 Symbolic Z-matrix:
 Charge = -1 Multiplicity = 2

                         Standard orientation:
 ---------------------------------------------------------------------
 Center     Atomic      Atomic             Coordinates (Angstroms)
 Number     Number       Type             X           Y           Z
 ---------------------------------------------------------------------
      1          8           0        0.000000    0.000000    1.450000
      2          8           0        0.000000    0.000000   -1.450000
 ---------------------------------------------------------------------

 SCF Done:  E(UHF) =  -149.296192421     A.U. after   12 cycles
 E2 =    -0.7884809291D+00 EUMP2 =    -0.15008467335022D+03
 CCSD(T)
 CCSD(T)= -0.14996679985D+03

 Unable to determine electronic state:  an orbital has unidentified symmetry.
 Alpha  occ. eigenvalues --  -20.39554 -20.39551  -1.00371  -0.99212  -0.33718
 Alpha  occ. eigenvalues --   -0.33114  -0.28215  -0.27516  -0.08879
 Alpha virt. eigenvalues --    0.15611   0.95719   0.98233   0.98561   1.02976
 Alpha virt. eigenvalues --    1.05502   1.08162   1.15788   1.39613   1.95603
 Alpha virt. eigenvalues --    1.96446   1.97814   1.97922   1.98008   1.98169

  Beta  occ. eigenvalues --  -20.36998 -20.36993  -0.90739  -0.89121  -0.25566
  Beta  occ. eigenvalues --   -0.24771  -0.07057  -0.00063
  Beta virt. eigenvalues --    0.18094   0.18882   0.99180   0.99836   1.05070
  Beta virt. eigenvalues --    1.06447   1.09538   1.11870   1.17678   1.41398
  Beta virt. eigenvalues --    1.97796   1.99132   2.00280   2.00887   2.01858

 Mulliken charges and spin densities:
               1          2
     1  O   -0.500000   0.500000
     2  O   -0.500000   0.500000
 Sum of Mulliken charges =  -1.00000   1.00000

 Dipole moment (field-independent basis, Debye):
    X=             -0.0000    Y=             -0.0000    Z=              0.0000  Tot=              0.0000
 Quadrupole moment (field-independent basis, Debye-Ang):
   XX=            -13.3614   YY=            -12.4593   ZZ=            -21.0125
   XY=              0.0000   XZ=              0.0000   YZ=              0.0000

 0=-149.8194363\MP4SDQ=-149.8034589\CCSD=-149.8969082\CCSD(T)=-149.9667
 Normal termination of Gaussian 16 at Fri Feb  9 18:13:02 2024.
