 Gaussian 16, Revision A.03,
 Gaussian 16:  ES64L-G16RevA.03 25-Dec-2016

 ------------------
 #p CCSD(T)/cc-pVTZ
 ------------------

 -----
 O2_71
 -----
 Symbolic Z-matrix:
 Charge = -1 Multiplicity = 2

                         Standard orientation:
 ---------------------------------------------------------------------
 Center     Atomic      Atomic             Coordinates (Angstroms)
 Number     Number       Type             X           Y           Z
 ---------------------------------------------------------------------
      1          8           0        0.000000    0.000000    1.465000
      2          8           0        0.000000    0.000000   -1.465000
 ---------------------------------------------------------------------

 SCF Done:  E(UHF) =  -149.292982041     A.U. after   12 cycles
 E2 =    -0.7970326332D+00 EUMP2 =    -0.15009001467437D+03
 CCSD(T)
 CCSD(T)= -0.14996633608D+03

 Unable to determine electronic state:  an orbital has unidentified symmetry.
 Alpha  occ. eigenvalues --  -20.39612 -20.39609  -1.00416  -0.99316  -0.33770
 Alpha  occ. eigenvalues --   -0.33204  -0.28270  -0.27613  -0.08767
 Alpha virt. eigenvalues --    0.15311   0.95757   0.98143   0.98268   1.02761
 Alpha virt. eigenvalues --    1.05286   1.08302   1.15820   1.38828   1.95692
 Alpha virt. eigenvalues --    1.96438   1.97700   1.97847   1.97920   1.97959

  Beta  occ. eigenvalues --  -20.37059 -20.37054  -0.90783  -0.89241  -0.25621
  Beta  occ. eigenvalues --   -0.24874  -0.06936  -0.00033
  Beta virt. eigenvalues --    0.17783   0.18671   0.99216   0.99410   1.05086
  Beta virt. eigenvalues --    1.06231   1.09681   1.11657   1.17717   1.40616
  Beta virt. eigenvalues --    1.97947   1.99125   2.00279   2.00674   2.01784

 Mulliken charges and spin densities:
               1          2
     1  O   -0.500000   0.500000
     2  O   -0.500000   0.500000
 Sum of Mulliken charges =  -1.00000   1.00000

 Dipole moment (field-independent basis, Debye):
    X=             -0.0000    Y=              0.0000    Z=             -0.0000  Tot=              0.0000
 Quadrupole moment (field-independent basis, Debye-Ang):
   XX=            -13.3615   YY=            -12.4574   ZZ=            -21.2322
   XY=              0.0000   XZ=              0.0000   YZ=              0.0000

 -0=-149.8134638\MP4SDQ=-149.7928495\CCSD=-149.8955409\CCSD(T)=-149.966
 Normal termination of Gaussian 16 at Fri Feb  9 18:13:15 2024.
