 Gaussian 16, Revision A.03,
 Gaussian 16:  ES64L-G16RevA.03 25-Dec-2016

 ------------------
 #p CCSD(T)/cc-pVTZ
 ------------------

 -----
 O2_78
 -----
 Symbolic Z-matrix:
 Charge = -1 Multiplicity = 2

                         Standard orientation:
 ---------------------------------------------------------------------
 Center     Atomic      Atomic             Coordinates (Angstroms)
 Number     Number       Type             X           Y           Z
 ---------------------------------------------------------------------
      1          8           0        0.000000    0.000000    1.570000
      2          8           0        0.000000    0.000000   -1.570000
 ---------------------------------------------------------------------

 SCF Done:  E(UHF) =  -149.272856853     A.U. after   12 cycles
 E2 =    -0.8595573200D+00 EUMP2 =    -0.15013241417282D+03
 CCSD(T)
 CCSD(T)= -0.14996446162D+03

 Unable to determine electronic state:  an orbital has unidentified symmetry.
 Alpha  occ. eigenvalues --  -20.39941 -20.39938  -1.00717  -0.99939  -0.34097
 Alpha  occ. eigenvalues --   -0.33736  -0.28612  -0.28190  -0.08075
 Alpha virt. eigenvalues --    0.13410   0.96070   0.96272   0.98573   1.01344
 Alpha virt. eigenvalues --    1.03860   1.09036   1.16026   1.33151   1.95817
 Alpha virt. eigenvalues --    1.96208   1.96864   1.96896   1.97360   1.97382

  Beta  occ. eigenvalues --  -20.37408 -20.37404  -0.91083  -0.89964  -0.25972
  Beta  occ. eigenvalues --   -0.25488  -0.06191   0.00160
  Beta virt. eigenvalues --    0.15805   0.17353   0.97487   0.99518   1.04805
  Beta virt. eigenvalues --    1.05272   1.10251   1.10410   1.17970   1.34969
  Beta virt. eigenvalues --    1.98402   1.98897   1.99567   2.00088   2.00966

 Mulliken charges and spin densities:
               1          2
     1  O   -0.500000   0.500000
     2  O   -0.500000   0.500000
 Sum of Mulliken charges =  -1.00000   1.00000

 Dipole moment (field-independent basis, Debye):
    X=             -0.0000    Y=              0.0000    Z=             -0.0000  Tot=              0.0000
 Quadrupole moment (field-independent basis, Debye-Ang):
   XX=            -12.4455   YY=            -13.3626   ZZ=            -22.8779
   XY=              0.0000   XZ=              0.0000   YZ=              0.0000

 3-0=-149.7655774\MP4SDQ=-149.7043597\CCSD=-149.8876819\CCSD(T)=-149.96
 Normal termination of Gaussian 16 at Fri Feb  9 18:14:47 2024.
