 Gaussian 16, Revision A.03,
 Gaussian 16:  ES64L-G16RevA.03 25-Dec-2016

 ------------------
 #p CCSD(T)/cc-pVTZ
 ------------------

 -----
 O2_77
 -----
 Symbolic Z-matrix:
 Charge = -1 Multiplicity = 2

                         Standard orientation:
 ---------------------------------------------------------------------
 Center     Atomic      Atomic             Coordinates (Angstroms)
 Number     Number       Type             X           Y           Z
 ---------------------------------------------------------------------
      1          8           0        0.000000    0.000000    1.555000
      2          8           0        0.000000    0.000000   -1.555000
 ---------------------------------------------------------------------

 SCF Done:  E(UHF) =  -149.275500443     A.U. after   12 cycles
 E2 =    -0.8503468514D+00 EUMP2 =    -0.15012584729418D+03
 CCSD(T)
 CCSD(T)= -0.14996460343D+03

 Unable to determine electronic state:  an orbital has unidentified symmetry.
 Alpha  occ. eigenvalues --  -20.39901 -20.39899  -1.00676  -0.99861  -0.34054
 Alpha  occ. eigenvalues --   -0.33670  -0.28568  -0.28118  -0.08165
 Alpha virt. eigenvalues --    0.13662   0.96023   0.96434   0.98526   1.01535
 Alpha virt. eigenvalues --    1.04053   1.08960   1.15998   1.33964   1.95834
 Alpha virt. eigenvalues --    1.96253   1.96988   1.97011   1.97425   1.97451

  Beta  occ. eigenvalues --  -20.37366 -20.37362  -0.91042  -0.89873  -0.25926
  Beta  occ. eigenvalues --   -0.25411  -0.06287   0.00134
  Beta virt. eigenvalues --    0.16067   0.17526   0.97657   0.99472   1.04997
  Beta virt. eigenvalues --    1.05240   1.10337   1.10441   1.17936   1.35777
  Beta virt. eigenvalues --    1.98386   1.98942   1.99693   2.00128   2.01141

 Mulliken charges and spin densities:
               1          2
     1  O   -0.500000   0.500000
     2  O   -0.500000   0.500000
 Sum of Mulliken charges =  -1.00000   1.00000

 Dipole moment (field-independent basis, Debye):
    X=             -0.0000    Y=             -0.0000    Z=              0.0000  Tot=              0.0000
 Quadrupole moment (field-independent basis, Debye-Ang):
   XX=            -12.4471   YY=            -13.3625   ZZ=            -22.6319
   XY=              0.0000   XZ=              0.0000   YZ=              0.0000

 -0=-149.7731487\MP4SDQ=-149.7186431\CCSD=-149.8886403\CCSD(T)=-149.964
 Normal termination of Gaussian 16 at Fri Feb  9 18:14:34 2024.
