 Gaussian 16, Revision A.03,
 Gaussian 16:  ES64L-G16RevA.03 25-Dec-2016

 ------------------
 #p CCSD(T)/cc-pVTZ
 ------------------

 -----
 O2_75
 -----
 Symbolic Z-matrix:
 Charge = -1 Multiplicity = 2

                         Standard orientation:
 ---------------------------------------------------------------------
 Center     Atomic      Atomic             Coordinates (Angstroms)
 Number     Number       Type             X           Y           Z
 ---------------------------------------------------------------------
      1          8           0        0.000000    0.000000    1.525000
      2          8           0        0.000000    0.000000   -1.525000
 ---------------------------------------------------------------------

 SCF Done:  E(UHF) =  -149.281008446     A.U. after   12 cycles
 E2 =    -0.8321987438D+00 EUMP2 =    -0.15011320719010D+03
 CCSD(T)
 CCSD(T)= -0.14996500294D+03

 Unable to determine electronic state:  an orbital has unidentified symmetry.
 Alpha  occ. eigenvalues --  -20.39815 -20.39812  -1.00592  -0.99693  -0.33965
 Alpha  occ. eigenvalues --   -0.33527  -0.28474  -0.27963  -0.08353
 Alpha virt. eigenvalues --    0.14184   0.95929   0.96859   0.98435   1.01930
 Alpha virt. eigenvalues --    1.04450   1.08778   1.15941   1.35598   1.95843
 Alpha virt. eigenvalues --    1.96333   1.97242   1.97264   1.97560   1.97597

  Beta  occ. eigenvalues --  -20.37274 -20.37270  -0.90957  -0.89678  -0.25830
  Beta  occ. eigenvalues --   -0.25247  -0.06490   0.00080
  Beta virt. eigenvalues --    0.16612   0.17886   0.98096   0.99381   1.05180
  Beta virt. eigenvalues --    1.05394   1.10159   1.10833   1.17866   1.37401
  Beta virt. eigenvalues --    1.98313   1.99022   1.99972   2.00199   2.01444

 Mulliken charges and spin densities:
               1          2
     1  O   -0.500000   0.500000
     2  O   -0.500000   0.500000
 Sum of Mulliken charges =  -1.00000   1.00000

 Dipole moment (field-independent basis, Debye):
    X=             -0.0000    Y=              0.0000    Z=              0.0000  Tot=              0.0000
 Quadrupole moment (field-independent basis, Debye-Ang):
   XX=            -13.3622   YY=            -12.4504   ZZ=            -22.1504
   XY=              0.0000   XZ=              0.0000   YZ=              0.0000

 3-0=-149.7875174\MP4SDQ=-149.7455038\CCSD=-149.8907122\CCSD(T)=-149.96
 Normal termination of Gaussian 16 at Fri Feb  9 18:14:08 2024.
