 Gaussian 16, Revision A.03,
 Gaussian 16:  ES64L-G16RevA.03 25-Dec-2016

 ------------------
 #p CCSD(T)/cc-pVTZ
 ------------------

 -----
 O2_76
 -----
 Symbolic Z-matrix:
 Charge = -1 Multiplicity = 2

                         Standard orientation:
 ---------------------------------------------------------------------
 Center     Atomic      Atomic             Coordinates (Angstroms)
 Number     Number       Type             X           Y           Z
 ---------------------------------------------------------------------
      1          8           0        0.000000    0.000000    1.540000
      2          8           0        0.000000    0.000000   -1.540000
 ---------------------------------------------------------------------

 SCF Done:  E(UHF) =  -149.278216827     A.U. after   12 cycles
 E2 =    -0.8412267243D+00 EUMP2 =    -0.15011944355103D+03
 CCSD(T)
 CCSD(T)= -0.14996478256D+03

 Unable to determine electronic state:  an orbital has unidentified symmetry.
 Alpha  occ. eigenvalues --  -20.39859 -20.39857  -1.00634  -0.99779  -0.34010
 Alpha  occ. eigenvalues --   -0.33600  -0.28521  -0.28042  -0.08258
 Alpha virt. eigenvalues --    0.13920   0.95976   0.96630   0.98480   1.01730
 Alpha virt. eigenvalues --    1.04249   1.08874   1.15970   1.34780   1.95843
 Alpha virt. eigenvalues --    1.96295   1.97121   1.97126   1.97492   1.97523

  Beta  occ. eigenvalues --  -20.37321 -20.37317  -0.91000  -0.89777  -0.25879
  Beta  occ. eigenvalues --   -0.25331  -0.06387   0.00107
  Beta virt. eigenvalues --    0.16336   0.17703   0.97859   0.99426   1.05194
  Beta virt. eigenvalues --    1.05210   1.10253   1.10635   1.17901   1.36588
  Beta virt. eigenvalues --    1.98357   1.98984   1.99827   2.00165   2.01300

 Mulliken charges and spin densities:
               1          2
     1  O   -0.500000   0.500000
     2  O   -0.500000   0.500000
 Sum of Mulliken charges =  -1.00000   1.00000

 Dipole moment (field-independent basis, Debye):
    X=             -0.0000    Y=             -0.0000    Z=              0.0000  Tot=              0.0000
 Quadrupole moment (field-independent basis, Debye-Ang):
   XX=            -12.4487   YY=            -13.3623   ZZ=            -22.3894
   XY=              0.0000   XZ=              0.0000   YZ=              0.0000

 3-0=-149.7804586\MP4SDQ=-149.7323528\CCSD=-149.8896494\CCSD(T)=-149.96
 Normal termination of Gaussian 16 at Fri Feb  9 18:14:21 2024.
