 Gaussian 16, Revision A.03,
 Gaussian 16:  ES64L-G16RevA.03 25-Dec-2016

 ------------------
 #p CCSD(T)/cc-pVTZ
 ------------------

 -----
 O2_79
 -----
 Symbolic Z-matrix:
 Charge = -1 Multiplicity = 2

                         Standard orientation:
 ---------------------------------------------------------------------
 Center     Atomic      Atomic             Coordinates (Angstroms)
 Number     Number       Type             X           Y           Z
 ---------------------------------------------------------------------
      1          8           0        0.000000    0.000000    1.585000
      2          8           0        0.000000    0.000000   -1.585000
 ---------------------------------------------------------------------

 SCF Done:  E(UHF) =  -149.270283777     A.U. after   12 cycles
 E2 =    -0.8688559767D+00 EUMP2 =    -0.15013913975349D+03
 CCSD(T)
 CCSD(T)= -0.14996435586D+03

 Unable to determine electronic state:  an orbital has unidentified symmetry.
 Alpha  occ. eigenvalues --  -20.39978 -20.39975  -1.00757  -1.00015  -0.34138
 Alpha  occ. eigenvalues --   -0.33800  -0.28656  -0.28259  -0.07987
 Alpha virt. eigenvalues --    0.13165   0.96118   0.96140   0.98620   1.01157
 Alpha virt. eigenvalues --    1.03672   1.09101   1.16054   1.32346   1.95793
 Alpha virt. eigenvalues --    1.96161   1.96748   1.96781   1.97296   1.97315

  Beta  occ. eigenvalues --  -20.37448 -20.37444  -0.91124  -0.90053  -0.26017
  Beta  occ. eigenvalues --   -0.25562  -0.06097   0.00186
  Beta virt. eigenvalues --    0.15548   0.17186   0.97349   0.99565   1.04617
  Beta virt. eigenvalues --    1.05305   1.10066   1.10472   1.18004   1.34170
  Beta virt. eigenvalues --    1.98407   1.98850   1.99450   2.00045   2.00775

 Mulliken charges and spin densities:
               1          2
     1  O   -0.500000   0.500000
     2  O   -0.500000   0.500000
 Sum of Mulliken charges =  -1.00000   1.00000

 Dipole moment (field-independent basis, Debye):
    X=             -0.0000    Y=              0.0000    Z=             -0.0000  Tot=              0.0000
 Quadrupole moment (field-independent basis, Debye-Ang):
   XX=            -13.3627   YY=            -12.4439   ZZ=            -23.1272
   XY=              0.0000   XZ=              0.0000   YZ=              0.0000

 -0=-149.7577347\MP4SDQ=-149.6894886\CCSD=-149.8867724\CCSD(T)=-149.964
 Normal termination of Gaussian 16 at Fri Feb  9 18:15:00 2024.
