 Gaussian 16, Revision A.03,
 Gaussian 16:  ES64L-G16RevA.03 25-Dec-2016

 ------------------
 #p CCSD(T)/cc-pVTZ
 ------------------

 -----
 O2_74
 -----
 Symbolic Z-matrix:
 Charge = -1 Multiplicity = 2

                         Standard orientation:
 ---------------------------------------------------------------------
 Center     Atomic      Atomic             Coordinates (Angstroms)
 Number     Number       Type             X           Y           Z
 ---------------------------------------------------------------------
      1          8           0        0.000000    0.000000    1.510000
      2          8           0        0.000000    0.000000   -1.510000
 ---------------------------------------------------------------------

 SCF Done:  E(UHF) =  -149.283877911     A.U. after   12 cycles
 E2 =    -0.8232643715D+00 EUMP2 =    -0.15010714228200D+03
 CCSD(T)
 CCSD(T)= -0.14996526393D+03

 Unable to determine electronic state:  an orbital has unidentified symmetry.
 Alpha  occ. eigenvalues --  -20.39768 -20.39765  -1.00549  -0.99605  -0.33918
 Alpha  occ. eigenvalues --   -0.33451  -0.28425  -0.27881  -0.08452
 Alpha virt. eigenvalues --    0.14455   0.95884   0.97124   0.98391   1.02133
 Alpha virt. eigenvalues --    1.04654   1.08672   1.15912   1.36414   1.95830
 Alpha virt. eigenvalues --    1.96368   1.97357   1.97418   1.97630   1.97674

  Beta  occ. eigenvalues --  -20.37224 -20.37220  -0.90914  -0.89574  -0.25780
  Beta  occ. eigenvalues --   -0.25159  -0.06596   0.00053
  Beta virt. eigenvalues --    0.16894   0.18074   0.98368   0.99337   1.05153
  Beta virt. eigenvalues --    1.05599   1.10054   1.11034   1.17830   1.38213
  Beta virt. eigenvalues --    1.98252   1.99057   2.00128   2.00228   2.01569

 Mulliken charges and spin densities:
               1          2
     1  O   -0.500000   0.500000
     2  O   -0.500000   0.500000
 Sum of Mulliken charges =  -1.00000   1.00000

 Dipole moment (field-independent basis, Debye):
    X=             -0.0000    Y=             -0.0000    Z=             -0.0000  Tot=              0.0000
 Quadrupole moment (field-independent basis, Debye-Ang):
   XX=            -12.4521   YY=            -13.3620   ZZ=            -21.9151
   XY=              0.0000   XZ=              0.0000   YZ=              0.0000

 3-0=-149.794336\MP4SDQ=-149.7581121\CCSD=-149.8918288\CCSD(T)=-149.965
 Normal termination of Gaussian 16 at Fri Feb  9 18:13:55 2024.
