 Gaussian 16, Revision A.03,
 Gaussian 16:  ES64L-G16RevA.03 25-Dec-2016

 ------------------
 #p CCSD(T)/cc-pVTZ
 ------------------

 ----
 O2_8
 ----
 Symbolic Z-matrix:
 Charge = -1 Multiplicity = 2

                         Standard orientation:
 ---------------------------------------------------------------------
 Center     Atomic      Atomic             Coordinates (Angstroms)
 Number     Number       Type             X           Y           Z
 ---------------------------------------------------------------------
      1          8           0        0.000000    0.000000    0.520000
      2          8           0        0.000000    0.000000   -0.520000
 ---------------------------------------------------------------------

 SCF Done:  E(UHF) =  -149.506366870     A.U. after   11 cycles
 E2 =    -0.4357546503D+00 EUMP2 =    -0.14994212152008D+03
 CCSD(T)
 CCSD(T)= -0.14996220446D+03

 Unable to determine electronic state:  an orbital has unidentified symmetry.
 Alpha  occ. eigenvalues --  -20.22540 -20.22371  -1.40610  -0.67000  -0.46246
 Alpha  occ. eigenvalues --   -0.41116  -0.37124  -0.01674   0.03924
 Alpha virt. eigenvalues --    0.76578   1.00512   1.02543   1.03039   1.14003
 Alpha virt. eigenvalues --    1.16804   1.25884   1.42328   1.73010   1.82159
 Alpha virt. eigenvalues --    1.82187   2.06118   2.09365   2.35264   2.35291

  Beta  occ. eigenvalues --  -20.20155 -20.19948  -1.35412  -0.57100  -0.38919
  Beta  occ. eigenvalues --   -0.33373  -0.25803   0.06859
  Beta virt. eigenvalues --    0.56898   0.77864   1.03053   1.03660   1.05533
  Beta virt. eigenvalues --    1.17894   1.25001   1.27041   1.45920   1.75330
  Beta virt. eigenvalues --    1.84730   1.84753   2.09625   2.13078   2.40352

 Mulliken charges and spin densities:
               1          2
     1  O   -0.500000   0.500000
     2  O   -0.500000   0.500000
 Sum of Mulliken charges =  -1.00000   1.00000

 Dipole moment (field-independent basis, Debye):
    X=             -0.0000    Y=              0.0000    Z=              0.0000  Tot=              0.0000
 Quadrupole moment (field-independent basis, Debye-Ang):
   XX=            -11.2447   YY=            -12.3918   ZZ=            -14.9536
   XY=              0.0000   XZ=              0.0000   YZ=              0.0000

 -0=-149.9481446\MP4SDQ=-149.9496018\CCSD=-149.9492737\CCSD(T)=-149.962
 Normal termination of Gaussian 16 at Fri Feb  9 17:59:15 2024.
