 Gaussian 16, Revision A.03,
 Gaussian 16:  ES64L-G16RevA.03 25-Dec-2016

 ------------------
 #p CCSD(T)/cc-pVTZ
 ------------------

 -----
 O2_83
 -----
 Symbolic Z-matrix:
 Charge = -1 Multiplicity = 2

                         Standard orientation:
 ---------------------------------------------------------------------
 Center     Atomic      Atomic             Coordinates (Angstroms)
 Number     Number       Type             X           Y           Z
 ---------------------------------------------------------------------
      1          8           0        0.000000    0.000000    1.645000
      2          8           0        0.000000    0.000000   -1.645000
 ---------------------------------------------------------------------

 SCF Done:  E(UHF) =  -149.260656248     A.U. after   12 cycles
 E2 =    -0.9068774089D+00 EUMP2 =    -0.15016753365663D+03
 CCSD(T)
 CCSD(T)= -0.14996422874D+03

 Unable to determine electronic state:  an orbital has unidentified symmetry.
 Alpha  occ. eigenvalues --  -20.40105 -20.40103  -1.00907  -1.00287  -0.34289
 Alpha  occ. eigenvalues --   -0.34027  -0.28815  -0.28507  -0.07661
 Alpha virt. eigenvalues --    0.12244   0.95897   0.96303   0.98803   1.00455
 Alpha virt. eigenvalues --    1.02967   1.09254   1.16163   1.29239   1.95655
 Alpha virt. eigenvalues --    1.95962   1.96343   1.96351   1.97059   1.97068

  Beta  occ. eigenvalues --  -20.37585 -20.37582  -0.91279  -0.90374  -0.26181
  Beta  occ. eigenvalues --   -0.25827  -0.05746   0.00290
  Beta virt. eigenvalues --    0.14583   0.16563   0.97081   0.99748   1.03911
  Beta virt. eigenvalues --    1.05440   1.09371   1.10599   1.18137   1.31093
  Beta virt. eigenvalues --    1.98347   1.98649   1.99048   1.99861   1.99953

 Mulliken charges and spin densities:
               1          2
     1  O   -0.500000   0.500000
     2  O   -0.500000   0.500000
 Sum of Mulliken charges =  -1.00000   1.00000

 Dipole moment (field-independent basis, Debye):
    X=             -0.0000    Y=             -0.0000    Z=             -0.0000  Tot=              0.0000
 Quadrupole moment (field-independent basis, Debye-Ang):
   XX=            -12.4377   YY=            -13.3630   ZZ=            -24.1552
   XY=              0.0000   XZ=              0.0000   YZ=              0.0000

 3-0=-149.72347\MP4SDQ=-149.6238834\CCSD=-149.883568\CCSD(T)=-149.96422
 Normal termination of Gaussian 16 at Fri Feb  9 18:15:53 2024.
