 Gaussian 16, Revision A.03,
 Gaussian 16:  ES64L-G16RevA.03 25-Dec-2016

 ------------------
 #p CCSD(T)/cc-pVTZ
 ------------------

 -----
 O2_88
 -----
 Symbolic Z-matrix:
 Charge = -1 Multiplicity = 2

                         Standard orientation:
 ---------------------------------------------------------------------
 Center     Atomic      Atomic             Coordinates (Angstroms)
 Number     Number       Type             X           Y           Z
 ---------------------------------------------------------------------
      1          8           0        0.000000    0.000000    1.720000
      2          8           0        0.000000    0.000000   -1.720000
 ---------------------------------------------------------------------

 SCF Done:  E(UHF) =  -149.249992378     A.U. after   12 cycles
 E2 =    -0.9559945337D+00 EUMP2 =    -0.15020598691190D+03
 CCSD(T)
 CCSD(T)= -0.14996459759D+03

 Unable to determine electronic state:  an orbital has unidentified symmetry.
 Alpha  occ. eigenvalues --  -20.40224 -20.40222  -1.01073  -1.00570  -0.34449
 Alpha  occ. eigenvalues --   -0.34260  -0.28985  -0.28761  -0.07299
 Alpha virt. eigenvalues --    0.11216   0.96109   0.96509   0.99008   0.99687
 Alpha virt. eigenvalues --    1.02195   1.09172   1.16295   1.25778   1.95442
 Alpha virt. eigenvalues --    1.95711   1.95874   1.95967   1.96796   1.96801

  Beta  occ. eigenvalues --  -20.37716 -20.37713  -0.91454  -0.90710  -0.26358
  Beta  occ. eigenvalues --   -0.26100  -0.05360   0.00419
  Beta virt. eigenvalues --    0.13501   0.15879   0.97265   0.99953   1.03140
  Beta virt. eigenvalues --    1.05597   1.08611   1.10465   1.18295   1.27684
  Beta virt. eigenvalues --    1.98173   1.98396   1.98658   1.99116   1.99625

 Mulliken charges and spin densities:
               1          2
     1  O   -0.500000   0.500000
     2  O   -0.500000   0.500000
 Sum of Mulliken charges =  -1.00000   1.00000

 Dipole moment (field-independent basis, Debye):
    X=             -0.0000    Y=              0.0000    Z=             -0.0000  Tot=              0.0000
 Quadrupole moment (field-independent basis, Debye-Ang):
   XX=            -12.4304   YY=            -13.3630   ZZ=            -25.4994
   XY=              0.0000   XZ=              0.0000   YZ=              0.0000

 3-0=-149.6735727\MP4SDQ=-149.5274508\CCSD=-149.880405\CCSD(T)=-149.964
 Normal termination of Gaussian 16 at Fri Feb  9 18:16:59 2024.
