 Gaussian 16, Revision A.03,
 Gaussian 16:  ES64L-G16RevA.03 25-Dec-2016

 ------------------
 #p CCSD(T)/cc-pVTZ
 ------------------

 -----
 O2_87
 -----
 Symbolic Z-matrix:
 Charge = -1 Multiplicity = 2

                         Standard orientation:
 ---------------------------------------------------------------------
 Center     Atomic      Atomic             Coordinates (Angstroms)
 Number     Number       Type             X           Y           Z
 ---------------------------------------------------------------------
      1          8           0        0.000000    0.000000    1.705000
      2          8           0        0.000000    0.000000   -1.705000
 ---------------------------------------------------------------------

 SCF Done:  E(UHF) =  -149.252010959     A.U. after   12 cycles
 E2 =    -0.9460520791D+00 EUMP2 =    -0.15019806303857D+03
 CCSD(T)
 CCSD(T)= -0.14996448690D+03

 Unable to determine electronic state:  an orbital has unidentified symmetry.
 Alpha  occ. eigenvalues --  -20.40203 -20.40201  -1.01042  -1.00518  -0.34419
 Alpha  occ. eigenvalues --   -0.34217  -0.28953  -0.28715  -0.07367
 Alpha virt. eigenvalues --    0.11412   0.96029   0.96471   0.98970   0.99830
 Alpha virt. eigenvalues --    1.02339   1.09214   1.16269   1.26423   1.95485
 Alpha virt. eigenvalues --    1.95760   1.95959   1.96036   1.96846   1.96851

  Beta  occ. eigenvalues --  -20.37693 -20.37690  -0.91421  -0.90647  -0.26325
  Beta  occ. eigenvalues --   -0.26050  -0.05433   0.00394
  Beta virt. eigenvalues --    0.13707   0.16009   0.97191   0.99915   1.03284
  Beta virt. eigenvalues --    1.05568   1.08753   1.10519   1.18264   1.28318
  Beta virt. eigenvalues --    1.98212   1.98446   1.98729   1.99259   1.99672

 Mulliken charges and spin densities:
               1          2
     1  O   -0.500000   0.500000
     2  O   -0.500000   0.500000
 Sum of Mulliken charges =  -1.00000   1.00000

 Dipole moment (field-independent basis, Debye):
    X=             -0.0000    Y=             -0.0000    Z=              0.0000  Tot=              0.0000
 Quadrupole moment (field-independent basis, Debye-Ang):
   XX=            -12.4318   YY=            -13.3630   ZZ=            -25.2259
   XY=              0.0000   XZ=              0.0000   YZ=              0.0000

 -149.6842122\MP4SDQ=-149.5480498\CCSD=-149.8809722\CCSD(T)=-149.964486
 Normal termination of Gaussian 16 at Fri Feb  9 18:16:46 2024.
