 Gaussian 16, Revision A.03,
 Gaussian 16:  ES64L-G16RevA.03 25-Dec-2016

 ------------------
 #p CCSD(T)/cc-pVTZ
 ------------------

 -----
 O2_85
 -----
 Symbolic Z-matrix:
 Charge = -1 Multiplicity = 2

                         Standard orientation:
 ---------------------------------------------------------------------
 Center     Atomic      Atomic             Coordinates (Angstroms)
 Number     Number       Type             X           Y           Z
 ---------------------------------------------------------------------
      1          8           0        0.000000    0.000000    1.675000
      2          8           0        0.000000    0.000000   -1.675000
 ---------------------------------------------------------------------

 SCF Done:  E(UHF) =  -149.256216820     A.U. after   12 cycles
 E2 =    -0.9263366745D+00 EUMP2 =    -0.15018255349482D+03
 CCSD(T)
 CCSD(T)= -0.14996431737D+03

 Unable to determine electronic state:  an orbital has unidentified symmetry.
 Alpha  occ. eigenvalues --  -20.40157 -20.40155  -1.00976  -1.00407  -0.34356
 Alpha  occ. eigenvalues --   -0.34126  -0.28886  -0.28616  -0.07510
 Alpha virt. eigenvalues --    0.11818   0.95923   0.96390   0.98889   1.00133
 Alpha virt. eigenvalues --    1.02643   1.09259   1.16216   1.27787   1.95572
 Alpha virt. eigenvalues --    1.95861   1.96143   1.96186   1.96949   1.96956

  Beta  occ. eigenvalues --  -20.37642 -20.37639  -0.91352  -0.90516  -0.26255
  Beta  occ. eigenvalues --   -0.25944  -0.05585   0.00342
  Beta virt. eigenvalues --    0.14134   0.16278   0.97095   0.99834   1.03588
  Beta virt. eigenvalues --    1.05505   1.09052   1.10586   1.18201   1.29660
  Beta virt. eigenvalues --    1.98285   1.98547   1.98880   1.99580   1.99766

 Mulliken charges and spin densities:
               1          2
     1  O   -0.500000   0.500000
     2  O   -0.500000   0.500000
 Sum of Mulliken charges =  -1.00000   1.00000

 Dipole moment (field-independent basis, Debye):
    X=             -0.0000    Y=             -0.0000    Z=              0.0000  Tot=              0.0000
 Quadrupole moment (field-independent basis, Debye-Ang):
   XX=            -13.3631   YY=            -12.4347   ZZ=            -24.6857
   XY=              0.0000   XZ=              0.0000   YZ=              0.0000

 0=-149.704491\MP4SDQ=-149.5872721\CCSD=-149.8822013\CCSD(T)=-149.96431
 Normal termination of Gaussian 16 at Fri Feb  9 18:16:20 2024.
