 Gaussian 16, Revision A.03,
 Gaussian 16:  ES64L-G16RevA.03 25-Dec-2016

 ------------------
 #p CCSD(T)/cc-pVTZ
 ------------------

 -----
 O2_84
 -----
 Symbolic Z-matrix:
 Charge = -1 Multiplicity = 2

                         Standard orientation:
 ---------------------------------------------------------------------
 Center     Atomic      Atomic             Coordinates (Angstroms)
 Number     Number       Type             X           Y           Z
 ---------------------------------------------------------------------
      1          8           0        0.000000    0.000000    1.660000
      2          8           0        0.000000    0.000000   -1.660000
 ---------------------------------------------------------------------

 SCF Done:  E(UHF) =  -149.258406651     A.U. after   12 cycles
 E2 =    -0.9165728594D+00 EUMP2 =    -0.15017497951010D+03
 CCSD(T)
 CCSD(T)= -0.14996426220D+03

 Unable to determine electronic state:  an orbital has unidentified symmetry.
 Alpha  occ. eigenvalues --  -20.40132 -20.40130  -1.00942  -1.00348  -0.34323
 Alpha  occ. eigenvalues --   -0.34078  -0.28851  -0.28563  -0.07585
 Alpha virt. eigenvalues --    0.12028   0.95899   0.96347   0.98847   1.00291
 Alpha virt. eigenvalues --    1.02802   1.09263   1.16190   1.28503   1.95614
 Alpha virt. eigenvalues --    1.95911   1.96241   1.96266   1.97003   1.97012

  Beta  occ. eigenvalues --  -20.37615 -20.37612  -0.91316  -0.90446  -0.26219
  Beta  occ. eigenvalues --   -0.25887  -0.05665   0.00316
  Beta virt. eigenvalues --    0.14356   0.16419   0.97077   0.99791   1.03747
  Beta virt. eigenvalues --    1.05473   1.09209   1.10599   1.18169   1.30366
  Beta virt. eigenvalues --    1.98318   1.98598   1.98962   1.99760   1.99813

 Mulliken charges and spin densities:
               1          2
     1  O   -0.500000   0.500000
     2  O   -0.500000   0.500000
 Sum of Mulliken charges =  -1.00000   1.00000

 Dipole moment (field-independent basis, Debye):
    X=             -0.0000    Y=              0.0000    Z=              0.0000  Tot=              0.0000
 Quadrupole moment (field-independent basis, Debye-Ang):
   XX=            -12.4362   YY=            -13.3631   ZZ=            -24.4192
   XY=              0.0000   XZ=              0.0000   YZ=              0.0000

 -0=-149.7141402\MP4SDQ=-149.6059016\CCSD=-149.8828667\CCSD(T)=-149.964
 Normal termination of Gaussian 16 at Fri Feb  9 18:16:06 2024.
