 Gaussian 16, Revision A.03,
 Gaussian 16:  ES64L-G16RevA.03 25-Dec-2016

 ------------------
 #p CCSD(T)/cc-pVTZ
 ------------------

 -----
 O2_86
 -----
 Symbolic Z-matrix:
 Charge = -1 Multiplicity = 2

                         Standard orientation:
 ---------------------------------------------------------------------
 Center     Atomic      Atomic             Coordinates (Angstroms)
 Number     Number       Type             X           Y           Z
 ---------------------------------------------------------------------
      1          8           0        0.000000    0.000000    1.690000
      2          8           0        0.000000    0.000000   -1.690000
 ---------------------------------------------------------------------

 SCF Done:  E(UHF) =  -149.254085361     A.U. after   12 cycles
 E2 =    -0.9361645753D+00 EUMP2 =    -0.15019024993588D+03
 CCSD(T)
 CCSD(T)= -0.14996439299D+03

 Unable to determine electronic state:  an orbital has unidentified symmetry.
 Alpha  occ. eigenvalues --  -20.40181 -20.40179  -1.01009  -1.00464  -0.34389
 Alpha  occ. eigenvalues --   -0.34173  -0.28920  -0.28666  -0.07438
 Alpha virt. eigenvalues --    0.11612   0.95967   0.96431   0.98931   0.99979
 Alpha virt. eigenvalues --    1.02488   1.09243   1.16243   1.27093   1.95529
 Alpha virt. eigenvalues --    1.95810   1.96049   1.96109   1.96897   1.96903

  Beta  occ. eigenvalues --  -20.37669 -20.37666  -0.91387  -0.90583  -0.26291
  Beta  occ. eigenvalues --   -0.25998  -0.05508   0.00368
  Beta virt. eigenvalues --    0.13918   0.16141   0.97134   0.99875   1.03433
  Beta virt. eigenvalues --    1.05537   1.08900   1.10559   1.18233   1.28977
  Beta virt. eigenvalues --    1.98250   1.98496   1.98802   1.99413   1.99719

 Mulliken charges and spin densities:
               1          2
     1  O   -0.500000   0.500000
     2  O   -0.500000   0.500000
 Sum of Mulliken charges =  -1.00000   1.00000

 Dipole moment (field-independent basis, Debye):
    X=             -0.0000    Y=             -0.0000    Z=             -0.0000  Tot=              0.0000
 Quadrupole moment (field-independent basis, Debye-Ang):
   XX=            -12.4332   YY=            -13.3631   ZZ=            -24.9547
   XY=              0.0000   XZ=              0.0000   YZ=              0.0000

 3-0=-149.6945168\MP4SDQ=-149.5679894\CCSD=-149.8815704\CCSD(T)=-149.96
 Normal termination of Gaussian 16 at Fri Feb  9 18:16:33 2024.
