 Gaussian 16, Revision A.03,
 Gaussian 16:  ES64L-G16RevA.03 25-Dec-2016

 ------------------
 #p CCSD(T)/cc-pVTZ
 ------------------

 -----
 O2_89
 -----
 Symbolic Z-matrix:
 Charge = -1 Multiplicity = 2

                         Standard orientation:
 ---------------------------------------------------------------------
 Center     Atomic      Atomic             Coordinates (Angstroms)
 Number     Number       Type             X           Y           Z
 ---------------------------------------------------------------------
      1          8           0        0.000000    0.000000    1.735000
      2          8           0        0.000000    0.000000   -1.735000
 ---------------------------------------------------------------------

 SCF Done:  E(UHF) =  -149.248028441     A.U. after   12 cycles
 E2 =    -0.9659871532D+00 EUMP2 =    -0.15021401559415D+03
 CCSD(T)
 CCSD(T)= -0.14996472356D+03

 Unable to determine electronic state:  an orbital has unidentified symmetry.
 Alpha  occ. eigenvalues --  -20.40244 -20.40242  -1.01104  -1.00621  -0.34478
 Alpha  occ. eigenvalues --   -0.34301  -0.29015  -0.28806  -0.07232
 Alpha virt. eigenvalues --    0.11025   0.96204   0.96545   0.99045   0.99547
 Alpha virt. eigenvalues --    1.02055   1.09117   1.16320   1.25158   1.95398
 Alpha virt. eigenvalues --    1.95663   1.95794   1.95901   1.96748   1.96752

  Beta  occ. eigenvalues --  -20.37738 -20.37735  -0.91486  -0.90769  -0.26390
  Beta  occ. eigenvalues --   -0.26148  -0.05289   0.00445
  Beta virt. eigenvalues --    0.13300   0.15754   0.97354   0.99989   1.03000
  Beta virt. eigenvalues --    1.05626   1.08474   1.10397   1.18325   1.27078
  Beta virt. eigenvalues --    1.98132   1.98347   1.98591   1.98986   1.99579

 Mulliken charges and spin densities:
               1          2
     1  O   -0.500000   0.500000
     2  O   -0.500000   0.500000
 Sum of Mulliken charges =  -1.00000   1.00000

 Dipole moment (field-independent basis, Debye):
    X=             -0.0000    Y=              0.0000    Z=              0.0000  Tot=              0.0000
 Quadrupole moment (field-independent basis, Debye-Ang):
   XX=            -12.4290   YY=            -13.3629   ZZ=            -25.7749
   XY=              0.0000   XZ=              0.0000   YZ=              0.0000

 -0=-149.6625947\MP4SDQ=-149.5061913\CCSD=-149.8798675\CCSD(T)=-149.964
 Normal termination of Gaussian 16 at Fri Feb  9 18:17:12 2024.
