 Gaussian 16, Revision A.03,
 Gaussian 16:  ES64L-G16RevA.03 25-Dec-2016

 ------------------
 #p CCSD(T)/cc-pVTZ
 ------------------

 -----
 O2_82
 -----
 Symbolic Z-matrix:
 Charge = -1 Multiplicity = 2

                         Standard orientation:
 ---------------------------------------------------------------------
 Center     Atomic      Atomic             Coordinates (Angstroms)
 Number     Number       Type             X           Y           Z
 ---------------------------------------------------------------------
      1          8           0        0.000000    0.000000    1.630000
      2          8           0        0.000000    0.000000   -1.630000
 ---------------------------------------------------------------------

 SCF Done:  E(UHF) =  -149.262967102     A.U. after   12 cycles
 E2 =    -0.8972543659D+00 EUMP2 =    -0.15016022146823D+03
 CCSD(T)
 CCSD(T)= -0.14996422137D+03

 Unable to determine electronic state:  an orbital has unidentified symmetry.
 Alpha  occ. eigenvalues --  -20.40076 -20.40074  -1.00871  -1.00223  -0.34253
 Alpha  occ. eigenvalues --   -0.33974  -0.28777  -0.28449  -0.07739
 Alpha virt. eigenvalues --    0.12466   0.95919   0.96258   0.98758   1.00623
 Alpha virt. eigenvalues --    1.03136   1.09233   1.16136   1.29994   1.95694
 Alpha virt. eigenvalues --    1.96013   1.96442   1.96448   1.97116   1.97127

  Beta  occ. eigenvalues --  -20.37554 -20.37551  -0.91242  -0.90298  -0.26142
  Beta  occ. eigenvalues --   -0.25765  -0.05830   0.00264
  Beta virt. eigenvalues --    0.14815   0.16712   0.97109   0.99703   1.04080
  Beta virt. eigenvalues --    1.05406   1.09537   1.10585   1.18104   1.31839
  Beta virt. eigenvalues --    1.98372   1.98700   1.99140   1.99908   2.00155

 Mulliken charges and spin densities:
               1          2
     1  O   -0.500000   0.500000
     2  O   -0.500000   0.500000
 Sum of Mulliken charges =  -1.00000   1.00000

 Dipole moment (field-independent basis, Debye):
    X=             -0.0000    Y=             -0.0000    Z=             -0.0000  Tot=              0.0000
 Quadrupole moment (field-independent basis, Debye-Ang):
   XX=            -12.4392   YY=            -13.3630   ZZ=            -23.8938
   XY=              0.0000   XZ=              0.0000   YZ=              0.0000

 -0=-149.7324869\MP4SDQ=-149.6412242\CCSD=-149.8843087\CCSD(T)=-149.964
 Normal termination of Gaussian 16 at Fri Feb  9 18:15:40 2024.
