 Gaussian 16, Revision A.03,
 Gaussian 16:  ES64L-G16RevA.03 25-Dec-2016

 ------------------
 #p CCSD(T)/cc-pVTZ
 ------------------

 -----
 O2_80
 -----
 Symbolic Z-matrix:
 Charge = -1 Multiplicity = 2

                         Standard orientation:
 ---------------------------------------------------------------------
 Center     Atomic      Atomic             Coordinates (Angstroms)
 Number     Number       Type             X           Y           Z
 ---------------------------------------------------------------------
      1          8           0        0.000000    0.000000    1.600000
      2          8           0        0.000000    0.000000   -1.600000
 ---------------------------------------------------------------------

 SCF Done:  E(UHF) =  -149.267779089     A.U. after   12 cycles
 E2 =    -0.8782403203D+00 EUMP2 =    -0.15014601940955D+03
 CCSD(T)
 CCSD(T)= -0.14996428179D+03

 Unable to determine electronic state:  an orbital has unidentified symmetry.
 Alpha  occ. eigenvalues --  -20.40013 -20.40010  -1.00796  -1.00087  -0.34178
 Alpha  occ. eigenvalues --   -0.33860  -0.28697  -0.28325  -0.07902
 Alpha virt. eigenvalues --    0.12926   0.96039   0.96165   0.98666   1.00974
 Alpha virt. eigenvalues --    1.03489   1.09156   1.16081   1.31549   1.95764
 Alpha virt. eigenvalues --    1.96113   1.96639   1.96668   1.97234   1.97250

  Beta  occ. eigenvalues --  -20.37485 -20.37482  -0.91164  -0.90138  -0.26060
  Beta  occ. eigenvalues --   -0.25633  -0.06005   0.00212
  Beta virt. eigenvalues --    0.15298   0.17024   0.97241   0.99611   1.04433
  Beta virt. eigenvalues --    1.05339   1.09885   1.10522   1.18038   1.33380
  Beta virt. eigenvalues --    1.98403   1.98801   1.99340   2.00000   2.00572

 Mulliken charges and spin densities:
               1          2
     1  O   -0.500000   0.500000
     2  O   -0.500000   0.500000
 Sum of Mulliken charges =  -1.00000   1.00000

 Dipole moment (field-independent basis, Debye):
    X=             -0.0000    Y=              0.0000    Z=             -0.0000  Tot=              0.0000
 Quadrupole moment (field-independent basis, Debye-Ang):
   XX=            -12.4423   YY=            -13.3628   ZZ=            -23.3797
   XY=              0.0000   XZ=              0.0000   YZ=              0.0000

 0=-149.7496113\MP4SDQ=-149.6740167\CCSD=-149.8859082\CCSD(T)=-149.9642
 Normal termination of Gaussian 16 at Fri Feb  9 18:15:14 2024.
