 Gaussian 16, Revision A.03,
 Gaussian 16:  ES64L-G16RevA.03 25-Dec-2016

 ------------------
 #p CCSD(T)/cc-pVTZ
 ------------------

 -----
 O2_81
 -----
 Symbolic Z-matrix:
 Charge = -1 Multiplicity = 2

                         Standard orientation:
 ---------------------------------------------------------------------
 Center     Atomic      Atomic             Coordinates (Angstroms)
 Number     Number       Type             X           Y           Z
 ---------------------------------------------------------------------
      1          8           0        0.000000    0.000000    1.615000
      2          8           0        0.000000    0.000000   -1.615000
 ---------------------------------------------------------------------

 SCF Done:  E(UHF) =  -149.265340812     A.U. after   12 cycles
 E2 =    -0.8877075077D+00 EUMP2 =    -0.15015304831923D+03
 CCSD(T)
 CCSD(T)= -0.14996423561D+03

 Unable to determine electronic state:  an orbital has unidentified symmetry.
 Alpha  occ. eigenvalues --  -20.40045 -20.40043  -1.00834  -1.00157  -0.34216
 Alpha  occ. eigenvalues --   -0.33919  -0.28738  -0.28389  -0.07820
 Alpha virt. eigenvalues --    0.12693   0.95965   0.96212   0.98713   1.00796
 Alpha virt. eigenvalues --    1.03310   1.09200   1.16109   1.30764   1.95730
 Alpha virt. eigenvalues --    1.96063   1.96537   1.96557   1.97174   1.97188

  Beta  occ. eigenvalues --  -20.37521 -20.37517  -0.91204  -0.90220  -0.26102
  Beta  occ. eigenvalues --   -0.25701  -0.05917   0.00238
  Beta virt. eigenvalues --    0.15054   0.16866   0.97162   0.99657   1.04254
  Beta virt. eigenvalues --    1.05372   1.09709   1.10560   1.18071   1.32602
  Beta virt. eigenvalues --    1.98391   1.98751   1.99237   1.99955   2.00363

 Mulliken charges and spin densities:
               1          2
     1  O   -0.500000   0.500000
     2  O   -0.500000   0.500000
 Sum of Mulliken charges =  -1.00000   1.00000

 Dipole moment (field-independent basis, Debye):
    X=             -0.0000    Y=              0.0000    Z=              0.0000  Tot=              0.0000
 Quadrupole moment (field-independent basis, Debye-Ang):
   XX=            -13.3629   YY=            -12.4407   ZZ=            -23.6353
   XY=              0.0000   XZ=              0.0000   YZ=              0.0000

 -0=-149.7411981\MP4SDQ=-149.6579322\CCSD=-149.8850862\CCSD(T)=-149.964
 Normal termination of Gaussian 16 at Fri Feb  9 18:15:27 2024.
