 Gaussian 16, Revision A.03,
 Gaussian 16:  ES64L-G16RevA.03 25-Dec-2016

 ------------------
 #p CCSD(T)/cc-pVTZ
 ------------------

 -----
 O2_94
 -----
 Symbolic Z-matrix:
 Charge = -1 Multiplicity = 2

                         Standard orientation:
 ---------------------------------------------------------------------
 Center     Atomic      Atomic             Coordinates (Angstroms)
 Number     Number       Type             X           Y           Z
 ---------------------------------------------------------------------
      1          8           0        0.000000    0.000000    1.810000
      2          8           0        0.000000    0.000000   -1.810000
 ---------------------------------------------------------------------

 SCF Done:  E(UHF) =  -149.238990487     A.U. after   12 cycles
 E2 =    -0.1016530389D+01 EUMP2 =    -0.15025552087638D+03
 CCSD(T)
 CCSD(T)= -0.14996553444D+03

 Unable to determine electronic state:  an orbital has unidentified symmetry.
 Alpha  occ. eigenvalues --  -20.40330 -20.40328  -1.01246  -1.00847  -0.34612
 Alpha  occ. eigenvalues --   -0.34484  -0.29157  -0.29006  -0.06924
 Alpha virt. eigenvalues --    0.10139   0.96697   0.96852   0.98922   0.99196
 Alpha virt. eigenvalues --    1.01427   1.08640   1.16438   1.22482   1.95185
 Alpha virt. eigenvalues --    1.95432   1.95450   1.95609   1.96525   1.96527

  Beta  occ. eigenvalues --  -20.37834 -20.37831  -0.91638  -0.91039  -0.26537
  Beta  occ. eigenvalues --   -0.26362  -0.04964   0.00571
  Beta virt. eigenvalues --    0.12366   0.15173   0.97978   1.00141   1.02373
  Beta virt. eigenvalues --    1.05744   1.07857   1.09850   1.18464   1.24469
  Beta virt. eigenvalues --    1.97924   1.98114   1.98295   1.98472   1.99361

 Mulliken charges and spin densities:
               1          2
     1  O   -0.500000   0.500000
     2  O   -0.500000   0.500000
 Sum of Mulliken charges =  -1.00000   1.00000

 Dipole moment (field-independent basis, Debye):
    X=             -0.0000    Y=              0.0000    Z=              0.0000  Tot=              0.0000
 Quadrupole moment (field-independent basis, Debye-Ang):
   XX=            -13.3622   YY=            -12.4223   ZZ=            -27.1801
   XY=              0.0000   XZ=              0.0000   YZ=              0.0000

 -0=-149.6025338\MP4SDQ=-149.3900518\CCSD=-149.8775762\CCSD(T)=-149.965
 Normal termination of Gaussian 16 at Fri Feb  9 18:18:20 2024.
