 Gaussian 16, Revision A.03,
 Gaussian 16:  ES64L-G16RevA.03 25-Dec-2016

 ------------------
 #p CCSD(T)/cc-pVTZ
 ------------------

 -----
 O2_90
 -----
 Symbolic Z-matrix:
 Charge = -1 Multiplicity = 2

                         Standard orientation:
 ---------------------------------------------------------------------
 Center     Atomic      Atomic             Coordinates (Angstroms)
 Number     Number       Type             X           Y           Z
 ---------------------------------------------------------------------
      1          8           0        0.000000    0.000000    1.750000
      2          8           0        0.000000    0.000000   -1.750000
 ---------------------------------------------------------------------

 SCF Done:  E(UHF) =  -149.246118025     A.U. after   12 cycles
 E2 =    -0.9760250541D+00 EUMP2 =    -0.15022214307906D+03
 CCSD(T)
 CCSD(T)= -0.14996486329D+03

 Unable to determine electronic state:  an orbital has unidentified symmetry.
 Alpha  occ. eigenvalues --  -20.40263 -20.40261  -1.01133  -1.00669  -0.34506
 Alpha  occ. eigenvalues --   -0.34340  -0.29045  -0.28849  -0.07167
 Alpha virt. eigenvalues --    0.10839   0.96312   0.96579   0.99079   0.99413
 Alpha virt. eigenvalues --    1.01920   1.09049   1.16345   1.24566   1.95355
 Alpha virt. eigenvalues --    1.95615   1.95717   1.95838   1.96701   1.96705

  Beta  occ. eigenvalues --  -20.37759 -20.37756  -0.91518  -0.90827  -0.26421
  Beta  occ. eigenvalues --   -0.26194  -0.05220   0.00471
  Beta virt. eigenvalues --    0.13104   0.15631   0.97457   1.00024   1.02865
  Beta virt. eigenvalues --    1.05653   1.08341   1.10315   1.18354   1.26498
  Beta virt. eigenvalues --    1.98091   1.98299   1.98527   1.98866   1.99534

 Mulliken charges and spin densities:
               1          2
     1  O   -0.500000   0.500000
     2  O   -0.500000   0.500000
 Sum of Mulliken charges =  -1.00000   1.00000

 Dipole moment (field-independent basis, Debye):
    X=             -0.0000    Y=              0.0000    Z=             -0.0000  Tot=              0.0000
 Quadrupole moment (field-independent basis, Debye-Ang):
   XX=            -12.4276   YY=            -13.3628   ZZ=            -26.0523
   XY=              0.0000   XZ=              0.0000   YZ=              0.0000

 =-149.6512747\MP4SDQ=-149.4842718\CCSD=-149.8793581\CCSD(T)=-149.96486
 Normal termination of Gaussian 16 at Fri Feb  9 18:17:26 2024.
