 Gaussian 16, Revision A.03,
 Gaussian 16:  ES64L-G16RevA.03 25-Dec-2016

 ------------------
 #p CCSD(T)/cc-pVTZ
 ------------------

 -----
 O2_95
 -----
 Symbolic Z-matrix:
 Charge = -1 Multiplicity = 2

                         Standard orientation:
 ---------------------------------------------------------------------
 Center     Atomic      Atomic             Coordinates (Angstroms)
 Number     Number       Type             X           Y           Z
 ---------------------------------------------------------------------
      1          8           0        0.000000    0.000000    1.825000
      2          8           0        0.000000    0.000000   -1.825000
 ---------------------------------------------------------------------

 SCF Done:  E(UHF) =  -149.237332099     A.U. after   12 cycles
 E2 =    -0.1026720506D+01 EUMP2 =    -0.15026405260479D+03
 CCSD(T)
 CCSD(T)= -0.14996572354D+03

 Unable to determine electronic state:  an orbital has unidentified symmetry.
 Alpha  occ. eigenvalues --  -20.40345 -20.40343  -1.01273  -1.00888  -0.34637
 Alpha  occ. eigenvalues --   -0.34517  -0.29183  -0.29042  -0.06867
 Alpha virt. eigenvalues --    0.09975   0.96720   0.97006   0.98810   0.99221
 Alpha virt. eigenvalues --    1.01315   1.08506   1.16459   1.22032   1.95144
 Alpha virt. eigenvalues --    1.95388   1.95391   1.95557   1.96483   1.96485

  Beta  occ. eigenvalues --  -20.37851 -20.37848  -0.91666  -0.91088  -0.26564
  Beta  occ. eigenvalues --   -0.26400  -0.04904   0.00595
  Beta virt. eigenvalues --    0.12192   0.15065   0.98128   1.00165   1.02261
  Beta virt. eigenvalues --    1.05763   1.07747   1.09702   1.18488   1.24033
  Beta virt. eigenvalues --    1.97882   1.98070   1.98242   1.98391   1.99319

 Mulliken charges and spin densities:
               1          2
     1  O   -0.500000   0.500000
     2  O   -0.500000   0.500000
 Sum of Mulliken charges =  -1.00000   1.00000

 Dipole moment (field-independent basis, Debye):
    X=             -0.0000    Y=             -0.0000    Z=             -0.0000  Tot=              0.0000
 Quadrupole moment (field-independent basis, Debye-Ang):
   XX=            -12.4211   YY=            -13.3620   ZZ=            -27.4662
   XY=              0.0000   XZ=              0.0000   YZ=              0.0000

 -0=-149.5894778\MP4SDQ=-149.3648874\CCSD=-149.8771879\CCSD(T)=-149.965
 Normal termination of Gaussian 16 at Fri Feb  9 18:18:33 2024.
