 Gaussian 16, Revision A.03,
 Gaussian 16:  ES64L-G16RevA.03 25-Dec-2016

 ------------------
 #p CCSD(T)/cc-pVTZ
 ------------------

 -----
 O2_96
 -----
 Symbolic Z-matrix:
 Charge = -1 Multiplicity = 2

                         Standard orientation:
 ---------------------------------------------------------------------
 Center     Atomic      Atomic             Coordinates (Angstroms)
 Number     Number       Type             X           Y           Z
 ---------------------------------------------------------------------
      1          8           0        0.000000    0.000000    1.840000
      2          8           0        0.000000    0.000000   -1.840000
 ---------------------------------------------------------------------

 SCF Done:  E(UHF) =  -149.235721154     A.U. after   12 cycles
 E2 =    -0.1036926498D+01 EUMP2 =    -0.15027264765174D+03
 CCSD(T)
 CCSD(T)= -0.14996591913D+03

 Unable to determine electronic state:  an orbital has unidentified symmetry.
 Alpha  occ. eigenvalues --  -20.40360 -20.40358  -1.01300  -1.00928  -0.34661
 Alpha  occ. eigenvalues --   -0.34549  -0.29209  -0.29077  -0.06812
 Alpha virt. eigenvalues --    0.09814   0.96742   0.97166   0.98702   0.99242
 Alpha virt. eigenvalues --    1.01207   1.08360   1.16480   1.21612   1.95103
 Alpha virt. eigenvalues --    1.95334   1.95346   1.95506   1.96443   1.96444

  Beta  occ. eigenvalues --  -20.37867 -20.37865  -0.91694  -0.91135  -0.26591
  Beta  occ. eigenvalues --   -0.26438  -0.04847   0.00620
  Beta virt. eigenvalues --    0.12023   0.14960   0.98283   1.00187   1.02153
  Beta virt. eigenvalues --    1.05780   1.07642   1.09542   1.18512   1.23626
  Beta virt. eigenvalues --    1.97841   1.98026   1.98191   1.98316   1.99279

 Mulliken charges and spin densities:
               1          2
     1  O   -0.500000   0.500000
     2  O   -0.500000   0.500000
 Sum of Mulliken charges =  -1.00000   1.00000

 Dipole moment (field-independent basis, Debye):
    X=             -0.0000    Y=              0.0000    Z=             -0.0000  Tot=              0.0000
 Quadrupole moment (field-independent basis, Debye-Ang):
   XX=            -13.3618   YY=            -12.4198   ZZ=            -27.7537
   XY=              0.0000   XZ=              0.0000   YZ=              0.0000

 -0=-149.5760731\MP4SDQ=-149.3390941\CCSD=-149.8768203\CCSD(T)=-149.965
 Normal termination of Gaussian 16 at Fri Feb  9 18:18:46 2024.
