 Gaussian 16, Revision A.03,
 Gaussian 16:  ES64L-G16RevA.03 25-Dec-2016

 ------------------
 #p CCSD(T)/cc-pVTZ
 ------------------

 -----
 O2_91
 -----
 Symbolic Z-matrix:
 Charge = -1 Multiplicity = 2

                         Standard orientation:
 ---------------------------------------------------------------------
 Center     Atomic      Atomic             Coordinates (Angstroms)
 Number     Number       Type             X           Y           Z
 ---------------------------------------------------------------------
      1          8           0        0.000000    0.000000    1.765000
      2          8           0        0.000000    0.000000   -1.765000
 ---------------------------------------------------------------------

 SCF Done:  E(UHF) =  -149.244260052     A.U. after   12 cycles
 E2 =    -0.9861032916D+00 EUMP2 =    -0.15023036334307D+03
 CCSD(T)
 CCSD(T)= -0.14996501531D+03

 Unable to determine electronic state:  an orbital has unidentified symmetry.
 Alpha  occ. eigenvalues --  -20.40281 -20.40279  -1.01162  -1.00716  -0.34534
 Alpha  occ. eigenvalues --   -0.34378  -0.29074  -0.28890  -0.07103
 Alpha virt. eigenvalues --    0.10658   0.96433   0.96612   0.99111   0.99283
 Alpha virt. eigenvalues --    1.01790   1.08966   1.16369   1.24002   1.95311
 Alpha virt. eigenvalues --    1.95568   1.95645   1.95777   1.96656   1.96659

  Beta  occ. eigenvalues --  -20.37779 -20.37776  -0.91549  -0.90883  -0.26451
  Beta  occ. eigenvalues --   -0.26238  -0.05153   0.00496
  Beta virt. eigenvalues --    0.12912   0.15512   0.97573   1.00056   1.02735
  Beta virt. eigenvalues --    1.05678   1.08213   1.10219   1.18383   1.25948
  Beta virt. eigenvalues --    1.98049   1.98251   1.98466   1.98755   1.99490

 Mulliken charges and spin densities:
               1          2
     1  O   -0.500000   0.500000
     2  O   -0.500000   0.500000
 Sum of Mulliken charges =  -1.00000   1.00000

 Dipole moment (field-independent basis, Debye):
    X=             -0.0000    Y=             -0.0000    Z=             -0.0000  Tot=              0.0000
 Quadrupole moment (field-independent basis, Debye-Ang):
   XX=            -12.4262   YY=            -13.3627   ZZ=            -26.3317
   XY=              0.0000   XZ=              0.0000   YZ=              0.0000

 =-149.6396103\MP4SDQ=-149.4616942\CCSD=-149.8788754\CCSD(T)=-149.96501
 Normal termination of Gaussian 16 at Fri Feb  9 18:17:40 2024.
