 Gaussian 16, Revision A.03,
 Gaussian 16:  ES64L-G16RevA.03 25-Dec-2016

 ------------------
 #p CCSD(T)/cc-pVTZ
 ------------------

 -----
 O2_99
 -----
 Symbolic Z-matrix:
 Charge = -1 Multiplicity = 2

                         Standard orientation:
 ---------------------------------------------------------------------
 Center     Atomic      Atomic             Coordinates (Angstroms)
 Number     Number       Type             X           Y           Z
 ---------------------------------------------------------------------
      1          8           0        0.000000    0.000000    1.885000
      2          8           0        0.000000    0.000000   -1.885000
 ---------------------------------------------------------------------

 SCF Done:  E(UHF) =  -149.231163371     A.U. after   12 cycles
 E2 =    -0.1067594150D+01 EUMP2 =    -0.15029875752098D+03
 CCSD(T)
 CCSD(T)= -0.14996653296D+03

 Unable to determine electronic state:  an orbital has unidentified symmetry.
 Alpha  occ. eigenvalues --  -20.40404 -20.40402  -1.01377  -1.01042  -0.34733
 Alpha  occ. eigenvalues --   -0.34641  -0.29285  -0.29177  -0.06657
 Alpha virt. eigenvalues --    0.09354   0.96794   0.97663   0.98403   0.99295
 Alpha virt. eigenvalues --    1.00907   1.07858   1.16534   1.20514   1.94986
 Alpha virt. eigenvalues --    1.95180   1.95222   1.95363   1.96325   1.96327

  Beta  occ. eigenvalues --  -20.37916 -20.37913  -0.91776  -0.91270  -0.26670
  Beta  occ. eigenvalues --   -0.26544  -0.04684   0.00690
  Beta virt. eigenvalues --    0.11538   0.14658   0.98768   1.00240   1.01854
  Beta virt. eigenvalues --    1.05819   1.07348   1.09002   1.18576   1.22564
  Beta virt. eigenvalues --    1.97722   1.97901   1.98046   1.98115   1.99161

 Mulliken charges and spin densities:
               1          2
     1  O   -0.500000   0.500000
     2  O   -0.500000   0.500000
 Sum of Mulliken charges =  -1.00000   1.00000

 Dipole moment (field-independent basis, Debye):
    X=             -0.0000    Y=              0.0000    Z=              0.0000  Tot=              0.0000
 Quadrupole moment (field-independent basis, Debye-Ang):
   XX=            -13.3611   YY=            -12.4163   ZZ=            -28.6250
   XY=              0.0000   XZ=              0.0000   YZ=              0.0000

 -0=-149.5337754\MP4SDQ=-149.2580396\CCSD=-149.8758298\CCSD(T)=-149.966
 Normal termination of Gaussian 16 at Fri Feb  9 18:19:26 2024.
