 Gaussian 16, Revision A.03,
 Gaussian 16:  ES64L-G16RevA.03 25-Dec-2016

 ------------------
 #p CCSD(T)/cc-pVTZ
 ------------------

 -----
 O2_98
 -----
 Symbolic Z-matrix:
 Charge = -1 Multiplicity = 2

                         Standard orientation:
 ---------------------------------------------------------------------
 Center     Atomic      Atomic             Coordinates (Angstroms)
 Number     Number       Type             X           Y           Z
 ---------------------------------------------------------------------
      1          8           0        0.000000    0.000000    1.870000
      2          8           0        0.000000    0.000000   -1.870000
 ---------------------------------------------------------------------

 SCF Done:  E(UHF) =  -149.232637749     A.U. after   12 cycles
 E2 =    -0.1057367726D+01 EUMP2 =    -0.15029000547447D+03
 CCSD(T)
 CCSD(T)= -0.14996632372D+03

 Unable to determine electronic state:  an orbital has unidentified symmetry.
 Alpha  occ. eigenvalues --  -20.40389 -20.40388  -1.01352  -1.01005  -0.34710
 Alpha  occ. eigenvalues --   -0.34611  -0.29260  -0.29144  -0.06707
 Alpha virt. eigenvalues --    0.09504   0.96779   0.97495   0.98499   0.99280
 Alpha virt. eigenvalues --    1.01003   1.08035   1.16517   1.20853   1.95024
 Alpha virt. eigenvalues --    1.95229   1.95262   1.95409   1.96364   1.96365

  Beta  occ. eigenvalues --  -20.37900 -20.37897  -0.91749  -0.91226  -0.26644
  Beta  occ. eigenvalues --   -0.26509  -0.04737   0.00667
  Beta virt. eigenvalues --    0.11696   0.14756   0.98605   1.00225   1.01950
  Beta virt. eigenvalues --    1.05808   1.07442   1.09191   1.18556   1.22892
  Beta virt. eigenvalues --    1.97761   1.97942   1.98093   1.98178   1.99199

 Mulliken charges and spin densities:
               1          2
     1  O   -0.500000   0.500000
     2  O   -0.500000   0.500000
 Sum of Mulliken charges =  -1.00000   1.00000

 Dipole moment (field-independent basis, Debye):
    X=             -0.0000    Y=             -0.0000    Z=             -0.0000  Tot=              0.0000
 Quadrupole moment (field-independent basis, Debye-Ang):
   XX=            -12.4175   YY=            -13.3613   ZZ=            -28.3332
   XY=              0.0000   XZ=              0.0000   YZ=              0.0000

 3-0=-149.5482206\MP4SDQ=-149.2856593\CCSD=-149.8761415\CCSD(T)=-149.96
 Normal termination of Gaussian 16 at Fri Feb  9 18:19:13 2024.
