 Gaussian 16, Revision A.03,
 Gaussian 16:  ES64L-G16RevA.03 25-Dec-2016

 ------------------
 #p CCSD(T)/cc-pVTZ
 ------------------

 -----
 O2_92
 -----
 Symbolic Z-matrix:
 Charge = -1 Multiplicity = 2

                         Standard orientation:
 ---------------------------------------------------------------------
 Center     Atomic      Atomic             Coordinates (Angstroms)
 Number     Number       Type             X           Y           Z
 ---------------------------------------------------------------------
      1          8           0        0.000000    0.000000    1.780000
      2          8           0        0.000000    0.000000   -1.780000
 ---------------------------------------------------------------------

 SCF Done:  E(UHF) =  -149.242453477     A.U. after   12 cycles
 E2 =    -0.9962168949D+00 EUMP2 =    -0.15023867037222D+03
 CCSD(T)
 CCSD(T)= -0.14996517844D+03

 Unable to determine electronic state:  an orbital has unidentified symmetry.
 Alpha  occ. eigenvalues --  -20.40298 -20.40296  -1.01191  -1.00761  -0.34560
 Alpha  occ. eigenvalues --   -0.34415  -0.29102  -0.28930  -0.07042
 Alpha virt. eigenvalues --    0.10481   0.96564   0.96642   0.99142   0.99158
 Alpha virt. eigenvalues --    1.01664   1.08871   1.16393   1.23466   1.95269
 Alpha virt. eigenvalues --    1.95522   1.95576   1.95719   1.96611   1.96614

  Beta  occ. eigenvalues --  -20.37798 -20.37795  -0.91579  -0.90937  -0.26480
  Beta  occ. eigenvalues --   -0.26281  -0.05088   0.00521
  Beta virt. eigenvalues --    0.12726   0.15396   0.97699   1.00086   1.02610
  Beta virt. eigenvalues --    1.05702   1.08090   1.10109   1.18411   1.25426
  Beta virt. eigenvalues --    1.98007   1.98204   1.98407   1.98653   1.99446

 Mulliken charges and spin densities:
               1          2
     1  O   -0.500000   0.500000
     2  O   -0.500000   0.500000
 Sum of Mulliken charges =  -1.00000   1.00000

 Dipole moment (field-independent basis, Debye):
    X=             -0.0000    Y=              0.0000    Z=              0.0000  Tot=              0.0000
 Quadrupole moment (field-independent basis, Debye-Ang):
   XX=            -12.4249   YY=            -13.3625   ZZ=            -26.6128
   XY=              0.0000   XZ=              0.0000   YZ=              0.0000

 3-0=-149.6275996\MP4SDQ=-149.4384617\CCSD=-149.8784182\CCSD(T)=-149.96
 Normal termination of Gaussian 16 at Fri Feb  9 18:17:54 2024.
