 Gaussian 16, Revision A.03,
 Gaussian 16:  ES64L-G16RevA.03 25-Dec-2016

 ------------------
 #p CCSD(T)/cc-pVTZ
 ------------------

 -----
 O2_97
 -----
 Symbolic Z-matrix:
 Charge = -1 Multiplicity = 2

                         Standard orientation:
 ---------------------------------------------------------------------
 Center     Atomic      Atomic             Coordinates (Angstroms)
 Number     Number       Type             X           Y           Z
 ---------------------------------------------------------------------
      1          8           0        0.000000    0.000000    1.855000
      2          8           0        0.000000    0.000000   -1.855000
 ---------------------------------------------------------------------

 SCF Done:  E(UHF) =  -149.234156690     A.U. after   12 cycles
 E2 =    -0.1047143733D+01 EUMP2 =    -0.15028130042374D+03
 CCSD(T)
 CCSD(T)= -0.14996611828D+03

 Unable to determine electronic state:  an orbital has unidentified symmetry.
 Alpha  occ. eigenvalues --  -20.40375 -20.40373  -1.01326  -1.00967  -0.34686
 Alpha  occ. eigenvalues --   -0.34581  -0.29235  -0.29111  -0.06759
 Alpha virt. eigenvalues --    0.09657   0.96762   0.97329   0.98599   0.99262
 Alpha virt. eigenvalues --    1.01103   1.08202   1.16499   1.21219   1.95064
 Alpha virt. eigenvalues --    1.95281   1.95304   1.95457   1.96403   1.96404

  Beta  occ. eigenvalues --  -20.37884 -20.37881  -0.91722  -0.91181  -0.26618
  Beta  occ. eigenvalues --   -0.26474  -0.04791   0.00643
  Beta virt. eigenvalues --    0.11857   0.14857   0.98442   1.00207   1.02049
  Beta virt. eigenvalues --    1.05795   1.07540   1.09371   1.18535   1.23246
  Beta virt. eigenvalues --    1.97801   1.97984   1.98141   1.98245   1.99239

 Mulliken charges and spin densities:
               1          2
     1  O   -0.500000   0.500000
     2  O   -0.500000   0.500000
 Sum of Mulliken charges =  -1.00000   1.00000

 Dipole moment (field-independent basis, Debye):
    X=             -0.0000    Y=             -0.0000    Z=              0.0000  Tot=              0.0000
 Quadrupole moment (field-independent basis, Debye-Ang):
   XX=            -13.3616   YY=            -12.4186   ZZ=            -28.0427
   XY=              0.0000   XZ=              0.0000   YZ=              0.0000

 3-0=-149.5623203\MP4SDQ=-149.3126812\CCSD=-149.876471\CCSD(T)=-149.966
 Normal termination of Gaussian 16 at Fri Feb  9 18:19:00 2024.
