 Gaussian 16, Revision A.03,
 Gaussian 16:  ES64L-G16RevA.03 25-Dec-2016

 ------------------
 #p CCSD(T)/cc-pVTZ
 ------------------

 -----
 O2_93
 -----
 Symbolic Z-matrix:
 Charge = -1 Multiplicity = 2

                         Standard orientation:
 ---------------------------------------------------------------------
 Center     Atomic      Atomic             Coordinates (Angstroms)
 Number     Number       Type             X           Y           Z
 ---------------------------------------------------------------------
      1          8           0        0.000000    0.000000    1.795000
      2          8           0        0.000000    0.000000   -1.795000
 ---------------------------------------------------------------------

 SCF Done:  E(UHF) =  -149.240697287     A.U. after   12 cycles
 E2 =    -0.1006360901D+01 EUMP2 =    -0.15024705818873D+03
 CCSD(T)
 CCSD(T)= -0.14996535284D+03

 Unable to determine electronic state:  an orbital has unidentified symmetry.
 Alpha  occ. eigenvalues --  -20.40314 -20.40312  -1.01219  -1.00805  -0.34586
 Alpha  occ. eigenvalues --   -0.34450  -0.29130  -0.28969  -0.06982
 Alpha virt. eigenvalues --    0.10308   0.96670   0.96704   0.99038   0.99170
 Alpha virt. eigenvalues --    1.01544   1.08762   1.16416   1.22959   1.95226
 Alpha virt. eigenvalues --    1.95476   1.95511   1.95663   1.96567   1.96570

  Beta  occ. eigenvalues --  -20.37816 -20.37814  -0.91608  -0.90989  -0.26509
  Beta  occ. eigenvalues --   -0.26322  -0.05025   0.00546
  Beta virt. eigenvalues --    0.12543   0.15283   0.97835   1.00115   1.02489
  Beta virt. eigenvalues --    1.05724   1.07972   1.09986   1.18438   1.24933
  Beta virt. eigenvalues --    1.97965   1.98159   1.98350   1.98559   1.99403

 Mulliken charges and spin densities:
               1          2
     1  O   -0.500000   0.500000
     2  O   -0.500000   0.500000
 Sum of Mulliken charges =  -1.00000   1.00000

 Dipole moment (field-independent basis, Debye):
    X=             -0.0000    Y=              0.0000    Z=              0.0000  Tot=              0.0000
 Quadrupole moment (field-independent basis, Debye-Ang):
   XX=            -13.3624   YY=            -12.4236   ZZ=            -26.8957
   XY=              0.0000   XZ=              0.0000   YZ=              0.0000

 3-0=-149.615241\MP4SDQ=-149.414579\CCSD=-149.8779863\CCSD(T)=-149.9653
 Normal termination of Gaussian 16 at Fri Feb  9 18:18:07 2024.
