 Gaussian 16, Revision A.03,
 Gaussian 16:  ES64L-G16RevA.03 25-Dec-2016

 --------------------
 #p ROCCSD(T)/cc-pVTZ
 --------------------

 ----------
 CO2_CO2_54
 ----------
 Symbolic Z-matrix:
 Charge = -1 Multiplicity = 2

                         Standard orientation:
 ---------------------------------------------------------------------
 Center     Atomic      Atomic             Coordinates (Angstroms)
 Number     Number       Type             X           Y           Z
 ---------------------------------------------------------------------
      1          8           0        0.000000    0.000000    3.186000
      2          6           0        0.000000    0.000000    2.023000
      3          8           0        0.000000    0.000000    0.860000
      4          8           0        0.000000    0.000000   -0.860000
      5          6           0        0.000000    0.000000   -2.023000
      6          8           0        0.000000    0.000000   -3.186000
 ---------------------------------------------------------------------

 SCF Done:  E(ROHF) =  -375.124009450     A.U. after   13 cycles
 E2 =    -0.1251178099D+01 EUMP2 =    -0.37637518754851D+03
 CCSD(T)
 CCSD(T)= -0.37641003754D+03

 Unable to determine electronic state:  an orbital has unidentified symmetry.
 Alpha  occ. eigenvalues --  -20.38693 -20.38693 -20.37366 -20.37365 -11.15661
 Alpha  occ. eigenvalues --  -11.15661  -1.28678  -1.26970  -1.23372  -1.20695
 Alpha  occ. eigenvalues --   -0.67118  -0.54060  -0.52621  -0.49823  -0.47889
 Alpha  occ. eigenvalues --   -0.47215  -0.45307  -0.35373  -0.34643  -0.31734
 Alpha  occ. eigenvalues --   -0.30104  -0.27505   0.16436
 Alpha virt. eigenvalues --    0.34426   0.35847   0.38084   0.42049   0.45060
 Alpha virt. eigenvalues --    0.50560   0.57488   0.57654   0.59146   0.60060
 Alpha virt. eigenvalues --    0.62565   0.74905   0.79430   0.87249   0.88022

 Mulliken charges and spin densities:
               1          2
     1  O   -0.480393   0.058888
     2  C    0.235262   0.373586
     3  O   -0.254869   0.067526
     4  O   -0.254869   0.067526
     5  C    0.235262   0.373586
     6  O   -0.480393   0.058888
 Sum of Mulliken charges =  -1.00000   1.00000

 Dipole moment (field-independent basis, Debye):
    X=             -0.0000    Y=             -0.0000    Z=              0.0000  Tot=              0.0000
 Quadrupole moment (field-independent basis, Debye-Ang):
   XX=            -33.7689   YY=            -31.6197   ZZ=            -72.8385
   XY=              0.0000   XZ=              0.0000   YZ=              0.0000

 48\CCSD(T)=-376.4100375\RMSD=5.993e-09\PG=D*H [C*(O1C1O1.O1C1O1)]\\@
 Normal termination of Gaussian 16 at Mon Feb 19 19:58:48 2024.
