 Gaussian 16, Revision A.03,
 Gaussian 16:  ES64L-G16RevA.03 25-Dec-2016

 --------------------
 #p ROCCSD(T)/cc-pVTZ
 --------------------

 -----------
 CO2_CO2_114
 -----------
 Symbolic Z-matrix:
 Charge = -1 Multiplicity = 2

                         Standard orientation:
 ---------------------------------------------------------------------
 Center     Atomic      Atomic             Coordinates (Angstroms)
 Number     Number       Type             X           Y           Z
 ---------------------------------------------------------------------
      1          8           0        0.000000    0.000000    3.586000
      2          6           0        0.000000    0.000000    2.423000
      3          8           0        0.000000    0.000000    1.260000
      4          8           0        0.000000    0.000000   -1.260000
      5          6           0        0.000000    0.000000   -2.423000
      6          8           0        0.000000    0.000000   -3.586000
 ---------------------------------------------------------------------

 SCF Done:  E(ROHF) =  -375.216399646     A.U. after   12 cycles
 E2 =    -0.1235990777D+01 EUMP2 =    -0.37645239042324D+03
 CCSD(T)
 CCSD(T)= -0.37648923549D+03

 Unable to determine electronic state:  an orbital has unidentified symmetry.
 Alpha  occ. eigenvalues --  -20.40551 -20.40551 -20.40191 -20.40191 -11.18484
 Alpha  occ. eigenvalues --  -11.18483  -1.29325  -1.29172  -1.23879  -1.23571
 Alpha  occ. eigenvalues --   -0.59040  -0.56788  -0.52434  -0.50583  -0.50236
 Alpha  occ. eigenvalues --   -0.48625  -0.48007  -0.47734  -0.35243  -0.33970
 Alpha  occ. eigenvalues --   -0.31619  -0.30917   0.17548
 Alpha virt. eigenvalues --    0.29931   0.35263   0.36119   0.41696   0.42504
 Alpha virt. eigenvalues --    0.50602   0.55399   0.57393   0.58195   0.59020
 Alpha virt. eigenvalues --    0.60135   0.74817   0.75857   0.86303   0.86431

 Mulliken charges and spin densities:
               1          2
     1  O   -0.439639   0.057360
     2  C    0.242141   0.374963
     3  O   -0.302502   0.067677
     4  O   -0.302502   0.067677
     5  C    0.242141   0.374963
     6  O   -0.439639   0.057360
 Sum of Mulliken charges =  -1.00000   1.00000

 Dipole moment (field-independent basis, Debye):
    X=             -0.0000    Y=             -0.0000    Z=             -0.0000  Tot=              0.0000
 Quadrupole moment (field-independent basis, Debye-Ang):
   XX=            -33.8616   YY=            -31.6629   ZZ=            -79.2101
   XY=              0.0000   XZ=              0.0000   YZ=              0.0000

 5732\CCSD(T)=-376.4892355\RMSD=4.089e-09\PG=D*H [C*(O1C1O1.O1C1O1)]\\@
 Normal termination of Gaussian 16 at Tue Feb 20 17:42:29 2024.
