 Gaussian 16, Revision A.03,
 Gaussian 16:  ES64L-G16RevA.03 25-Dec-2016

 --------------------
 #p ROCCSD(T)/cc-pVTZ
 --------------------

 ----------
 CO2_CO2_43
 ----------
 Symbolic Z-matrix:
 Charge = -1 Multiplicity = 2

                         Standard orientation:
 ---------------------------------------------------------------------
 Center     Atomic      Atomic             Coordinates (Angstroms)
 Number     Number       Type             X           Y           Z
 ---------------------------------------------------------------------
      1          8           0        1.233548   -2.595048    0.000000
      2          6           0        0.411183   -1.772683    0.000000
      3          8           0       -0.411183   -0.950318    0.000000
      4          8           0       -0.411183    0.609683   -0.000000
      5          6           0       -0.411183    1.772683   -0.000000
      6          8           0       -0.411183    2.935682   -0.000000
 ---------------------------------------------------------------------

 SCF Done:  E(ROHF) =  -375.039366373     A.U. after   19 cycles
 E2 =    -0.1265272722D+01 EUMP2 =    -0.37630463909489D+03
 CCSD(T)
 CCSD(T)= -0.37633890211D+03

 The electronic state is 2-A".
 Alpha  occ. eigenvalues --  -20.40390 -20.38853 -20.35656 -20.35528 -11.17555
 Alpha  occ. eigenvalues --  -11.12219  -1.30908  -1.26662  -1.23287  -1.19155
 Alpha  occ. eigenvalues --   -0.70632  -0.54837  -0.51108  -0.50998  -0.48977
 Alpha  occ. eigenvalues --   -0.46698  -0.44655  -0.36268  -0.35882  -0.30609
 Alpha  occ. eigenvalues --   -0.28884  -0.20094   0.15792
 Alpha virt. eigenvalues --    0.35146   0.35621   0.39494   0.41840   0.45218
 Alpha virt. eigenvalues --    0.52782   0.56446   0.56767   0.58688   0.61867
 Alpha virt. eigenvalues --    0.67535   0.75783   0.80500   0.86559   0.89151

 Mulliken charges and spin densities:
               1          2
     1  O   -0.484678   0.073611
     2  C    0.180659   0.453332
     3  O   -0.287024   0.061061
     4  O   -0.207209   0.052389
     5  C    0.262440   0.312095
     6  O   -0.464188   0.047513
 Sum of Mulliken charges =  -1.00000   1.00000

 Dipole moment (field-independent basis, Debye):
    X=             -0.8387    Y=              1.4562    Z=             -0.0000  Tot=              1.6804
 Quadrupole moment (field-independent basis, Debye-Ang):
   XX=            -36.9071   YY=            -64.5175   ZZ=            -33.7970
   XY=              8.8833   XZ=             -0.0000   YZ=              0.0000

 6391\MP4SDQ=-376.2840213\CCSD=-376.2759515\CCSD(T)=-376.3389021\RMSD=4
 Normal termination of Gaussian 16 at Mon Feb 19 18:11:38 2024.
