 Gaussian 16, Revision A.03,
 Gaussian 16:  ES64L-G16RevA.03 25-Dec-2016

 --------------------
 #p ROCCSD(T)/cc-pVTZ
 --------------------

 -----------
 CO2_CO2_193
 -----------
 Symbolic Z-matrix:
 Charge = -1 Multiplicity = 2

                         Standard orientation:
 ---------------------------------------------------------------------
 Center     Atomic      Atomic             Coordinates (Angstroms)
 Number     Number       Type             X           Y           Z
 ---------------------------------------------------------------------
      1          8           0        1.233548   -3.595048   -0.000000
      2          6           0        0.411183   -2.772683   -0.000000
      3          8           0       -0.411183   -1.950317   -0.000000
      4          8           0       -0.411183    1.609682    0.000000
      5          6           0       -0.411183    2.772682    0.000000
      6          8           0       -0.411183    3.935683    0.000000
 ---------------------------------------------------------------------

 SCF Done:  E(ROHF) =  -375.220264267     A.U. after   15 cycles
 E2 =    -0.1232686687D+01 EUMP2 =    -0.37645295095445D+03
 CCSD(T)
 CCSD(T)= -0.37648818842D+03

 The electronic state is 2-A".
 Alpha  occ. eigenvalues --  -20.42029 -20.41747 -20.41420 -20.41174 -11.20283
 Alpha  occ. eigenvalues --  -11.19588  -1.30733  -1.30162  -1.25270  -1.24703
 Alpha  occ. eigenvalues --   -0.59165  -0.58635  -0.52569  -0.51986  -0.51860
 Alpha  occ. eigenvalues --   -0.51395  -0.49353  -0.48762  -0.36236  -0.35723
 Alpha  occ. eigenvalues --   -0.32785  -0.32237   0.17685
 Alpha virt. eigenvalues --    0.27340   0.34199   0.35134   0.40746   0.41318
 Alpha virt. eigenvalues --    0.48544   0.53184   0.56704   0.57175   0.58329
 Alpha virt. eigenvalues --    0.59225   0.74754   0.75194   0.79909   0.84793

 Mulliken charges and spin densities:
               1          2
     1  O   -0.413041   0.059213
     2  C    0.263842   0.384670
     3  O   -0.358898   0.064425
     4  O   -0.346612   0.063200
     5  C    0.265256   0.371941
     6  O   -0.410546   0.056550
 Sum of Mulliken charges =  -1.00000   1.00000

 Dipole moment (field-independent basis, Debye):
    X=             -0.1527    Y=              0.1552    Z=             -0.0000  Tot=              0.2178
 Quadrupole moment (field-independent basis, Debye-Ang):
   XX=            -36.3347   YY=            -82.6300   ZZ=            -33.8464
   XY=              9.7833   XZ=             -0.0000   YZ=             -0.0000

 MP4SDQ=-376.438085\CCSD=-376.4345292\CCSD(T)=-376.4881884\RMSD=7.422e-
 Normal termination of Gaussian 16 at Tue Feb 20 15:51:09 2024.
