 Gaussian 16, Revision A.03,
 Gaussian 16:  ES64L-G16RevA.03 25-Dec-2016

 --------------------
 #p ROCCSD(T)/cc-pVTZ
 --------------------

 ----------
 CO2_CO2_12
 ----------
 Symbolic Z-matrix:
 Charge = -1 Multiplicity = 2

                         Standard orientation:
 ---------------------------------------------------------------------
 Center     Atomic      Atomic             Coordinates (Angstroms)
 Number     Number       Type             X           Y           Z
 ---------------------------------------------------------------------
      1          8           0        0.000000    0.000000    2.906000
      2          6           0        0.000000    0.000000    1.743000
      3          8           0        0.000000    0.000000    0.580000
      4          8           0        0.000000    0.000000   -0.580000
      5          6           0        0.000000    0.000000   -1.743000
      6          8           0        0.000000    0.000000   -2.906000
 ---------------------------------------------------------------------

 SCF Done:  E(ROHF) =  -374.512432536     A.U. after   14 cycles
 E2 =    -0.1364741973D+01 EUMP2 =    -0.37587717450897D+03
 CCSD(T)
 CCSD(T)= -0.37588648420D+03

 Unable to determine electronic state:  an orbital has unidentified symmetry.
 Alpha  occ. eigenvalues --  -20.43688 -20.43621 -20.36452 -20.36452 -11.13534
 Alpha  occ. eigenvalues --  -11.13534  -1.51375  -1.25441  -1.23158  -1.19731
 Alpha  occ. eigenvalues --   -0.91929  -0.61585  -0.59632  -0.52054  -0.51452
 Alpha  occ. eigenvalues --   -0.46055  -0.43152  -0.39167  -0.35295  -0.27041
 Alpha  occ. eigenvalues --   -0.24514   0.04283   0.11711
 Alpha virt. eigenvalues --    0.33622   0.38160   0.38476   0.43459   0.46476
 Alpha virt. eigenvalues --    0.47686   0.56968   0.58932   0.58979   0.61966
 Alpha virt. eigenvalues --    0.64880   0.70782   0.85531   0.85680   0.92502

 Mulliken charges and spin densities:
               1          2
     1  O   -0.373138   0.073127
     2  C   -0.057717   0.401548
     3  O   -0.069145   0.025326
     4  O   -0.069145   0.025326
     5  C   -0.057717   0.401548
     6  O   -0.373138   0.073127
 Sum of Mulliken charges =  -1.00000   1.00000

 Dipole moment (field-independent basis, Debye):
    X=             -0.0000    Y=             -0.0000    Z=             -0.0000  Tot=              0.0000
 Quadrupole moment (field-independent basis, Debye-Ang):
   XX=            -32.3841   YY=            -34.6409   ZZ=            -74.7126
   XY=              0.0000   XZ=              0.0000   YZ=             -0.0000

 394\CCSD(T)=-375.8864842\RMSD=9.792e-09\PG=D*H [C*(O1C1O1.O1C1O1)]\\@
 Normal termination of Gaussian 16 at Mon Feb 19 13:21:13 2024.
