 Gaussian 16, Revision A.03,
 Gaussian 16:  ES64L-G16RevA.03 25-Dec-2016

 --------------------
 #p ROCCSD(T)/cc-pVTZ
 --------------------

 -----------
 CO2_CO2_105
 -----------
 Symbolic Z-matrix:
 Charge = -1 Multiplicity = 2

                         Standard orientation:
 ---------------------------------------------------------------------
 Center     Atomic      Atomic             Coordinates (Angstroms)
 Number     Number       Type             X           Y           Z
 ---------------------------------------------------------------------
      1          8           0        0.000000    0.000000    3.526000
      2          6           0        0.000000    0.000000    2.363000
      3          8           0        0.000000    0.000000    1.200000
      4          8           0        0.000000    0.000000   -1.200000
      5          6           0        0.000000    0.000000   -2.363000
      6          8           0        0.000000    0.000000   -3.526000
 ---------------------------------------------------------------------

 SCF Done:  E(ROHF) =  -375.214133337     A.U. after   12 cycles
 E2 =    -0.1236841897D+01 EUMP2 =    -0.37645097523308D+03
 CCSD(T)
 CCSD(T)= -0.37648781599D+03

 Unable to determine electronic state:  an orbital has unidentified symmetry.
 Alpha  occ. eigenvalues --  -20.40344 -20.40344 -20.39939 -20.39939 -11.18207
 Alpha  occ. eigenvalues --  -11.18207  -1.29152  -1.28938  -1.23724  -1.23298
 Alpha  occ. eigenvalues --   -0.59330  -0.56436  -0.52532  -0.50425  -0.49986
 Alpha  occ. eigenvalues --   -0.47845  -0.47698  -0.47484  -0.35143  -0.33602
 Alpha  occ. eigenvalues --   -0.31515  -0.30601   0.17472
 Alpha virt. eigenvalues --    0.30411   0.35333   0.36346   0.41799   0.42772
 Alpha virt. eigenvalues --    0.50604   0.55786   0.57427   0.58408   0.59043
 Alpha virt. eigenvalues --    0.60403   0.74756   0.76196   0.86425   0.86517

 Mulliken charges and spin densities:
               1          2
     1  O   -0.444191   0.057421
     2  C    0.239151   0.374119
     3  O   -0.294960   0.068460
     4  O   -0.294960   0.068460
     5  C    0.239151   0.374119
     6  O   -0.444191   0.057421
 Sum of Mulliken charges =  -1.00000   1.00000

 Dipole moment (field-independent basis, Debye):
    X=             -0.0000    Y=             -0.0000    Z=              0.0000  Tot=              0.0000
 Quadrupole moment (field-independent basis, Debye-Ang):
   XX=            -31.6639   YY=            -33.8549   ZZ=            -78.0277
   XY=              0.0000   XZ=              0.0000   YZ=              0.0000

 41\CCSD(T)=-376.487816\RMSD=4.704e-09\PG=D*H [C*(O1C1O1.O1C1O1)]\\@
 Normal termination of Gaussian 16 at Tue Feb 20 16:10:11 2024.
