 Gaussian 16, Revision A.03,
 Gaussian 16:  ES64L-G16RevA.03 25-Dec-2016

 --------------------
 #p ROCCSD(T)/cc-pVTZ
 --------------------

 -----------
 CO2_CO2_261
 -----------
 Symbolic Z-matrix:
 Charge = -1 Multiplicity = 2

                         Standard orientation:
 ---------------------------------------------------------------------
 Center     Atomic      Atomic             Coordinates (Angstroms)
 Number     Number       Type             X           Y           Z
 ---------------------------------------------------------------------
      1          8           0        0.000000    0.000000    4.566000
      2          6           0        0.000000    0.000000    3.403000
      3          8           0        0.000000    0.000000    2.240000
      4          8           0        0.000000    0.000000   -2.240000
      5          6           0        0.000000    0.000000   -3.403000
      6          8           0        0.000000    0.000000   -4.566000
 ---------------------------------------------------------------------

 SCF Done:  E(ROHF) =  -375.220375190     A.U. after   12 cycles
 E2 =    -0.1232447777D+01 EUMP2 =    -0.37645282296640D+03
 CCSD(T)
 CCSD(T)= -0.37648850860D+03

 Unable to determine electronic state:  an orbital has unidentified symmetry.
 Alpha  occ. eigenvalues --  -20.42557 -20.42557 -20.42335 -20.42335 -11.20823
 Alpha  occ. eigenvalues --  -11.20823  -1.31306  -1.31305  -1.25861  -1.25858
 Alpha  occ. eigenvalues --   -0.59790  -0.59738  -0.53208  -0.53148  -0.52493
 Alpha  occ. eigenvalues --   -0.52470  -0.49927  -0.49924  -0.36944  -0.36766
 Alpha  occ. eigenvalues --   -0.33396  -0.33389   0.17705
 Alpha virt. eigenvalues --    0.25628   0.33744   0.34039   0.40167   0.40178
 Alpha virt. eigenvalues --    0.49010   0.50983   0.56151   0.56170   0.57836
 Alpha virt. eigenvalues --    0.57851   0.74109   0.74188   0.81751   0.84435

 Mulliken charges and spin densities:
               1          2
     1  O   -0.404893   0.058358
     2  C    0.267105   0.378344
     3  O   -0.362212   0.063298
     4  O   -0.362212   0.063298
     5  C    0.267105   0.378344
     6  O   -0.404893   0.058358
 Sum of Mulliken charges =  -1.00000   1.00000

 Dipole moment (field-independent basis, Debye):
    X=             -0.0000    Y=             -0.0000    Z=             -0.0000  Tot=              0.0000
 Quadrupole moment (field-independent basis, Debye-Ang):
   XX=            -31.6339   YY=            -33.8397   ZZ=           -105.0595
   XY=              0.0000   XZ=              0.0000   YZ=             -0.0000

 89\CCSD(T)=-376.4885086\RMSD=2.098e-09\PG=D*H [C*(O1C1O1.O1C1O1)]\\@
 Normal termination of Gaussian 16 at Tue Feb 20 13:47:20 2024.
