 Gaussian 16, Revision A.03,
 Gaussian 16:  ES64L-G16RevA.03 25-Dec-2016

 --------------------
 #p ROCCSD(T)/cc-pVTZ
 --------------------

 ----------
 CO2_CO2_76
 ----------
 Symbolic Z-matrix:
 Charge = -1 Multiplicity = 2

                         Standard orientation:
 ---------------------------------------------------------------------
 Center     Atomic      Atomic             Coordinates (Angstroms)
 Number     Number       Type             X           Y           Z
 ---------------------------------------------------------------------
      1          8           0        1.233548   -2.815048    0.000000
      2          6           0        0.411183   -1.992683    0.000000
      3          8           0       -0.411183   -1.170318    0.000000
      4          8           0       -0.411183    0.829683   -0.000000
      5          6           0       -0.411183    1.992683   -0.000000
      6          8           0       -0.411183    3.155683   -0.000000
 ---------------------------------------------------------------------

 SCF Done:  E(ROHF) =  -375.186693186     A.U. after   17 cycles
 E2 =    -0.1242590801D+01 EUMP2 =    -0.37642928398704D+03
 CCSD(T)
 CCSD(T)= -0.37646611764D+03

 The electronic state is 2-A".
 Alpha  occ. eigenvalues --  -20.40301 -20.39408 -20.38414 -20.37893 -11.18039
 Alpha  occ. eigenvalues --  -11.15903  -1.29106  -1.27309  -1.23666  -1.21550
 Alpha  occ. eigenvalues --   -0.61432  -0.55255  -0.52563  -0.50184  -0.48515
 Alpha  occ. eigenvalues --   -0.47984  -0.46627  -0.43025  -0.35070  -0.31815
 Alpha  occ. eigenvalues --   -0.31139  -0.28149   0.17042
 Alpha virt. eigenvalues --    0.32525   0.35275   0.37991   0.42301   0.43719
 Alpha virt. eigenvalues --    0.52083   0.55395   0.57059   0.58840   0.60060
 Alpha virt. eigenvalues --    0.64671   0.75249   0.78206   0.85802   0.86751

 Mulliken charges and spin densities:
               1          2
     1  O   -0.451560   0.062633
     2  C    0.244018   0.395942
     3  O   -0.324398   0.069985
     4  O   -0.263976   0.065528
     5  C    0.247910   0.352620
     6  O   -0.451993   0.053292
 Sum of Mulliken charges =  -1.00000   1.00000

 Dipole moment (field-independent basis, Debye):
    X=             -0.4254    Y=              0.4892    Z=             -0.0000  Tot=              0.6483
 Quadrupole moment (field-independent basis, Debye-Ang):
   XX=            -36.6112   YY=            -66.7053   ZZ=            -33.8355
   XY=              8.7874   XZ=             -0.0000   YZ=              0.0000

 84\MP4SDQ=-376.4135989\CCSD=-376.4065682\CCSD(T)=-376.4661176\RMSD=3.3
 Normal termination of Gaussian 16 at Tue Feb 20 11:17:04 2024.
