 Gaussian 16, Revision A.03,
 Gaussian 16:  ES64L-G16RevA.03 25-Dec-2016

 --------------------
 #p ROCCSD(T)/cc-pVTZ
 --------------------

 ----------
 CO2_CO2_95
 ----------
 Symbolic Z-matrix:
 Charge = -1 Multiplicity = 2

                         Standard orientation:
 ---------------------------------------------------------------------
 Center     Atomic      Atomic             Coordinates (Angstroms)
 Number     Number       Type             X           Y           Z
 ---------------------------------------------------------------------
      1          8           0       -1.744500   -1.701500    0.000000
      2          6           0       -0.581500   -1.701500    0.000000
      3          8           0        0.581500   -1.701500    0.000000
      4          8           0        0.581500    0.538500    0.000000
      5          6           0        0.581500    1.701500    0.000000
      6          8           0        0.581500    2.864500    0.000000
 ---------------------------------------------------------------------

 SCF Done:  E(ROHF) =  -375.243800855     A.U. after   35 cycles
 E2 =    -0.1239479478D+01 EUMP2 =    -0.37648328033388D+03
 CCSD(T)
 CCSD(T)= -0.37652169939D+03

 The electronic state is 2-A'.
 Alpha  occ. eigenvalues --  -20.47808 -20.46602 -20.38302 -20.38031 -11.28585
 Alpha  occ. eigenvalues --  -11.19013  -1.35613  -1.30333  -1.27501  -1.22669
 Alpha  occ. eigenvalues --   -0.63116  -0.58700  -0.56927  -0.54113  -0.53168
 Alpha  occ. eigenvalues --   -0.48621  -0.46220  -0.45720  -0.37077  -0.36043
 Alpha  occ. eigenvalues --   -0.29548  -0.28921   0.13730
 Alpha virt. eigenvalues --    0.33262   0.36958   0.37967   0.42138   0.42977
 Alpha virt. eigenvalues --    0.49106   0.53973   0.54468   0.58802   0.62578
 Alpha virt. eigenvalues --    0.64460   0.72663   0.77323   0.81552   0.85558

 Mulliken charges and spin densities:
               1          2
     1  O   -0.280590  -0.046449
     2  C    0.312536   0.243658
     3  O   -0.216117  -0.042948
     4  O    0.000787  -0.250621
     5  C   -0.664927   1.305476
     6  O   -0.151688  -0.209117
 Sum of Mulliken charges =  -1.00000   1.00000

 Dipole moment (field-independent basis, Debye):
    X=             -2.1734    Y=             -5.3423    Z=              0.0000  Tot=              5.7675
 Quadrupole moment (field-independent basis, Debye-Ang):
   XX=            -43.7544   YY=            -55.0843   ZZ=            -35.0808
   XY=             -6.6946   XZ=              0.0000   YZ=              0.0000

 D=-376.4606345\CCSD(T)=-376.5216994\RMSD=5.735e-09\PG=CS [SG(C2O4)]\\@
 Normal termination of Gaussian 16 at Tue Feb 20 14:34:26 2024.
