 Gaussian 16, Revision A.03,
 Gaussian 16:  ES64L-G16RevA.03 25-Dec-2016

 --------------------
 #p ROCCSD(T)/cc-pVTZ
 --------------------

 ----------
 CO2_CO2_80
 ----------
 Symbolic Z-matrix:
 Charge = -1 Multiplicity = 2

                         Standard orientation:
 ---------------------------------------------------------------------
 Center     Atomic      Atomic             Coordinates (Angstroms)
 Number     Number       Type             X           Y           Z
 ---------------------------------------------------------------------
      1          8           0       -1.744500   -1.601500    0.000000
      2          6           0       -0.581500   -1.601500    0.000000
      3          8           0        0.581500   -1.601500    0.000000
      4          8           0        0.581500    0.438500    0.000000
      5          6           0        0.581500    1.601500    0.000000
      6          8           0        0.581500    2.764500    0.000000
 ---------------------------------------------------------------------

 SCF Done:  E(ROHF) =  -375.223176892     A.U. after   36 cycles
 E2 =    -0.1242465522D+01 EUMP2 =    -0.37646564241442D+03
 CCSD(T)
 CCSD(T)= -0.37650403976D+03

 The electronic state is 2-A'.
 Alpha  occ. eigenvalues --  -20.46967 -20.45289 -20.38176 -20.37606 -11.27608
 Alpha  occ. eigenvalues --  -11.18584  -1.34903  -1.29741  -1.27240  -1.22489
 Alpha  occ. eigenvalues --   -0.62545  -0.60087  -0.56230  -0.53365  -0.52756
 Alpha  occ. eigenvalues --   -0.47622  -0.46114  -0.45623  -0.36290  -0.34046
 Alpha  occ. eigenvalues --   -0.29650  -0.28799   0.13482
 Alpha virt. eigenvalues --    0.34162   0.37647   0.38655   0.42018   0.43097
 Alpha virt. eigenvalues --    0.49608   0.54422   0.54903   0.58982   0.62948
 Alpha virt. eigenvalues --    0.64972   0.72959   0.77848   0.81943   0.86476

 Mulliken charges and spin densities:
               1          2
     1  O   -0.289345  -0.045373
     2  C    0.299344   0.250255
     3  O   -0.212316  -0.042120
     4  O   -0.001501  -0.239172
     5  C   -0.628929   1.273835
     6  O   -0.167252  -0.197425
 Sum of Mulliken charges =  -1.00000   1.00000

 Dipole moment (field-independent basis, Debye):
    X=             -2.1416    Y=             -4.8841    Z=              0.0000  Tot=              5.3330
 Quadrupole moment (field-independent basis, Debye-Ang):
   XX=            -43.9302   YY=            -53.8928   ZZ=            -34.9614
   XY=             -6.5549   XZ=              0.0000   YZ=              0.0000

 D=-376.4426009\CCSD(T)=-376.5040398\RMSD=5.153e-09\PG=CS [SG(C2O4)]\\@
 Normal termination of Gaussian 16 at Tue Feb 20 12:00:35 2024.
