 Gaussian 16, Revision A.03,
 Gaussian 16:  ES64L-G16RevA.03 25-Dec-2016

 --------------------
 #p ROCCSD(T)/cc-pVTZ
 --------------------

 -----------
 CO2_CO2_273
 -----------
 Symbolic Z-matrix:
 Charge = -1 Multiplicity = 2

                         Standard orientation:
 ---------------------------------------------------------------------
 Center     Atomic      Atomic             Coordinates (Angstroms)
 Number     Number       Type             X           Y           Z
 ---------------------------------------------------------------------
      1          8           0        0.000000    0.000000    4.646000
      2          6           0        0.000000    0.000000    3.483000
      3          8           0        0.000000    0.000000    2.320000
      4          8           0        0.000000    0.000000   -2.320000
      5          6           0        0.000000    0.000000   -3.483000
      6          8           0        0.000000    0.000000   -4.646000
 ---------------------------------------------------------------------

 SCF Done:  E(ROHF) =  -375.220507181     A.U. after   12 cycles
 E2 =    -0.1232412367D+01 EUMP2 =    -0.37645291954832D+03
 CCSD(T)
 CCSD(T)= -0.37648853665D+03

 Unable to determine electronic state:  an orbital has unidentified symmetry.
 Alpha  occ. eigenvalues --  -20.42660 -20.42660 -20.42448 -20.42448 -11.20935
 Alpha  occ. eigenvalues --  -11.20935  -1.31414  -1.31413  -1.25970  -1.25968
 Alpha  occ. eigenvalues --   -0.59896  -0.59857  -0.53316  -0.53275  -0.52600
 Alpha  occ. eigenvalues --   -0.52579  -0.50034  -0.50032  -0.37047  -0.36885
 Alpha  occ. eigenvalues --   -0.33506  -0.33501   0.17693
 Alpha virt. eigenvalues --    0.25423   0.33682   0.33913   0.40066   0.40072
 Alpha virt. eigenvalues --    0.49145   0.50660   0.56056   0.56070   0.57739
 Alpha virt. eigenvalues --    0.57749   0.74011   0.74083   0.82141   0.84068

 Mulliken charges and spin densities:
               1          2
     1  O   -0.404114   0.058463
     2  C    0.267830   0.378355
     3  O   -0.363717   0.063182
     4  O   -0.363717   0.063182
     5  C    0.267830   0.378355
     6  O   -0.404114   0.058463
 Sum of Mulliken charges =  -1.00000   1.00000

 Dipole moment (field-independent basis, Debye):
    X=             -0.0000    Y=              0.0000    Z=              0.0000  Tot=              0.0000
 Quadrupole moment (field-independent basis, Debye-Ang):
   XX=            -31.6323   YY=            -33.8374   ZZ=           -107.6278
   XY=              0.0000   XZ=              0.0000   YZ=             -0.0000

 6135\CCSD(T)=-376.4885366\RMSD=2.065e-09\PG=D*H [C*(O1C1O1.O1C1O1)]\\@
 Normal termination of Gaussian 16 at Tue Feb 20 15:21:49 2024.
