 Gaussian 16, Revision A.03,
 Gaussian 16:  ES64L-G16RevA.03 25-Dec-2016

 --------------------
 #p ROCCSD(T)/cc-pVTZ
 --------------------

 -----------
 CO2_CO2_169
 -----------
 Symbolic Z-matrix:
 Charge = -1 Multiplicity = 2

                         Standard orientation:
 ---------------------------------------------------------------------
 Center     Atomic      Atomic             Coordinates (Angstroms)
 Number     Number       Type             X           Y           Z
 ---------------------------------------------------------------------
      1          8           0        1.233548   -3.435048    0.000000
      2          6           0        0.411183   -2.612682    0.000000
      3          8           0       -0.411183   -1.790317    0.000000
      4          8           0       -0.411183    1.449683   -0.000000
      5          6           0       -0.411183    2.612682   -0.000000
      6          8           0       -0.411183    3.775682   -0.000000
 ---------------------------------------------------------------------

 SCF Done:  E(ROHF) =  -375.219947211     A.U. after   15 cycles
 E2 =    -0.1233149585D+01 EUMP2 =    -0.37645309679605D+03
 CCSD(T)
 CCSD(T)= -0.37648903214D+03

 The electronic state is 2-A".
 Alpha  occ. eigenvalues --  -20.41737 -20.41431 -20.41051 -20.40790 -11.19959
 Alpha  occ. eigenvalues --  -11.19164  -1.30429  -1.29783  -1.24955  -1.24312
 Alpha  occ. eigenvalues --   -0.58905  -0.58208  -0.52327  -0.51547  -0.51464
 Alpha  occ. eigenvalues --   -0.51022  -0.49049  -0.48371  -0.35935  -0.35295
 Alpha  occ. eigenvalues --   -0.32469  -0.31839   0.17680
 Alpha virt. eigenvalues --    0.28025   0.34457   0.35524   0.41034   0.41675
 Alpha virt. eigenvalues --    0.49253   0.53650   0.56914   0.57527   0.58513
 Alpha virt. eigenvalues --    0.59820   0.74954   0.75615   0.80367   0.84593

 Mulliken charges and spin densities:
               1          2
     1  O   -0.417795   0.059260
     2  C    0.260830   0.385117
     3  O   -0.352164   0.064976
     4  O   -0.337246   0.063531
     5  C    0.262066   0.371009
     6  O   -0.415692   0.056107
 Sum of Mulliken charges =  -1.00000   1.00000

 Dipole moment (field-independent basis, Debye):
    X=             -0.1769    Y=              0.1632    Z=             -0.0000  Tot=              0.2406
 Quadrupole moment (field-independent basis, Debye-Ang):
   XX=            -36.3611   YY=            -78.7011   ZZ=            -33.8510
   XY=              9.5274   XZ=             -0.0000   YZ=              0.0000

 30968\MP4SDQ=-376.4383783\CCSD=-376.4334178\CCSD(T)=-376.4890321\RMSD=
 Normal termination of Gaussian 16 at Tue Feb 20 12:04:56 2024.
