 Gaussian 16, Revision A.03,
 Gaussian 16:  ES64L-G16RevA.03 25-Dec-2016

 --------------------
 #p ROCCSD(T)/cc-pVTZ
 --------------------

 -----------
 CO2_CO2_159
 -----------
 Symbolic Z-matrix:
 Charge = -1 Multiplicity = 2

                         Standard orientation:
 ---------------------------------------------------------------------
 Center     Atomic      Atomic             Coordinates (Angstroms)
 Number     Number       Type             X           Y           Z
 ---------------------------------------------------------------------
      1          8           0        0.000000    0.000000    3.886000
      2          6           0        0.000000    0.000000    2.723000
      3          8           0        0.000000    0.000000    1.560000
      4          8           0        0.000000    0.000000   -1.560000
      5          6           0        0.000000    0.000000   -2.723000
      6          8           0        0.000000    0.000000   -3.886000
 ---------------------------------------------------------------------

 SCF Done:  E(ROHF) =  -375.219284709     A.U. after   12 cycles
 E2 =    -0.1233730834D+01 EUMP2 =    -0.37645301554305D+03
 CCSD(T)
 CCSD(T)= -0.37648953183D+03

 Unable to determine electronic state:  an orbital has unidentified symmetry.
 Alpha  occ. eigenvalues --  -20.41376 -20.41376 -20.41085 -20.41085 -11.19506
 Alpha  occ. eigenvalues --  -11.19506  -1.30098  -1.30069  -1.24631  -1.24567
 Alpha  occ. eigenvalues --   -0.58846  -0.58164  -0.52325  -0.51309  -0.51213
 Alpha  occ. eigenvalues --   -0.51191  -0.48742  -0.48672  -0.35828  -0.35271
 Alpha  occ. eigenvalues --   -0.32224  -0.32037   0.17731
 Alpha virt. eigenvalues --    0.28077   0.34743   0.35266   0.41183   0.41483
 Alpha virt. eigenvalues --    0.49667   0.53769   0.57074   0.57341   0.58751
 Alpha virt. eigenvalues --    0.59112   0.74958   0.75131   0.79288   0.85897

 Mulliken charges and spin densities:
               1          2
     1  O   -0.421373   0.057424
     2  C    0.255895   0.377753
     3  O   -0.334522   0.064823
     4  O   -0.334522   0.064823
     5  C    0.255895   0.377753
     6  O   -0.421373   0.057424
 Sum of Mulliken charges =  -1.00000   1.00000

 Dipole moment (field-independent basis, Debye):
    X=             -0.0000    Y=             -0.0000    Z=              0.0000  Tot=              0.0000
 Quadrupole moment (field-independent basis, Debye-Ang):
   XX=            -31.6527   YY=            -33.8683   ZZ=            -85.9340
   XY=              0.0000   XZ=              0.0000   YZ=              0.0000

 397\CCSD(T)=-376.4895318\RMSD=2.670e-09\PG=D*H [C*(O1C1O1.O1C1O1)]\\@
 Normal termination of Gaussian 16 at Tue Feb 20 10:25:04 2024.
