 Gaussian 16, Revision A.03,
 Gaussian 16:  ES64L-G16RevA.03 25-Dec-2016

 --------------------
 #p ROCCSD(T)/cc-pVTZ
 --------------------

 ----------
 CO2_CO2_14
 ----------
 Symbolic Z-matrix:
 Charge = -1 Multiplicity = 2

                         Standard orientation:
 ---------------------------------------------------------------------
 Center     Atomic      Atomic             Coordinates (Angstroms)
 Number     Number       Type             X           Y           Z
 ---------------------------------------------------------------------
      1          8           0       -1.744500   -1.161500    0.000000
      2          6           0       -0.581500   -1.161500    0.000000
      3          8           0        0.581500   -1.161500    0.000000
      4          8           0        0.581500   -0.001500    0.000000
      5          6           0        0.581500    1.161500    0.000000
      6          8           0        0.581500    2.324500    0.000000
 ---------------------------------------------------------------------

 SCF Done:  E(ROHF) =  -374.458426625     A.U. after   28 cycles
 E2 =    -0.1351124267D+01 EUMP2 =    -0.37580955089248D+03
 CCSD(T)
 CCSD(T)= -0.37582341340D+03

 The electronic state is 2-A".
 Alpha  occ. eigenvalues --  -20.55673 -20.50720 -20.39404 -20.32907 -11.21066
 Alpha  occ. eigenvalues --  -11.10464  -1.65954  -1.27916  -1.23212  -1.19594
 Alpha  occ. eigenvalues --   -0.87267  -0.74072  -0.71178  -0.53982  -0.48778
 Alpha  occ. eigenvalues --   -0.47703  -0.47401  -0.38345  -0.37318  -0.31826
 Alpha  occ. eigenvalues --   -0.30914   0.08010   0.11035
 Alpha virt. eigenvalues --    0.32620   0.34838   0.37540   0.41165   0.49913
 Alpha virt. eigenvalues --    0.52442   0.55989   0.57168   0.62459   0.64127
 Alpha virt. eigenvalues --    0.66658   0.76041   0.79147   0.81119   0.85605

 Mulliken charges and spin densities:
               1          2
     1  O   -0.452074   0.109466
     2  C   -0.292891   0.489778
     3  O    0.021372   0.000319
     4  O    0.285028   0.009837
     5  C   -0.270830   0.337313
     6  O   -0.290604   0.053287
 Sum of Mulliken charges =  -1.00000   1.00000

 Dipole moment (field-independent basis, Debye):
    X=              2.4251    Y=             -0.2764    Z=              0.0000  Tot=              2.4408
 Quadrupole moment (field-independent basis, Debye-Ang):
   XX=            -44.9163   YY=            -54.2309   ZZ=            -35.0808
   XY=             -9.2437   XZ=              0.0000   YZ=              0.0000

 D=-375.7435635\CCSD(T)=-375.8234134\RMSD=3.046e-09\PG=CS [SG(C2O4)]\\@
 Normal termination of Gaussian 16 at Mon Feb 19 13:48:59 2024.
