 Gaussian 16, Revision A.03,
 Gaussian 16:  ES64L-G16RevA.03 25-Dec-2016

 --------------------
 #p ROCCSD(T)/cc-pVTZ
 --------------------

 ----------
 CO2_CO2_47
 ----------
 Symbolic Z-matrix:
 Charge = -1 Multiplicity = 2

                         Standard orientation:
 ---------------------------------------------------------------------
 Center     Atomic      Atomic             Coordinates (Angstroms)
 Number     Number       Type             X           Y           Z
 ---------------------------------------------------------------------
      1          8           0       -1.744500   -1.381500    0.000000
      2          6           0       -0.581500   -1.381500    0.000000
      3          8           0        0.581500   -1.381500    0.000000
      4          8           0        0.581500    0.218500    0.000000
      5          6           0        0.581500    1.381500    0.000000
      6          8           0        0.581500    2.544500    0.000000
 ---------------------------------------------------------------------

 SCF Done:  E(ROHF) =  -375.060657114     A.U. after   35 cycles
 E2 =    -0.1244978375D+01 EUMP2 =    -0.37630563548936D+03
 CCSD(T)
 CCSD(T)= -0.37634661284D+03

 The electronic state is 2-A'.
 Alpha  occ. eigenvalues --  -20.43598 -20.41011 -20.31386 -20.30753 -11.22797
 Alpha  occ. eigenvalues --  -11.05924  -1.33539  -1.28001  -1.20727  -1.15599
 Alpha  occ. eigenvalues --   -0.64819  -0.59769  -0.54302  -0.51003  -0.47579
 Alpha  occ. eigenvalues --   -0.44747  -0.42617  -0.40775  -0.33625  -0.29916
 Alpha  occ. eigenvalues --   -0.23796  -0.20612   0.10833
 Alpha virt. eigenvalues --    0.36301   0.40329   0.40347   0.44096   0.47985
 Alpha virt. eigenvalues --    0.51094   0.57385   0.57938   0.60103   0.67184
 Alpha virt. eigenvalues --    0.67417   0.76063   0.81613   0.84740   0.89092

 Mulliken charges and spin densities:
               1          2
     1  O   -0.391772   0.013485
     2  C    0.442932   0.060007
     3  O   -0.221460   0.019721
     4  O   -0.384612   0.070688
     5  C    0.086852   0.724720
     6  O   -0.531940   0.111380
 Sum of Mulliken charges =  -1.00000   1.00000

 Dipole moment (field-independent basis, Debye):
    X=             -0.6538    Y=             -4.0719    Z=              0.0000  Tot=              4.1240
 Quadrupole moment (field-independent basis, Debye-Ang):
   XX=            -41.0728   YY=            -54.5434   ZZ=            -31.4874
   XY=             -4.6521   XZ=              0.0000   YZ=              0.0000

 -376.2862023\CCSD(T)=-376.3466128\RMSD=4.245e-09\PG=CS [SG(C2O4)]\\@
 Normal termination of Gaussian 16 at Mon Feb 19 18:56:38 2024.
