 Gaussian 16, Revision A.03,
 Gaussian 16:  ES64L-G16RevA.03 25-Dec-2016

 --------------------
 #p ROCCSD(T)/cc-pVTZ
 --------------------

 -----------
 CO2_CO2_136
 -----------
 Symbolic Z-matrix:
 Charge = -1 Multiplicity = 2

                         Standard orientation:
 ---------------------------------------------------------------------
 Center     Atomic      Atomic             Coordinates (Angstroms)
 Number     Number       Type             X           Y           Z
 ---------------------------------------------------------------------
      1          8           0        1.233548   -3.215048    0.000000
      2          6           0        0.411183   -2.392682    0.000000
      3          8           0       -0.411183   -1.570317   -0.000000
      4          8           0       -0.411183    1.229683   -0.000000
      5          6           0       -0.411183    2.392682   -0.000000
      6          8           0       -0.411183    3.555682   -0.000000
 ---------------------------------------------------------------------

 SCF Done:  E(ROHF) =  -375.218835870     A.U. after   16 cycles
 E2 =    -0.1234319562D+01 EUMP2 =    -0.37645315543105D+03
 CCSD(T)
 CCSD(T)= -0.37649008325D+03

 The electronic state is 2-A".
 Alpha  occ. eigenvalues --  -20.41286 -20.40929 -20.40406 -20.40121 -11.19435
 Alpha  occ. eigenvalues --  -11.18400  -1.29960  -1.29131  -1.24468  -1.23632
 Alpha  occ. eigenvalues --   -0.58687  -0.57411  -0.52164  -0.51064  -0.50380
 Alpha  occ. eigenvalues --   -0.50351  -0.48578  -0.47643  -0.35498  -0.34508
 Alpha  occ. eigenvalues --   -0.31991  -0.31122   0.17620
 Alpha virt. eigenvalues --    0.29194   0.34806   0.36193   0.41478   0.42257
 Alpha virt. eigenvalues --    0.50465   0.54249   0.57116   0.58166   0.58694
 Alpha virt. eigenvalues --    0.61044   0.74971   0.76210   0.83552   0.85298

 Mulliken charges and spin densities:
               1          2
     1  O   -0.426372   0.059628
     2  C    0.255404   0.385911
     3  O   -0.341006   0.066517
     4  O   -0.317005   0.064450
     5  C    0.254963   0.368114
     6  O   -0.425984   0.055379
 Sum of Mulliken charges =  -1.00000   1.00000

 Dipole moment (field-independent basis, Debye):
    X=             -0.2252    Y=              0.2020    Z=             -0.0000  Tot=              0.3026
 Quadrupole moment (field-independent basis, Debye-Ang):
   XX=            -36.4151   YY=            -73.7870   ZZ=            -33.8546
   XY=              9.2029   XZ=             -0.0000   YZ=              0.0000

 31554\MP4SDQ=-376.4385895\CCSD=-376.4322709\CCSD(T)=-376.4900832\RMSD=
 Normal termination of Gaussian 16 at Wed Feb 21 10:42:05 2024.
