 Gaussian 16, Revision A.03,
 Gaussian 16:  ES64L-G16RevA.03 25-Dec-2016

 --------------------
 #p ROCCSD(T)/cc-pVTZ
 --------------------

 -----------
 CO2_CO2_165
 -----------
 Symbolic Z-matrix:
 Charge = -1 Multiplicity = 2

                         Standard orientation:
 ---------------------------------------------------------------------
 Center     Atomic      Atomic             Coordinates (Angstroms)
 Number     Number       Type             X           Y           Z
 ---------------------------------------------------------------------
      1          8           0        0.000000    0.000000    3.926000
      2          6           0        0.000000    0.000000    2.763000
      3          8           0        0.000000    0.000000    1.600000
      4          8           0        0.000000    0.000000   -1.600000
      5          6           0        0.000000    0.000000   -2.763000
      6          8           0        0.000000    0.000000   -3.926000
 ---------------------------------------------------------------------

 SCF Done:  E(ROHF) =  -375.219361284     A.U. after   12 cycles
 E2 =    -0.1233567891D+01 EUMP2 =    -0.37645292917524D+03
 CCSD(T)
 CCSD(T)= -0.37648938621D+03

 Unable to determine electronic state:  an orbital has unidentified symmetry.
 Alpha  occ. eigenvalues --  -20.41467 -20.41467 -20.41179 -20.41178 -11.19612
 Alpha  occ. eigenvalues --  -11.19611  -1.30188  -1.30165  -1.24721  -1.24670
 Alpha  occ. eigenvalues --   -0.58886  -0.58303  -0.52354  -0.51413  -0.51396
 Alpha  occ. eigenvalues --   -0.51292  -0.48829  -0.48770  -0.35906  -0.35399
 Alpha  occ. eigenvalues --   -0.32305  -0.32148   0.17739
 Alpha virt. eigenvalues --    0.27880   0.34654   0.35181   0.41117   0.41376
 Alpha virt. eigenvalues --    0.49444   0.53614   0.57020   0.57248   0.58700
 Alpha virt. eigenvalues --    0.59007   0.74906   0.75178   0.78559   0.85879

 Mulliken charges and spin densities:
               1          2
     1  O   -0.419496   0.057465
     2  C    0.257210   0.377916
     3  O   -0.337714   0.064619
     4  O   -0.337714   0.064619
     5  C    0.257210   0.377916
     6  O   -0.419496   0.057465
 Sum of Mulliken charges =  -1.00000   1.00000

 Dipole moment (field-independent basis, Debye):
    X=             -0.0000    Y=             -0.0000    Z=              0.0000  Tot=              0.0000
 Quadrupole moment (field-independent basis, Debye-Ang):
   XX=            -31.6514   YY=            -33.8671   ZZ=            -86.9180
   XY=              0.0000   XZ=              0.0000   YZ=              0.0000

 8\CCSD(T)=-376.4893862\RMSD=2.587e-09\PG=D*H [C*(O1C1O1.O1C1O1)]\\@
 Normal termination of Gaussian 16 at Tue Feb 20 11:22:03 2024.
