 Gaussian 16, Revision A.03,
 Gaussian 16:  ES64L-G16RevA.03 25-Dec-2016

 --------------------
 #p ROCCSD(T)/cc-pVTZ
 --------------------

 ----------
 CO2_CO2_46
 ----------
 Symbolic Z-matrix:
 Charge = -1 Multiplicity = 2

                         Standard orientation:
 ---------------------------------------------------------------------
 Center     Atomic      Atomic             Coordinates (Angstroms)
 Number     Number       Type             X           Y           Z
 ---------------------------------------------------------------------
      1          8           0        1.233548   -2.615048    0.000000
      2          6           0        0.411183   -1.792683    0.000000
      3          8           0       -0.411183   -0.970317    0.000000
      4          8           0       -0.411183    0.629683   -0.000000
      5          6           0       -0.411183    1.792683   -0.000000
      6          8           0       -0.411183    2.955682   -0.000000
 ---------------------------------------------------------------------

 SCF Done:  E(ROHF) =  -375.064190357     A.U. after   18 cycles
 E2 =    -0.1261638898D+01 EUMP2 =    -0.37632582925495D+03
 CCSD(T)
 CCSD(T)= -0.37636040395D+03

 The electronic state is 2-A".
 Alpha  occ. eigenvalues --  -20.40253 -20.38712 -20.35983 -20.35871 -11.17471
 Alpha  occ. eigenvalues --  -11.12794  -1.30380  -1.26545  -1.23468  -1.19447
 Alpha  occ. eigenvalues --   -0.69363  -0.54738  -0.51386  -0.50744  -0.48729
 Alpha  occ. eigenvalues --   -0.46898  -0.44846  -0.36449  -0.36057  -0.30708
 Alpha  occ. eigenvalues --   -0.29204  -0.21526   0.15979
 Alpha virt. eigenvalues --    0.35216   0.35291   0.39343   0.41987   0.45019
 Alpha virt. eigenvalues --    0.52735   0.56320   0.56823   0.58752   0.61650
 Alpha virt. eigenvalues --    0.67192   0.75762   0.80229   0.86617   0.88782

 Mulliken charges and spin densities:
               1          2
     1  O   -0.480142   0.071322
     2  C    0.193724   0.441095
     3  O   -0.292795   0.062815
     4  O   -0.216482   0.055038
     5  C    0.260435   0.320913
     6  O   -0.464740   0.048816
 Sum of Mulliken charges =  -1.00000   1.00000

 Dipole moment (field-independent basis, Debye):
    X=             -0.7680    Y=              1.2594    Z=             -0.0000  Tot=              1.4751
 Quadrupole moment (field-independent basis, Debye-Ang):
   XX=            -36.8580   YY=            -64.6275   ZZ=            -33.8020
   XY=              8.8478   XZ=             -0.0000   YZ=              0.0000

 8293\MP4SDQ=-376.3060122\CCSD=-376.2980602\CCSD(T)=-376.3604039\RMSD=6
 Normal termination of Gaussian 16 at Mon Feb 19 18:41:20 2024.
