 Gaussian 16, Revision A.03,
 Gaussian 16:  ES64L-G16RevA.03 25-Dec-2016

 --------------------
 #p ROCCSD(T)/cc-pVTZ
 --------------------

 -----------
 CO2_CO2_186
 -----------
 Symbolic Z-matrix:
 Charge = -1 Multiplicity = 2

                         Standard orientation:
 ---------------------------------------------------------------------
 Center     Atomic      Atomic             Coordinates (Angstroms)
 Number     Number       Type             X           Y           Z
 ---------------------------------------------------------------------
      1          8           0        0.000000    0.000000    4.066000
      2          6           0        0.000000    0.000000    2.903000
      3          8           0        0.000000    0.000000    1.740000
      4          8           0        0.000000    0.000000   -1.740000
      5          6           0        0.000000    0.000000   -2.903000
      6          8           0        0.000000    0.000000   -4.066000
 ---------------------------------------------------------------------

 SCF Done:  E(ROHF) =  -375.219573168     A.U. after   12 cycles
 E2 =    -0.1233129733D+01 EUMP2 =    -0.37645270290111D+03
 CCSD(T)
 CCSD(T)= -0.37648895493D+03

 Unable to determine electronic state:  an orbital has unidentified symmetry.
 Alpha  occ. eigenvalues --  -20.41757 -20.41757 -20.41480 -20.41480 -11.19943
 Alpha  occ. eigenvalues --  -11.19943  -1.30481  -1.30470  -1.25018  -1.24993
 Alpha  occ. eigenvalues --   -0.59065  -0.58728  -0.52502  -0.51979  -0.51680
 Alpha  occ. eigenvalues --   -0.51612  -0.49113  -0.49082  -0.36168  -0.35790
 Alpha  occ. eigenvalues --   -0.32578  -0.32494   0.17751
 Alpha virt. eigenvalues --    0.27260   0.34350   0.34911   0.40892   0.41040
 Alpha virt. eigenvalues --    0.48767   0.53109   0.56823   0.56954   0.58510
 Alpha virt. eigenvalues --    0.58679   0.74758   0.75152   0.77523   0.85814

 Mulliken charges and spin densities:
               1          2
     1  O   -0.414028   0.057637
     2  C    0.260683   0.378234
     3  O   -0.346655   0.064129
     4  O   -0.346655   0.064129
     5  C    0.260683   0.378234
     6  O   -0.414028   0.057637
 Sum of Mulliken charges =  -1.00000   1.00000

 Dipole moment (field-independent basis, Debye):
    X=             -0.0000    Y=             -0.0000    Z=             -0.0000  Tot=              0.0000
 Quadrupole moment (field-independent basis, Debye-Ang):
   XX=            -31.6467   YY=            -33.8609   ZZ=            -90.5070
   XY=              0.0000   XZ=              0.0000   YZ=             -0.0000

 802\CCSD(T)=-376.4889549\RMSD=2.398e-09\PG=D*H [C*(O1C1O1.O1C1O1)]\\@
 Normal termination of Gaussian 16 at Tue Feb 20 14:45:18 2024.
