 Gaussian 16, Revision A.03,
 Gaussian 16:  ES64L-G16RevA.03 25-Dec-2016

 --------------------
 #p ROCCSD(T)/cc-pVTZ
 --------------------

 ----------
 CO2_CO2_52
 ----------
 Symbolic Z-matrix:
 Charge = -1 Multiplicity = 2

                         Standard orientation:
 ---------------------------------------------------------------------
 Center     Atomic      Atomic             Coordinates (Angstroms)
 Number     Number       Type             X           Y           Z
 ---------------------------------------------------------------------
      1          8           0        1.233548   -2.655048    0.000000
      2          6           0        0.411183   -1.832683    0.000000
      3          8           0       -0.411183   -1.010317    0.000000
      4          8           0       -0.411183    0.669682   -0.000000
      5          6           0       -0.411183    1.832683   -0.000000
      6          8           0       -0.411183    2.995683   -0.000000
 ---------------------------------------------------------------------

 SCF Done:  E(ROHF) =  -375.104562653     A.U. after   17 cycles
 E2 =    -0.1255667269D+01 EUMP2 =    -0.37636022992245D+03
 CCSD(T)
 CCSD(T)= -0.37639544758D+03

 The electronic state is 2-A".
 Alpha  occ. eigenvalues --  -20.40119 -20.38657 -20.36705 -20.36305 -11.17453
 Alpha  occ. eigenvalues --  -11.13712  -1.29693  -1.26506  -1.23646  -1.19973
 Alpha  occ. eigenvalues --   -0.67120  -0.54675  -0.51847  -0.50413  -0.48356
 Alpha  occ. eigenvalues --   -0.47278  -0.45226  -0.37755  -0.35705  -0.30844
 Alpha  occ. eigenvalues --   -0.29816  -0.23779   0.16289
 Alpha virt. eigenvalues --    0.34659   0.35298   0.39041   0.42185   0.44681
 Alpha virt. eigenvalues --    0.52637   0.56088   0.56901   0.58823   0.61263
 Alpha virt. eigenvalues --    0.66591   0.75685   0.79733   0.86684   0.88120

 Mulliken charges and spin densities:
               1          2
     1  O   -0.472389   0.068095
     2  C    0.212564   0.423850
     3  O   -0.302579   0.065582
     4  O   -0.231343   0.059023
     5  C    0.257596   0.332884
     6  O   -0.463848   0.050567
 Sum of Mulliken charges =  -1.00000   1.00000

 Dipole moment (field-independent basis, Debye):
    X=             -0.6589    Y=              0.9769    Z=             -0.0000  Tot=              1.1783
 Quadrupole moment (field-independent basis, Debye-Ang):
   XX=            -36.7824   YY=            -64.9158   ZZ=            -33.8108
   XY=              8.8010   XZ=             -0.0000   YZ=              0.0000

 99\MP4SDQ=-376.341738\CCSD=-376.3340401\CCSD(T)=-376.3954476\RMSD=8.89
 Normal termination of Gaussian 16 at Mon Feb 19 19:41:48 2024.
