 Gaussian 16, Revision A.03,
 Gaussian 16:  ES64L-G16RevA.03 25-Dec-2016

 --------------------
 #p ROCCSD(T)/cc-pVTZ
 --------------------

 -----------
 CO2_CO2_157
 -----------
 Symbolic Z-matrix:
 Charge = -1 Multiplicity = 2

                         Standard orientation:
 ---------------------------------------------------------------------
 Center     Atomic      Atomic             Coordinates (Angstroms)
 Number     Number       Type             X           Y           Z
 ---------------------------------------------------------------------
      1          8           0        1.233548   -3.355048   -0.000000
      2          6           0        0.411183   -2.532683   -0.000000
      3          8           0       -0.411183   -1.710317   -0.000000
      4          8           0       -0.411183    1.369683    0.000000
      5          6           0       -0.411183    2.532683    0.000000
      6          8           0       -0.411183    3.695682    0.000000
 ---------------------------------------------------------------------

 SCF Done:  E(ROHF) =  -375.219707464     A.U. after   15 cycles
 E2 =    -0.1233480023D+01 EUMP2 =    -0.37645318748701D+03
 CCSD(T)
 CCSD(T)= -0.37648955334D+03

 The electronic state is 2-A".
 Alpha  occ. eigenvalues --  -20.41581 -20.41260 -20.40837 -20.40570 -11.19781
 Alpha  occ. eigenvalues --  -11.18915  -1.30265  -1.29566  -1.24785  -1.24087
 Alpha  occ. eigenvalues --   -0.58795  -0.57950  -0.52237  -0.51379  -0.51125
 Alpha  occ. eigenvalues --   -0.50809  -0.48885  -0.48140  -0.35777  -0.35041
 Alpha  occ. eigenvalues --   -0.32300  -0.31607   0.17668
 Alpha virt. eigenvalues --    0.28415   0.34593   0.35746   0.41189   0.41874
 Alpha virt. eigenvalues --    0.49717   0.53862   0.57003   0.57735   0.58590
 Alpha virt. eigenvalues --    0.60201   0.74991   0.75823   0.81477   0.84460

 Mulliken charges and spin densities:
               1          2
     1  O   -0.420650   0.059345
     2  C    0.258954   0.385371
     3  O   -0.348241   0.065405
     4  O   -0.330927   0.063784
     5  C    0.259876   0.370236
     6  O   -0.419011   0.055860
 Sum of Mulliken charges =  -1.00000   1.00000

 Dipole moment (field-independent basis, Debye):
    X=             -0.1920    Y=              0.1728    Z=             -0.0000  Tot=              0.2583
 Quadrupole moment (field-independent basis, Debye-Ang):
   XX=            -36.3779   YY=            -76.8463   ZZ=            -33.8529
   XY=              9.4051   XZ=              0.0000   YZ=             -0.0000

 31875\MP4SDQ=-376.4385376\CCSD=-376.4329144\CCSD(T)=-376.4895533\RMSD=
 Normal termination of Gaussian 16 at Tue Feb 20 10:20:14 2024.
