 Gaussian 16, Revision A.03,
 Gaussian 16:  ES64L-G16RevA.03 25-Dec-2016

 --------------------
 #p ROCCSD(T)/cc-pVTZ
 --------------------

 -----------
 CO2_CO2_141
 -----------
 Symbolic Z-matrix:
 Charge = -1 Multiplicity = 2

                         Standard orientation:
 ---------------------------------------------------------------------
 Center     Atomic      Atomic             Coordinates (Angstroms)
 Number     Number       Type             X           Y           Z
 ---------------------------------------------------------------------
      1          8           0        0.000000    0.000000    3.766000
      2          6           0        0.000000    0.000000    2.603000
      3          8           0        0.000000    0.000000    1.440000
      4          8           0        0.000000    0.000000   -1.440000
      5          6           0        0.000000    0.000000   -2.603000
      6          8           0        0.000000    0.000000   -3.766000
 ---------------------------------------------------------------------

 SCF Done:  E(ROHF) =  -375.218882126     A.U. after   12 cycles
 E2 =    -0.1234366071D+01 EUMP2 =    -0.37645324819734D+03
 CCSD(T)
 CCSD(T)= -0.37648993325D+03

 Unable to determine electronic state:  an orbital has unidentified symmetry.
 Alpha  occ. eigenvalues --  -20.41081 -20.41081 -20.40777 -20.40777 -11.19153
 Alpha  occ. eigenvalues --  -11.19153  -1.29810  -1.29754  -1.24343  -1.24225
 Alpha  occ. eigenvalues --   -0.58780  -0.57688  -0.52290  -0.51035  -0.50857
 Alpha  occ. eigenvalues --   -0.50459  -0.48465  -0.48345  -0.35589  -0.34835
 Alpha  occ. eigenvalues --   -0.31977  -0.31659   0.17688
 Alpha virt. eigenvalues --    0.28729   0.34990   0.35556   0.41385   0.41839
 Alpha virt. eigenvalues --    0.50256   0.54316   0.57225   0.57645   0.58887
 Alpha virt. eigenvalues --    0.59468   0.74996   0.75183   0.82617   0.85997

 Mulliken charges and spin densities:
               1          2
     1  O   -0.427800   0.057340
     2  C    0.251065   0.376988
     3  O   -0.323264   0.065672
     4  O   -0.323264   0.065672
     5  C    0.251065   0.376988
     6  O   -0.427800   0.057340
 Sum of Mulliken charges =  -1.00000   1.00000

 Dipole moment (field-independent basis, Debye):
    X=             -0.0000    Y=             -0.0000    Z=             -0.0000  Tot=              0.0000
 Quadrupole moment (field-independent basis, Debye-Ang):
   XX=            -33.8698   YY=            -31.6570   ZZ=            -83.0987
   XY=              0.0000   XZ=              0.0000   YZ=              0.0000

 5205\CCSD(T)=-376.4899333\RMSD=3.053e-09\PG=D*H [C*(O1C1O1.O1C1O1)]\\@
 Normal termination of Gaussian 16 at Wed Feb 21 11:26:19 2024.
