 Gaussian 16, Revision A.03,
 Gaussian 16:  ES64L-G16RevA.03 25-Dec-2016

 --------------------
 #p ROCCSD(T)/cc-pVTZ
 --------------------

 -----------
 CO2_CO2_144
 -----------
 Symbolic Z-matrix:
 Charge = -1 Multiplicity = 2

                         Standard orientation:
 ---------------------------------------------------------------------
 Center     Atomic      Atomic             Coordinates (Angstroms)
 Number     Number       Type             X           Y           Z
 ---------------------------------------------------------------------
      1          8           0        0.000000    0.000000    3.786000
      2          6           0        0.000000    0.000000    2.623000
      3          8           0        0.000000    0.000000    1.460000
      4          8           0        0.000000    0.000000   -1.460000
      5          6           0        0.000000    0.000000   -2.623000
      6          8           0        0.000000    0.000000   -3.786000
 ---------------------------------------------------------------------

 SCF Done:  E(ROHF) =  -375.218979106     A.U. after   12 cycles
 E2 =    -0.1234242029D+01 EUMP2 =    -0.37645322113553D+03
 CCSD(T)
 CCSD(T)= -0.37648987975D+03

 Unable to determine electronic state:  an orbital has unidentified symmetry.
 Alpha  occ. eigenvalues --  -20.41133 -20.41133 -20.40832 -20.40831 -11.19216
 Alpha  occ. eigenvalues --  -11.19216  -1.29860  -1.29810  -1.24392  -1.24286
 Alpha  occ. eigenvalues --   -0.58783  -0.57774  -0.52290  -0.51082  -0.50916
 Alpha  occ. eigenvalues --   -0.50603  -0.48513  -0.48403  -0.35629  -0.34914
 Alpha  occ. eigenvalues --   -0.32019  -0.31727   0.17697
 Alpha virt. eigenvalues --    0.28613   0.34952   0.35503   0.41351   0.41776
 Alpha virt. eigenvalues --    0.50174   0.54215   0.57202   0.57591   0.58866
 Alpha virt. eigenvalues --    0.59404   0.75017   0.75136   0.81947   0.85975

 Mulliken charges and spin densities:
               1          2
     1  O   -0.426648   0.057350
     2  C    0.251951   0.377147
     3  O   -0.325303   0.065503
     4  O   -0.325303   0.065503
     5  C    0.251951   0.377147
     6  O   -0.426648   0.057350
 Sum of Mulliken charges =  -1.00000   1.00000

 Dipole moment (field-independent basis, Debye):
    X=             -0.0000    Y=              0.0000    Z=             -0.0000  Tot=              0.0000
 Quadrupole moment (field-independent basis, Debye-Ang):
   XX=            -33.8699   YY=            -31.6563   ZZ=            -83.5587
   XY=              0.0000   XZ=              0.0000   YZ=              0.0000

 4891\CCSD(T)=-376.4898798\RMSD=2.973e-09\PG=D*H [C*(O1C1O1.O1C1O1)]\\@
 Normal termination of Gaussian 16 at Wed Feb 21 11:41:25 2024.
