 Gaussian 16, Revision A.03,
 Gaussian 16:  ES64L-G16RevA.03 25-Dec-2016

 --------------------
 #p ROCCSD(T)/cc-pVTZ
 --------------------

 -----------
 CO2_CO2_132
 -----------
 Symbolic Z-matrix:
 Charge = -1 Multiplicity = 2

                         Standard orientation:
 ---------------------------------------------------------------------
 Center     Atomic      Atomic             Coordinates (Angstroms)
 Number     Number       Type             X           Y           Z
 ---------------------------------------------------------------------
      1          8           0        0.000000    0.000000    3.706000
      2          6           0        0.000000    0.000000    2.543000
      3          8           0        0.000000    0.000000    1.380000
      4          8           0        0.000000    0.000000   -1.380000
      5          6           0        0.000000    0.000000   -2.543000
      6          8           0        0.000000    0.000000   -3.706000
 ---------------------------------------------------------------------

 SCF Done:  E(ROHF) =  -375.218457921     A.U. after   12 cycles
 E2 =    -0.1234793666D+01 EUMP2 =    -0.37645325158739D+03
 CCSD(T)
 CCSD(T)= -0.37649000880D+03

 Unable to determine electronic state:  an orbital has unidentified symmetry.
 Alpha  occ. eigenvalues --  -20.40918 -20.40918 -20.40603 -20.40602 -11.18952
 Alpha  occ. eigenvalues --  -11.18952  -1.29656  -1.29577  -1.24191  -1.24030
 Alpha  occ. eigenvalues --   -0.58800  -0.57414  -0.52310  -0.50889  -0.50668
 Alpha  occ. eigenvalues --   -0.49966  -0.48318  -0.48160  -0.35470  -0.34580
 Alpha  occ. eigenvalues --   -0.31854  -0.31440   0.17653
 Alpha virt. eigenvalues --    0.29096   0.35095   0.35725   0.41488   0.42041
 Alpha virt. eigenvalues --    0.50451   0.54647   0.57291   0.57815   0.58942
 Alpha virt. eigenvalues --    0.59670   0.74938   0.75354   0.84768   0.86081

 Mulliken charges and spin densities:
               1          2
     1  O   -0.431451   0.057324
     2  C    0.248249   0.376427
     3  O   -0.316798   0.066249
     4  O   -0.316798   0.066249
     5  C    0.248249   0.376427
     6  O   -0.431451   0.057324
 Sum of Mulliken charges =  -1.00000   1.00000

 Dipole moment (field-independent basis, Debye):
    X=             -0.0000    Y=              0.0000    Z=              0.0000  Tot=              0.0000
 Quadrupole moment (field-independent basis, Debye-Ang):
   XX=            -31.6591   YY=            -33.8687   ZZ=            -81.7506
   XY=              0.0000   XZ=              0.0000   YZ=              0.0000

 24\CCSD(T)=-376.4900088\RMSD=3.329e-09\PG=D*H [C*(O1C1O1.O1C1O1)]\\@
 Normal termination of Gaussian 16 at Wed Feb 21 10:07:35 2024.
