 Gaussian 16, Revision A.03,
 Gaussian 16:  ES64L-G16RevA.03 25-Dec-2016

 --------------------
 #p ROCCSD(T)/cc-pVTZ
 --------------------

 ----------
 CO2_CO2_97
 ----------
 Symbolic Z-matrix:
 Charge = -1 Multiplicity = 2

                         Standard orientation:
 ---------------------------------------------------------------------
 Center     Atomic      Atomic             Coordinates (Angstroms)
 Number     Number       Type             X           Y           Z
 ---------------------------------------------------------------------
      1          8           0        1.233548   -2.955048    0.000000
      2          6           0        0.411183   -2.132683    0.000000
      3          8           0       -0.411183   -1.310317   -0.000000
      4          8           0       -0.411183    0.969682   -0.000000
      5          6           0       -0.411183    2.132683   -0.000000
      6          8           0       -0.411183    3.295683   -0.000000
 ---------------------------------------------------------------------

 SCF Done:  E(ROHF) =  -375.209340818     A.U. after   16 cycles
 E2 =    -0.1237849037D+01 EUMP2 =    -0.37644718985556D+03
 CCSD(T)
 CCSD(T)= -0.37648442446D+03

 The electronic state is 2-A".
 Alpha  occ. eigenvalues --  -20.40661 -20.40093 -20.39304 -20.38913 -11.18614
 Alpha  occ. eigenvalues --  -11.17037  -1.29349  -1.28067  -1.23866  -1.22477
 Alpha  occ. eigenvalues --   -0.59427  -0.56073  -0.52437  -0.50444  -0.49317
 Alpha  occ. eigenvalues --   -0.48365  -0.47731  -0.45782  -0.35074  -0.33041
 Alpha  occ. eigenvalues --   -0.31410  -0.29688   0.17364
 Alpha virt. eigenvalues --    0.31106   0.35113   0.37256   0.42057   0.43118
 Alpha virt. eigenvalues --    0.51457   0.54989   0.57136   0.58798   0.59259
 Alpha virt. eigenvalues --    0.63231   0.74988   0.77297   0.84499   0.86423

 Mulliken charges and spin densities:
               1          2
     1  O   -0.440306   0.060935
     2  C    0.250575   0.389093
     3  O   -0.330786   0.069470
     4  O   -0.283201   0.066037
     5  C    0.245721   0.360220
     6  O   -0.442004   0.054244
 Sum of Mulliken charges =  -1.00000   1.00000

 Dipole moment (field-independent basis, Debye):
    X=             -0.3254    Y=              0.3309    Z=             -0.0000  Tot=              0.4640
 Quadrupole moment (field-independent basis, Debye-Ang):
   XX=            -36.5226   YY=            -68.8441   ZZ=            -33.8477
   XY=              8.8894   XZ=             -0.0000   YZ=              0.0000

 1899\MP4SDQ=-376.4323512\CCSD=-376.425574\CCSD(T)=-376.4844245\RMSD=9.
 Normal termination of Gaussian 16 at Tue Feb 20 14:50:57 2024.
