 Gaussian 16, Revision A.03,
 Gaussian 16:  ES64L-G16RevA.03 25-Dec-2016

 --------------------
 #p ROCCSD(T)/cc-pVTZ
 --------------------

 ----------
 CO2_CO2_56
 ----------
 Symbolic Z-matrix:
 Charge = -1 Multiplicity = 2

                         Standard orientation:
 ---------------------------------------------------------------------
 Center     Atomic      Atomic             Coordinates (Angstroms)
 Number     Number       Type             X           Y           Z
 ---------------------------------------------------------------------
      1          8           0       -1.744500   -1.441500    0.000000
      2          6           0       -0.581500   -1.441500    0.000000
      3          8           0        0.581500   -1.441500    0.000000
      4          8           0        0.581500    0.278500    0.000000
      5          6           0        0.581500    1.441500    0.000000
      6          8           0        0.581500    2.604500    0.000000
 ---------------------------------------------------------------------

 SCF Done:  E(ROHF) =  -375.132837042     A.U. after   36 cycles
 E2 =    -0.1249792406D+01 EUMP2 =    -0.37638262944794D+03
 CCSD(T)
 CCSD(T)= -0.37642321961D+03

 The electronic state is 2-A'.
 Alpha  occ. eigenvalues --  -20.45227 -20.42517 -20.36565 -20.35470 -11.25375
 Alpha  occ. eigenvalues --  -11.15342  -1.34221  -1.29343  -1.25221  -1.20592
 Alpha  occ. eigenvalues --   -0.64581  -0.60821  -0.55212  -0.52222  -0.51378
 Alpha  occ. eigenvalues --   -0.46196  -0.44527  -0.44421  -0.35081  -0.29894
 Alpha  occ. eigenvalues --   -0.27370  -0.26993   0.12535
 Alpha virt. eigenvalues --    0.35727   0.38867   0.39841   0.42032   0.44328
 Alpha virt. eigenvalues --    0.50373   0.55675   0.56035   0.59681   0.64227
 Alpha virt. eigenvalues --    0.65755   0.74357   0.79195   0.82891   0.88449

 Mulliken charges and spin densities:
               1          2
     1  O   -0.329833  -0.025149
     2  C    0.301462   0.218522
     3  O   -0.196562  -0.030934
     4  O   -0.087877  -0.158998
     5  C   -0.418678   1.112274
     6  O   -0.268512  -0.115715
 Sum of Mulliken charges =  -1.00000   1.00000

 Dipole moment (field-independent basis, Debye):
    X=             -2.3138    Y=             -4.1523    Z=              0.0000  Tot=              4.7535
 Quadrupole moment (field-independent basis, Debye-Ang):
   XX=            -44.2094   YY=            -52.8672   ZZ=            -33.9936
   XY=             -6.7483   XZ=              0.0000   YZ=              0.0000

 -376.3609302\CCSD(T)=-376.4232196\RMSD=5.099e-09\PG=CS [SG(C2O4)]\\@
 Normal termination of Gaussian 16 at Mon Feb 19 20:25:16 2024.
