 Gaussian 16, Revision A.03,
 Gaussian 16:  ES64L-G16RevA.03 25-Dec-2016

 --------------------
 #p ROCCSD(T)/cc-pVTZ
 --------------------

 -----------
 CO2_CO2_162
 -----------
 Symbolic Z-matrix:
 Charge = -1 Multiplicity = 2

                         Standard orientation:
 ---------------------------------------------------------------------
 Center     Atomic      Atomic             Coordinates (Angstroms)
 Number     Number       Type             X           Y           Z
 ---------------------------------------------------------------------
      1          8           0        0.000000    0.000000    3.906000
      2          6           0        0.000000    0.000000    2.743000
      3          8           0        0.000000    0.000000    1.580000
      4          8           0        0.000000    0.000000   -1.580000
      5          6           0        0.000000    0.000000   -2.743000
      6          8           0        0.000000    0.000000   -3.906000
 ---------------------------------------------------------------------

 SCF Done:  E(ROHF) =  -375.219324829     A.U. after   12 cycles
 E2 =    -0.1233646824D+01 EUMP2 =    -0.37645297165372D+03
 CCSD(T)
 CCSD(T)= -0.37648945837D+03

 Unable to determine electronic state:  an orbital has unidentified symmetry.
 Alpha  occ. eigenvalues --  -20.41422 -20.41422 -20.41132 -20.41132 -11.19559
 Alpha  occ. eigenvalues --  -11.19559  -1.30144  -1.30117  -1.24676  -1.24619
 Alpha  occ. eigenvalues --   -0.58865  -0.58235  -0.52338  -0.51353  -0.51315
 Alpha  occ. eigenvalues --   -0.51242  -0.48786  -0.48722  -0.35867  -0.35336
 Alpha  occ. eigenvalues --   -0.32265  -0.32093   0.17735
 Alpha virt. eigenvalues --    0.27977   0.34699   0.35223   0.41150   0.41428
 Alpha virt. eigenvalues --    0.49555   0.53691   0.57047   0.57294   0.58726
 Alpha virt. eigenvalues --    0.59059   0.74931   0.75155   0.78899   0.85888

 Mulliken charges and spin densities:
               1          2
     1  O   -0.420417   0.057444
     2  C    0.256572   0.377839
     3  O   -0.336155   0.064717
     4  O   -0.336155   0.064717
     5  C    0.256572   0.377839
     6  O   -0.420417   0.057444
 Sum of Mulliken charges =  -1.00000   1.00000

 Dipole moment (field-independent basis, Debye):
    X=             -0.0000    Y=              0.0000    Z=              0.0000  Tot=              0.0000
 Quadrupole moment (field-independent basis, Debye-Ang):
   XX=            -31.6520   YY=            -33.8677   ZZ=            -86.4237
   XY=              0.0000   XZ=              0.0000   YZ=              0.0000

 1839\CCSD(T)=-376.4894584\RMSD=2.626e-09\PG=D*H [C*(O1C1O1.O1C1O1)]\\@
 Normal termination of Gaussian 16 at Tue Feb 20 10:52:03 2024.
