 Gaussian 16, Revision A.03,
 Gaussian 16:  ES64L-G16RevA.03 25-Dec-2016

 --------------------
 #p ROCCSD(T)/cc-pVTZ
 --------------------

 -----------
 CO2_CO2_107
 -----------
 Symbolic Z-matrix:
 Charge = -1 Multiplicity = 2

                         Standard orientation:
 ---------------------------------------------------------------------
 Center     Atomic      Atomic             Coordinates (Angstroms)
 Number     Number       Type             X           Y           Z
 ---------------------------------------------------------------------
      1          8           0       -1.744500   -1.781500    0.000000
      2          6           0       -0.581500   -1.781500    0.000000
      3          8           0        0.581500   -1.781500    0.000000
      4          8           0        0.581500    0.618500    0.000000
      5          6           0        0.581500    1.781500    0.000000
      6          8           0        0.581500    2.944500    0.000000
 ---------------------------------------------------------------------

 SCF Done:  E(ROHF) =  -375.251583406     A.U. after   49 cycles
 E2 =    -0.1237762360D+01 EUMP2 =    -0.37648934576557D+03
 CCSD(T)
 CCSD(T)= -0.37652798836D+03

 The electronic state is 2-A'.
 Alpha  occ. eigenvalues --  -20.48430 -20.47488 -20.38241 -20.38126 -11.29276
 Alpha  occ. eigenvalues --  -11.19065  -1.36201  -1.30909  -1.27482  -1.22633
 Alpha  occ. eigenvalues --   -0.63662  -0.58164  -0.57237  -0.54710  -0.53549
 Alpha  occ. eigenvalues --   -0.49095  -0.46163  -0.45667  -0.37699  -0.37124
 Alpha  occ. eigenvalues --   -0.29439  -0.28868   0.13881
 Alpha virt. eigenvalues --    0.32596   0.36419   0.37383   0.42256   0.43003
 Alpha virt. eigenvalues --    0.48700   0.53676   0.54144   0.58727   0.62385
 Alpha virt. eigenvalues --    0.63957   0.72581   0.76952   0.81239   0.84896

 Mulliken charges and spin densities:
               1          2
     1  O   -0.276933  -0.044841
     2  C    0.324069   0.233462
     3  O   -0.217486  -0.042153
     4  O   -0.008938  -0.251137
     5  C   -0.675417   1.317775
     6  O   -0.145295  -0.213106
 Sum of Mulliken charges =  -1.00000   1.00000

 Dipole moment (field-independent basis, Debye):
    X=             -2.2607    Y=             -5.7283    Z=              0.0000  Tot=              6.1583
 Quadrupole moment (field-independent basis, Debye-Ang):
   XX=            -43.6600   YY=            -56.2055   ZZ=            -35.0857
   XY=             -6.9249   XZ=              0.0000   YZ=              0.0000

 =-376.4671416\CCSD(T)=-376.5279884\RMSD=1.910e-09\PG=CS [SG(C2O4)]\\@
 Normal termination of Gaussian 16 at Tue Feb 20 16:35:40 2024.
