 Gaussian 16, Revision A.03,
 Gaussian 16:  ES64L-G16RevA.03 25-Dec-2016

 --------------------
 #p ROCCSD(T)/cc-pVTZ
 --------------------

 -----------
 CO2_CO2_180
 -----------
 Symbolic Z-matrix:
 Charge = -1 Multiplicity = 2

                         Standard orientation:
 ---------------------------------------------------------------------
 Center     Atomic      Atomic             Coordinates (Angstroms)
 Number     Number       Type             X           Y           Z
 ---------------------------------------------------------------------
      1          8           0        0.000000    0.000000    4.026000
      2          6           0        0.000000    0.000000    2.863000
      3          8           0        0.000000    0.000000    1.700000
      4          8           0        0.000000    0.000000   -1.700000
      5          6           0        0.000000    0.000000   -2.863000
      6          8           0        0.000000    0.000000   -4.026000
 ---------------------------------------------------------------------

 SCF Done:  E(ROHF) =  -375.219515621     A.U. after   12 cycles
 E2 =    -0.1233237392D+01 EUMP2 =    -0.37645275301330D+03
 CCSD(T)
 CCSD(T)= -0.37648906249D+03

 Unable to determine electronic state:  an orbital has unidentified symmetry.
 Alpha  occ. eigenvalues --  -20.41678 -20.41678 -20.41398 -20.41397 -11.19854
 Alpha  occ. eigenvalues --  -11.19854  -1.30401  -1.30387  -1.24937  -1.24906
 Alpha  occ. eigenvalues --   -0.59010  -0.58615  -0.52454  -0.51835  -0.51602
 Alpha  occ. eigenvalues --   -0.51525  -0.49035  -0.48998  -0.36095  -0.35686
 Alpha  occ. eigenvalues --   -0.32502  -0.32401   0.17750
 Alpha virt. eigenvalues --    0.27427   0.34433   0.34985   0.40955   0.41130
 Alpha virt. eigenvalues --    0.48930   0.53252   0.56879   0.57034   0.58566
 Alpha virt. eigenvalues --    0.58767   0.74797   0.75211   0.77580   0.85837

 Mulliken charges and spin densities:
               1          2
     1  O   -0.415414   0.057583
     2  C    0.259848   0.378175
     3  O   -0.344434   0.064241
     4  O   -0.344434   0.064241
     5  C    0.259848   0.378175
     6  O   -0.415414   0.057583
 Sum of Mulliken charges =  -1.00000   1.00000

 Dipole moment (field-independent basis, Debye):
    X=             -0.0000    Y=              0.0000    Z=              0.0000  Tot=              0.0000
 Quadrupole moment (field-independent basis, Debye-Ang):
   XX=            -31.6480   YY=            -33.8628   ZZ=            -89.4590
   XY=              0.0000   XZ=              0.0000   YZ=             -0.0000

 1\CCSD(T)=-376.4890625\RMSD=2.441e-09\PG=D*H [C*(O1C1O1.O1C1O1)]\\@
 Normal termination of Gaussian 16 at Tue Feb 20 13:46:24 2024.
