 Gaussian 16, Revision A.03,
 Gaussian 16:  ES64L-G16RevA.03 25-Dec-2016

 --------------------
 #p ROCCSD(T)/cc-pVTZ
 --------------------

 -----------
 CO2_CO2_204
 -----------
 Symbolic Z-matrix:
 Charge = -1 Multiplicity = 2

                         Standard orientation:
 ---------------------------------------------------------------------
 Center     Atomic      Atomic             Coordinates (Angstroms)
 Number     Number       Type             X           Y           Z
 ---------------------------------------------------------------------
      1          8           0        0.000000    0.000000    4.186000
      2          6           0        0.000000    0.000000    3.023000
      3          8           0        0.000000    0.000000    1.860000
      4          8           0        0.000000    0.000000   -1.860000
      5          6           0        0.000000    0.000000   -3.023000
      6          8           0        0.000000    0.000000   -4.186000
 ---------------------------------------------------------------------

 SCF Done:  E(ROHF) =  -375.219751578     A.U. after   12 cycles
 E2 =    -0.1232868673D+01 EUMP2 =    -0.37645262025081D+03
 CCSD(T)
 CCSD(T)= -0.37648870968D+03

 Unable to determine electronic state:  an orbital has unidentified symmetry.
 Alpha  occ. eigenvalues --  -20.41978 -20.41978 -20.41713 -20.41713 -11.20191
 Alpha  occ. eigenvalues --  -11.20191  -1.30708  -1.30701  -1.25249  -1.25235
 Alpha  occ. eigenvalues --   -0.59241  -0.59028  -0.52663  -0.52347  -0.51902
 Alpha  occ. eigenvalues --   -0.51852  -0.49335  -0.49317  -0.36376  -0.36073
 Alpha  occ. eigenvalues --   -0.32797  -0.32749   0.17748
 Alpha virt. eigenvalues --    0.26797   0.34131   0.34695   0.40705   0.40792
 Alpha virt. eigenvalues --    0.48488   0.52655   0.56652   0.56734   0.58342
 Alpha virt. eigenvalues --    0.58440   0.74639   0.74827   0.78181   0.85691

 Mulliken charges and spin densities:
               1          2
     1  O   -0.410655   0.057808
     2  C    0.262694   0.378318
     3  O   -0.352039   0.063874
     4  O   -0.352039   0.063874
     5  C    0.262694   0.378318
     6  O   -0.410655   0.057808
 Sum of Mulliken charges =  -1.00000   1.00000

 Dipole moment (field-independent basis, Debye):
    X=             -0.0000    Y=              0.0000    Z=             -0.0000  Tot=              0.0000
 Quadrupole moment (field-independent basis, Debye-Ang):
   XX=            -31.6431   YY=            -33.8550   ZZ=            -93.7575
   XY=              0.0000   XZ=              0.0000   YZ=             -0.0000

 629\CCSD(T)=-376.4887097\RMSD=2.300e-09\PG=D*H [C*(O1C1O1.O1C1O1)]\\@
 Normal termination of Gaussian 16 at Tue Feb 20 17:17:37 2024.
