 Gaussian 16, Revision A.03,
 Gaussian 16:  ES64L-G16RevA.03 25-Dec-2016

 --------------------
 #p ROCCSD(T)/cc-pVTZ
 --------------------

 -----------
 CO2_CO2_177
 -----------
 Symbolic Z-matrix:
 Charge = -1 Multiplicity = 2

                         Standard orientation:
 ---------------------------------------------------------------------
 Center     Atomic      Atomic             Coordinates (Angstroms)
 Number     Number       Type             X           Y           Z
 ---------------------------------------------------------------------
      1          8           0        0.000000    0.000000    4.006000
      2          6           0        0.000000    0.000000    2.843000
      3          8           0        0.000000    0.000000    1.680000
      4          8           0        0.000000    0.000000   -1.680000
      5          6           0        0.000000    0.000000   -2.843000
      6          8           0        0.000000    0.000000   -4.006000
 ---------------------------------------------------------------------

 SCF Done:  E(ROHF) =  -375.219486631     A.U. after   12 cycles
 E2 =    -0.1233295958D+01 EUMP2 =    -0.37645278258854D+03
 CCSD(T)
 CCSD(T)= -0.37648912123D+03

 Unable to determine electronic state:  an orbital has unidentified symmetry.
 Alpha  occ. eigenvalues --  -20.41637 -20.41637 -20.41355 -20.41355 -11.19808
 Alpha  occ. eigenvalues --  -11.19807  -1.30360  -1.30344  -1.24895  -1.24861
 Alpha  occ. eigenvalues --   -0.58983  -0.58557  -0.52431  -0.51758  -0.51562
 Alpha  occ. eigenvalues --   -0.51481  -0.48995  -0.48954  -0.36058  -0.35632
 Alpha  occ. eigenvalues --   -0.32463  -0.32353   0.17749
 Alpha virt. eigenvalues --    0.27514   0.34477   0.35023   0.40987   0.41177
 Alpha virt. eigenvalues --    0.49023   0.53324   0.56908   0.57075   0.58593
 Alpha virt. eigenvalues --    0.58812   0.74817   0.75222   0.77678   0.85846

 Mulliken charges and spin densities:
               1          2
     1  O   -0.416160   0.057558
     2  C    0.259388   0.378138
     3  O   -0.343228   0.064304
     4  O   -0.343228   0.064304
     5  C    0.259388   0.378138
     6  O   -0.416160   0.057558
 Sum of Mulliken charges =  -1.00000   1.00000

 Dipole moment (field-independent basis, Debye):
    X=             -0.0000    Y=              0.0000    Z=             -0.0000  Tot=              0.0000
 Quadrupole moment (field-independent basis, Debye-Ang):
   XX=            -31.6486   YY=            -33.8638   ZZ=            -88.9417
   XY=              0.0000   XZ=              0.0000   YZ=              0.0000

 9264\CCSD(T)=-376.4891212\RMSD=2.465e-09\PG=D*H [C*(O1C1O1.O1C1O1)]\\@
 Normal termination of Gaussian 16 at Tue Feb 20 13:17:05 2024.
