 Gaussian 16, Revision A.03,
 Gaussian 16:  ES64L-G16RevA.03 25-Dec-2016

 --------------------
 #p ROCCSD(T)/cc-pVTZ
 --------------------

 ----------
 CO2_CO2_53
 ----------
 Symbolic Z-matrix:
 Charge = -1 Multiplicity = 2

                         Standard orientation:
 ---------------------------------------------------------------------
 Center     Atomic      Atomic             Coordinates (Angstroms)
 Number     Number       Type             X           Y           Z
 ---------------------------------------------------------------------
      1          8           0       -1.744500   -1.421500    0.000000
      2          6           0       -0.581500   -1.421500    0.000000
      3          8           0        0.581500   -1.421500    0.000000
      4          8           0        0.581500    0.258500    0.000000
      5          6           0        0.581500    1.421500    0.000000
      6          8           0        0.581500    2.584500    0.000000
 ---------------------------------------------------------------------

 SCF Done:  E(ROHF) =  -375.109126249     A.U. after   36 cycles
 E2 =    -0.1237671608D+01 EUMP2 =    -0.37634679785733D+03
 CCSD(T)
 CCSD(T)= -0.37638922431D+03

 The electronic state is 2-A'.
 Alpha  occ. eigenvalues --  -20.44379 -20.41727 -20.31132 -20.30528 -11.23821
 Alpha  occ. eigenvalues --  -11.05831  -1.33221  -1.28070  -1.20751  -1.15506
 Alpha  occ. eigenvalues --   -0.63234  -0.59870  -0.54464  -0.51283  -0.47602
 Alpha  occ. eigenvalues --   -0.44620  -0.42968  -0.40409  -0.33945  -0.29736
 Alpha  occ. eigenvalues --   -0.23865  -0.23723   0.11139
 Alpha virt. eigenvalues --    0.35991   0.39816   0.39925   0.43984   0.48213
 Alpha virt. eigenvalues --    0.50897   0.57270   0.57516   0.59957   0.67258
 Alpha virt. eigenvalues --    0.67307   0.75654   0.81514   0.84582   0.89076

 Mulliken charges and spin densities:
               1          2
     1  O   -0.382919   0.011680
     2  C    0.466080   0.051608
     3  O   -0.233308   0.016968
     4  O   -0.396415   0.071549
     5  C    0.075887   0.741388
     6  O   -0.529326   0.106808
 Sum of Mulliken charges =  -1.00000   1.00000

 Dipole moment (field-independent basis, Debye):
    X=             -0.7571    Y=             -4.4945    Z=              0.0000  Tot=              4.5578
 Quadrupole moment (field-independent basis, Debye-Ang):
   XX=            -40.8890   YY=            -54.6903   ZZ=            -31.5504
   XY=             -4.5043   XZ=              0.0000   YZ=              0.0000

 D=-376.3297298\CCSD(T)=-376.3892243\RMSD=2.571e-09\PG=CS [SG(C2O4)]\\@
 Normal termination of Gaussian 16 at Mon Feb 19 19:54:42 2024.
