 Gaussian 16, Revision A.03,
 Gaussian 16:  ES64L-G16RevA.03 25-Dec-2016

 --------------------
 #p ROCCSD(T)/cc-pVTZ
 --------------------

 -----------
 CO2_CO2_138
 -----------
 Symbolic Z-matrix:
 Charge = -1 Multiplicity = 2

                         Standard orientation:
 ---------------------------------------------------------------------
 Center     Atomic      Atomic             Coordinates (Angstroms)
 Number     Number       Type             X           Y           Z
 ---------------------------------------------------------------------
      1          8           0        0.000000    0.000000    3.746000
      2          6           0        0.000000    0.000000    2.583000
      3          8           0        0.000000    0.000000    1.420000
      4          8           0        0.000000    0.000000   -1.420000
      5          6           0        0.000000    0.000000   -2.583000
      6          8           0        0.000000    0.000000   -3.746000
 ---------------------------------------------------------------------

 SCF Done:  E(ROHF) =  -375.218766002     A.U. after   12 cycles
 E2 =    -0.1234498830D+01 EUMP2 =    -0.37645326483188D+03
 CCSD(T)
 CCSD(T)= -0.37648997526D+03

 Unable to determine electronic state:  an orbital has unidentified symmetry.
 Alpha  occ. eigenvalues --  -20.41028 -20.41028 -20.40721 -20.40720 -11.19088
 Alpha  occ. eigenvalues --  -11.19088  -1.29760  -1.29696  -1.24293  -1.24162
 Alpha  occ. eigenvalues --   -0.58782  -0.57599  -0.52294  -0.50987  -0.50796
 Alpha  occ. eigenvalues --   -0.50305  -0.48417  -0.48285  -0.35549  -0.34753
 Alpha  occ. eigenvalues --   -0.31936  -0.31589   0.17677
 Alpha virt. eigenvalues --    0.28848   0.35027   0.35610   0.41419   0.41904
 Alpha virt. eigenvalues --    0.50331   0.54422   0.57248   0.57700   0.58906
 Alpha virt. eigenvalues --    0.59533   0.74977   0.75235   0.83322   0.86023

 Mulliken charges and spin densities:
               1          2
     1  O   -0.428985   0.057332
     2  C    0.250150   0.376814
     3  O   -0.321165   0.065853
     4  O   -0.321165   0.065853
     5  C    0.250150   0.376814
     6  O   -0.428985   0.057332
 Sum of Mulliken charges =  -1.00000   1.00000

 Dipole moment (field-independent basis, Debye):
    X=             -0.0000    Y=             -0.0000    Z=             -0.0000  Tot=              0.0000
 Quadrupole moment (field-independent basis, Debye-Ang):
   XX=            -33.8696   YY=            -31.6577   ZZ=            -82.6439
   XY=              0.0000   XZ=              0.0000   YZ=              0.0000

 5\CCSD(T)=-376.4899753\RMSD=3.142e-09\PG=D*H [C*(O1C1O1.O1C1O1)]\\@
 Normal termination of Gaussian 16 at Wed Feb 21 10:54:49 2024.
