 Gaussian 16, Revision A.03,
 Gaussian 16:  ES64L-G16RevA.03 25-Dec-2016

 --------------------
 #p ROCCSD(T)/cc-pVTZ
 --------------------

 -----------
 CO2_CO2_102
 -----------
 Symbolic Z-matrix:
 Charge = -1 Multiplicity = 2

                         Standard orientation:
 ---------------------------------------------------------------------
 Center     Atomic      Atomic             Coordinates (Angstroms)
 Number     Number       Type             X           Y           Z
 ---------------------------------------------------------------------
      1          8           0        0.000000    0.000000    3.506000
      2          6           0        0.000000    0.000000    2.343000
      3          8           0        0.000000    0.000000    1.180000
      4          8           0        0.000000    0.000000   -1.180000
      5          6           0        0.000000    0.000000   -2.343000
      6          8           0        0.000000    0.000000   -3.506000
 ---------------------------------------------------------------------

 SCF Done:  E(ROHF) =  -375.213068459     A.U. after   12 cycles
 E2 =    -0.1237177420D+01 EUMP2 =    -0.37645024587882D+03
 CCSD(T)
 CCSD(T)= -0.37648707461D+03

 Unable to determine electronic state:  an orbital has unidentified symmetry.
 Alpha  occ. eigenvalues --  -20.40271 -20.40271 -20.39846 -20.39845 -11.18107
 Alpha  occ. eigenvalues --  -11.18107  -1.29093  -1.28854  -1.23674  -1.23199
 Alpha  occ. eigenvalues --   -0.59465  -0.56313  -0.52568  -0.50372  -0.49897
 Alpha  occ. eigenvalues --   -0.47790  -0.47395  -0.47338  -0.35113  -0.33467
 Alpha  occ. eigenvalues --   -0.31484  -0.30485   0.17442
 Alpha virt. eigenvalues --    0.30582   0.35356   0.36426   0.41832   0.42868
 Alpha virt. eigenvalues --    0.50604   0.55912   0.57436   0.58483   0.59048
 Alpha virt. eigenvalues --    0.60498   0.74739   0.76322   0.86467   0.86585

 Mulliken charges and spin densities:
               1          2
     1  O   -0.445785   0.057449
     2  C    0.238254   0.373835
     3  O   -0.292469   0.068716
     4  O   -0.292469   0.068716
     5  C    0.238254   0.373835
     6  O   -0.445785   0.057449
 Sum of Mulliken charges =  -1.00000   1.00000

 Dipole moment (field-independent basis, Debye):
    X=             -0.0000    Y=             -0.0000    Z=             -0.0000  Tot=              0.0000
 Quadrupole moment (field-independent basis, Debye-Ang):
   XX=            -33.8521   YY=            -31.6640   ZZ=            -77.6481
   XY=              0.0000   XZ=              0.0000   YZ=              0.0000

 571\CCSD(T)=-376.4870746\RMSD=4.959e-09\PG=D*H [C*(O1C1O1.O1C1O1)]\\@
 Normal termination of Gaussian 16 at Tue Feb 20 15:39:19 2024.
