 Gaussian 16, Revision A.03,
 Gaussian 16:  ES64L-G16RevA.03 25-Dec-2016

 --------------------
 #p ROCCSD(T)/cc-pVTZ
 --------------------

 ----------
 CO2_CO2_93
 ----------
 Symbolic Z-matrix:
 Charge = -1 Multiplicity = 2

                         Standard orientation:
 ---------------------------------------------------------------------
 Center     Atomic      Atomic             Coordinates (Angstroms)
 Number     Number       Type             X           Y           Z
 ---------------------------------------------------------------------
      1          8           0        0.000000    0.000000    3.446000
      2          6           0        0.000000    0.000000    2.283000
      3          8           0        0.000000    0.000000    1.120000
      4          8           0        0.000000    0.000000   -1.120000
      5          6           0        0.000000    0.000000   -2.283000
      6          8           0        0.000000    0.000000   -3.446000
 ---------------------------------------------------------------------

 SCF Done:  E(ROHF) =  -375.208523671     A.U. after   12 cycles
 E2 =    -0.1238383226D+01 EUMP2 =    -0.37644690689771D+03
 CCSD(T)
 CCSD(T)= -0.37648365760D+03

 Unable to determine electronic state:  an orbital has unidentified symmetry.
 Alpha  occ. eigenvalues --  -20.40036 -20.40036 -20.39532 -20.39532 -11.17781
 Alpha  occ. eigenvalues --  -11.17780  -1.28918  -1.28583  -1.23532  -1.22871
 Alpha  occ. eigenvalues --   -0.60018  -0.55929  -0.52674  -0.50214  -0.49608
 Alpha  occ. eigenvalues --   -0.47627  -0.47103  -0.46066  -0.35038  -0.33024
 Alpha  occ. eigenvalues --   -0.31406  -0.30102   0.17339
 Alpha virt. eigenvalues --    0.31132   0.35429   0.36680   0.41927   0.43179
 Alpha virt. eigenvalues --    0.50620   0.56277   0.57456   0.58723   0.59060
 Alpha virt. eigenvalues --    0.60803   0.74702   0.76741   0.86600   0.86919

 Mulliken charges and spin densities:
               1          2
     1  O   -0.450854   0.057560
     2  C    0.236155   0.373021
     3  O   -0.285301   0.069420
     4  O   -0.285301   0.069420
     5  C    0.236155   0.373021
     6  O   -0.450854   0.057560
 Sum of Mulliken charges =  -1.00000   1.00000

 Dipole moment (field-independent basis, Debye):
    X=             -0.0000    Y=             -0.0000    Z=              0.0000  Tot=              0.0000
 Quadrupole moment (field-independent basis, Debye-Ang):
   XX=            -33.8421   YY=            -31.6630   ZZ=            -76.5574
   XY=              0.0000   XZ=              0.0000   YZ=              0.0000

 31\CCSD(T)=-376.4836576\RMSD=5.893e-09\PG=D*H [C*(O1C1O1.O1C1O1)]\\@
 Normal termination of Gaussian 16 at Tue Feb 20 14:09:33 2024.
