 Gaussian 16, Revision A.03,
 Gaussian 16:  ES64L-G16RevA.03 25-Dec-2016

 --------------------
 #p ROCCSD(T)/cc-pVTZ
 --------------------

 -----------
 CO2_CO2_124
 -----------
 Symbolic Z-matrix:
 Charge = -1 Multiplicity = 2

                         Standard orientation:
 ---------------------------------------------------------------------
 Center     Atomic      Atomic             Coordinates (Angstroms)
 Number     Number       Type             X           Y           Z
 ---------------------------------------------------------------------
      1          8           0        1.233548   -3.135048    0.000000
      2          6           0        0.411183   -2.312683    0.000000
      3          8           0       -0.411183   -1.490317   -0.000000
      4          8           0       -0.411183    1.149683   -0.000000
      5          6           0       -0.411183    2.312683   -0.000000
      6          8           0       -0.411183    3.475682   -0.000000
 ---------------------------------------------------------------------

 SCF Done:  E(ROHF) =  -375.217680943     A.U. after   16 cycles
 E2 =    -0.1235030248D+01 EUMP2 =    -0.37645271119050D+03
 CCSD(T)
 CCSD(T)= -0.37648982854D+03

 The electronic state is 2-A".
 Alpha  occ. eigenvalues --  -20.41105 -20.40713 -20.40117 -20.39815 -11.19211
 Alpha  occ. eigenvalues --  -11.18049  -1.29775  -1.28844  -1.24278  -1.23329
 Alpha  occ. eigenvalues --   -0.58720  -0.57045  -0.52191  -0.50875  -0.50097
 Alpha  occ. eigenvalues --   -0.49780  -0.48386  -0.47271  -0.35344  -0.34137
 Alpha  occ. eigenvalues --   -0.31810  -0.30781   0.17571
 Alpha virt. eigenvalues --    0.29707   0.34908   0.36485   0.41653   0.42498
 Alpha virt. eigenvalues --    0.50797   0.54483   0.57150   0.58457   0.58735
 Alpha virt. eigenvalues --    0.61635   0.74942   0.76482   0.83723   0.86024

 Mulliken charges and spin densities:
               1          2
     1  O   -0.430098   0.059893
     2  C    0.253591   0.386386
     3  O   -0.337134   0.067371
     4  O   -0.307522   0.064959
     5  C    0.251731   0.366318
     6  O   -0.430567   0.055073
 Sum of Mulliken charges =  -1.00000   1.00000

 Dipole moment (field-independent basis, Debye):
    X=             -0.2493    Y=              0.2285    Z=             -0.0000  Tot=              0.3382
 Quadrupole moment (field-independent basis, Debye-Ang):
   XX=            -36.4421   YY=            -72.1541   ZZ=            -33.8541
   XY=              9.0958   XZ=             -0.0000   YZ=              0.0000

 27112\MP4SDQ=-376.4381493\CCSD=-376.4316368\CCSD(T)=-376.4898285\RMSD=
 Normal termination of Gaussian 16 at Wed Feb 21 09:03:50 2024.
