 Gaussian 16, Revision A.03,
 Gaussian 16:  ES64L-G16RevA.03 25-Dec-2016

 --------------------
 #p ROCCSD(T)/cc-pVTZ
 --------------------

 ----------
 CO2_CO2_20
 ----------
 Symbolic Z-matrix:
 Charge = -1 Multiplicity = 2

                         Standard orientation:
 ---------------------------------------------------------------------
 Center     Atomic      Atomic             Coordinates (Angstroms)
 Number     Number       Type             X           Y           Z
 ---------------------------------------------------------------------
      1          8           0       -1.744500   -1.201500    0.000000
      2          6           0       -0.581500   -1.201500    0.000000
      3          8           0        0.581500   -1.201500    0.000000
      4          8           0        0.581500    0.038500    0.000000
      5          6           0        0.581500    1.201500    0.000000
      6          8           0        0.581500    2.364500    0.000000
 ---------------------------------------------------------------------

 SCF Done:  E(ROHF) =  -374.634408285     A.U. after   24 cycles
 E2 =    -0.1283253422D+01 EUMP2 =    -0.37591766170699D+03
 CCSD(T)
 CCSD(T)= -0.37595744259D+03

 The electronic state is 2-A'.
 Alpha  occ. eigenvalues --  -20.49953 -20.41342 -20.37066 -20.34819 -11.13855
 Alpha  occ. eigenvalues --  -11.12190  -1.54152  -1.24395  -1.22482  -1.18987
 Alpha  occ. eigenvalues --   -0.79786  -0.69040  -0.61003  -0.51020  -0.50386
 Alpha  occ. eigenvalues --   -0.48002  -0.42774  -0.39314  -0.34286  -0.33128
 Alpha  occ. eigenvalues --   -0.26593   0.01561   0.04979
 Alpha virt. eigenvalues --    0.35515   0.40210   0.43715   0.44606   0.46856
 Alpha virt. eigenvalues --    0.51102   0.57230   0.59473   0.61648   0.65796
 Alpha virt. eigenvalues --    0.67320   0.76636   0.80014   0.82855   0.87496

 Mulliken charges and spin densities:
               1          2
     1  O   -0.384853   0.001306
     2  C   -0.050466   0.020800
     3  O    0.040790   0.044450
     4  O   -0.126162   0.035551
     5  C   -0.052738   0.840324
     6  O   -0.426571   0.057569
 Sum of Mulliken charges =  -1.00000   1.00000

 Dipole moment (field-independent basis, Debye):
    X=              2.4182    Y=             -0.9859    Z=              0.0000  Tot=              2.6114
 Quadrupole moment (field-independent basis, Debye-Ang):
   XX=            -41.4981   YY=            -57.9501   ZZ=            -31.9504
   XY=             -6.3330   XZ=              0.0000   YZ=              0.0000

 =-375.8892925\CCSD(T)=-375.9574426\RMSD=2.834e-09\PG=CS [SG(C2O4)]\\@
 Normal termination of Gaussian 16 at Mon Feb 19 14:50:30 2024.
