 Gaussian 16, Revision A.03,
 Gaussian 16:  ES64L-G16RevA.03 25-Dec-2016

 --------------------
 #p ROCCSD(T)/cc-pVTZ
 --------------------

 -----------
 CO2_CO2_222
 -----------
 Symbolic Z-matrix:
 Charge = -1 Multiplicity = 2

                         Standard orientation:
 ---------------------------------------------------------------------
 Center     Atomic      Atomic             Coordinates (Angstroms)
 Number     Number       Type             X           Y           Z
 ---------------------------------------------------------------------
      1          8           0        0.000000    0.000000    4.306000
      2          6           0        0.000000    0.000000    3.143000
      3          8           0        0.000000    0.000000    1.980000
      4          8           0        0.000000    0.000000   -1.980000
      5          6           0        0.000000    0.000000   -3.143000
      6          8           0        0.000000    0.000000   -4.306000
 ---------------------------------------------------------------------

 SCF Done:  E(ROHF) =  -375.219942133     A.U. after   12 cycles
 E2 =    -0.1232679327D+01 EUMP2 =    -0.37645262146050D+03
 CCSD(T)
 CCSD(T)= -0.37648856598D+03

 Unable to determine electronic state:  an orbital has unidentified symmetry.
 Alpha  occ. eigenvalues --  -20.42179 -20.42179 -20.41926 -20.41926 -11.20412
 Alpha  occ. eigenvalues --  -11.20412  -1.30914  -1.30911  -1.25460  -1.25452
 Alpha  occ. eigenvalues --   -0.59420  -0.59285  -0.52836  -0.52646  -0.52105
 Alpha  occ. eigenvalues --   -0.52068  -0.49538  -0.49528  -0.36570  -0.36320
 Alpha  occ. eigenvalues --   -0.33001  -0.32974   0.17738
 Alpha virt. eigenvalues --    0.26386   0.33971   0.34482   0.40526   0.40574
 Alpha virt. eigenvalues --    0.48513   0.52147   0.56486   0.56537   0.58175
 Alpha virt. eigenvalues --    0.58231   0.74509   0.74528   0.79420   0.85444

 Mulliken charges and spin densities:
               1          2
     1  O   -0.408249   0.057986
     2  C    0.264289   0.378334
     3  O   -0.356040   0.063680
     4  O   -0.356040   0.063680
     5  C    0.264289   0.378334
     6  O   -0.408249   0.057986
 Sum of Mulliken charges =  -1.00000   1.00000

 Dipole moment (field-independent basis, Debye):
    X=             -0.0000    Y=              0.0000    Z=             -0.0000  Tot=              0.0000
 Quadrupole moment (field-independent basis, Debye-Ang):
   XX=            -33.8495   YY=            -31.6398   ZZ=            -97.1638
   XY=              0.0000   XZ=              0.0000   YZ=             -0.0000

 5433\CCSD(T)=-376.488566\RMSD=2.225e-09\PG=D*H [C*(O1C1O1.O1C1O1)]\\@
 Normal termination of Gaussian 16 at Wed Feb 21 09:24:56 2024.
