 Gaussian 16, Revision A.03,
 Gaussian 16:  ES64L-G16RevA.03 25-Dec-2016

 --------------------
 #p ROCCSD(T)/cc-pVTZ
 --------------------

 -----------
 CO2_CO2_100
 -----------
 Symbolic Z-matrix:
 Charge = -1 Multiplicity = 2

                         Standard orientation:
 ---------------------------------------------------------------------
 Center     Atomic      Atomic             Coordinates (Angstroms)
 Number     Number       Type             X           Y           Z
 ---------------------------------------------------------------------
      1          8           0        1.233548   -2.975048    0.000000
      2          6           0        0.411183   -2.152683    0.000000
      3          8           0       -0.411183   -1.330317    0.000000
      4          8           0       -0.411183    0.989683   -0.000000
      5          6           0       -0.411183    2.152683   -0.000000
      6          8           0       -0.411183    3.315682   -0.000000
 ---------------------------------------------------------------------

 SCF Done:  E(ROHF) =  -375.210978923     A.U. after   16 cycles
 E2 =    -0.1237409208D+01 EUMP2 =    -0.37644838813119D+03
 CCSD(T)
 CCSD(T)= -0.37648563580D+03

 The electronic state is 2-A".
 Alpha  occ. eigenvalues --  -20.40713 -20.40174 -20.39409 -20.39033 -11.18688
 Alpha  occ. eigenvalues --  -11.17169  -1.29395  -1.28164  -1.23907  -1.22587
 Alpha  occ. eigenvalues --   -0.59276  -0.56190  -0.52402  -0.50490  -0.49415
 Alpha  occ. eigenvalues --   -0.48486  -0.47848  -0.46030  -0.35095  -0.33185
 Alpha  occ. eigenvalues --   -0.31452  -0.29843   0.17396
 Alpha virt. eigenvalues --    0.30930   0.35090   0.37162   0.42013   0.43042
 Alpha virt. eigenvalues --    0.51376   0.54935   0.57143   0.58792   0.59159
 Alpha virt. eigenvalues --    0.63038   0.74968   0.77190   0.84358   0.86386

 Mulliken charges and spin densities:
               1          2
     1  O   -0.438997   0.060775
     2  C    0.250958   0.388584
     3  O   -0.331373   0.069264
     4  O   -0.285996   0.065961
     5  C    0.246085   0.361065
     6  O   -0.440676   0.054351
 Sum of Mulliken charges =  -1.00000   1.00000

 Dipole moment (field-independent basis, Debye):
    X=             -0.3148    Y=              0.3154    Z=             -0.0000  Tot=              0.4456
 Quadrupole moment (field-independent basis, Debye-Ang):
   XX=            -36.5121   YY=            -69.1837   ZZ=            -33.8489
   XY=              8.9091   XZ=             -0.0000   YZ=              0.0000

 83881\MP4SDQ=-376.4336113\CCSD=-376.4268614\CCSD(T)=-376.4856358\RMSD=
 Normal termination of Gaussian 16 at Tue Feb 20 15:21:25 2024.
