 Gaussian 16, Revision A.03,
 Gaussian 16:  ES64L-G16RevA.03 25-Dec-2016

 --------------------
 #p ROCCSD(T)/cc-pVTZ
 --------------------

 -----------
 CO2_CO2_140
 -----------
 Symbolic Z-matrix:
 Charge = -1 Multiplicity = 2

                         Standard orientation:
 ---------------------------------------------------------------------
 Center     Atomic      Atomic             Coordinates (Angstroms)
 Number     Number       Type             X           Y           Z
 ---------------------------------------------------------------------
      1          8           0       -1.744500   -2.001500    0.000000
      2          6           0       -0.581500   -2.001500    0.000000
      3          8           0        0.581500   -2.001500    0.000000
      4          8           0        0.581500    0.838500    0.000000
      5          6           0        0.581500    2.001500    0.000000
      6          8           0        0.581500    3.164500    0.000000
 ---------------------------------------------------------------------

 SCF Done:  E(ROHF) =  -375.227808160     A.U. after   78 cycles
 E2 =    -0.1234010649D+01 EUMP2 =    -0.37646181880914D+03
 CCSD(T)
 CCSD(T)= -0.37649931196D+03

 The electronic state is 2-A'.
 Alpha  occ. eigenvalues --  -20.42430 -20.42349 -20.40106 -20.39712 -11.20815
 Alpha  occ. eigenvalues --  -11.19323  -1.31086  -1.28861  -1.25626  -1.23539
 Alpha  occ. eigenvalues --   -0.59496  -0.57258  -0.53203  -0.51947  -0.50868
 Alpha  occ. eigenvalues --   -0.49692  -0.48902  -0.47444  -0.36047  -0.33487
 Alpha  occ. eigenvalues --   -0.33112  -0.30807   0.16990
 Alpha virt. eigenvalues --    0.28907   0.34702   0.39828   0.40517   0.42423
 Alpha virt. eigenvalues --    0.51937   0.52204   0.56773   0.57531   0.60923
 Alpha virt. eigenvalues --    0.64215   0.74122   0.77737   0.84281   0.85760

 Mulliken charges and spin densities:
               1          2
     1  O   -0.349756   0.001535
     2  C    0.114824   0.538532
     3  O   -0.315226   0.005911
     4  O   -0.315956   0.060776
     5  C    0.276112   0.347763
     6  O   -0.409997   0.045483
 Sum of Mulliken charges =  -1.00000   1.00000

 Dipole moment (field-independent basis, Debye):
    X=              0.1629    Y=              1.6473    Z=              0.0000  Tot=              1.6554
 Quadrupole moment (field-independent basis, Debye-Ang):
   XX=            -42.4001   YY=            -65.6086   ZZ=            -32.2254
   XY=             -7.2247   XZ=              0.0000   YZ=              0.0000

 SD=-376.440563\CCSD(T)=-376.499312\RMSD=6.050e-09\PG=CS [SG(C2O4)]\\@
 Normal termination of Gaussian 16 at Wed Feb 21 11:22:28 2024.
