 Gaussian 16, Revision A.03,
 Gaussian 16:  ES64L-G16RevA.03 25-Dec-2016

 --------------------
 #p ROCCSD(T)/cc-pVTZ
 --------------------

 ----------
 CO2_CO2_22
 ----------
 Symbolic Z-matrix:
 Charge = -1 Multiplicity = 2

                         Standard orientation:
 ---------------------------------------------------------------------
 Center     Atomic      Atomic             Coordinates (Angstroms)
 Number     Number       Type             X           Y           Z
 ---------------------------------------------------------------------
      1          8           0        1.233548   -2.455048    0.000000
      2          6           0        0.411183   -1.632683    0.000000
      3          8           0       -0.411183   -0.810318    0.000000
      4          8           0       -0.411183    0.469683   -0.000000
      5          6           0       -0.411183    1.632683   -0.000000
      6          8           0       -0.411183    2.795682   -0.000000
 ---------------------------------------------------------------------

 SCF Done:  E(ROHF) =  -374.778266641     A.U. after   20 cycles
 E2 =    -0.1273661320D+01 EUMP2 =    -0.37605192796061D+03
 CCSD(T)
 CCSD(T)= -0.37609048007D+03

 The electronic state is 2-A".
 Alpha  occ. eigenvalues --  -20.48602 -20.37988 -20.35801 -20.33310 -11.14484
 Alpha  occ. eigenvalues --  -11.08896  -1.43190  -1.25063  -1.22000  -1.17832
 Alpha  occ. eigenvalues --   -0.83375  -0.57321  -0.57252  -0.52116  -0.49021
 Alpha  occ. eigenvalues --   -0.46101  -0.43033  -0.37564  -0.37537  -0.28780
 Alpha  occ. eigenvalues --   -0.26525  -0.04653   0.07442
 Alpha virt. eigenvalues --    0.34653   0.38884   0.41740   0.43992   0.45932
 Alpha virt. eigenvalues --    0.51843   0.57308   0.57388   0.61038   0.62989
 Alpha virt. eigenvalues --    0.68218   0.75441   0.84272   0.87351   0.89246

 Mulliken charges and spin densities:
               1          2
     1  O   -0.461449   0.006769
     2  C    0.175940   0.026563
     3  O   -0.041830   0.004539
     4  O   -0.212736   0.073470
     5  C    0.055369   0.761712
     6  O   -0.515295   0.126948
 Sum of Mulliken charges =  -1.00000   1.00000

 Dipole moment (field-independent basis, Debye):
    X=             -0.2272    Y=             -1.7544    Z=              0.0000  Tot=              1.7690
 Quadrupole moment (field-independent basis, Debye-Ang):
   XX=            -36.8386   YY=            -68.2095   ZZ=            -33.0110
   XY=              8.5757   XZ=             -0.0000   YZ=              0.0000

 28\MP4SDQ=-376.0323103\CCSD=-376.0246881\CCSD(T)=-376.0904801\RMSD=8.5
 Normal termination of Gaussian 16 at Mon Feb 19 15:07:32 2024.
