 Gaussian 16, Revision A.03,
 Gaussian 16:  ES64L-G16RevA.03 25-Dec-2016

 --------------------
 #p ROCCSD(T)/cc-pVTZ
 --------------------

 ----------
 CO2_CO2_51
 ----------
 Symbolic Z-matrix:
 Charge = -1 Multiplicity = 2

                         Standard orientation:
 ---------------------------------------------------------------------
 Center     Atomic      Atomic             Coordinates (Angstroms)
 Number     Number       Type             X           Y           Z
 ---------------------------------------------------------------------
      1          8           0        0.000000    0.000000    3.166000
      2          6           0        0.000000    0.000000    2.003000
      3          8           0        0.000000    0.000000    0.840000
      4          8           0        0.000000    0.000000   -0.840000
      5          6           0        0.000000    0.000000   -2.003000
      6          8           0        0.000000    0.000000   -3.166000
 ---------------------------------------------------------------------

 SCF Done:  E(ROHF) =  -375.107726041     A.U. after   13 cycles
 E2 =    -0.1253238028D+01 EUMP2 =    -0.37636096406854D+03
 CCSD(T)
 CCSD(T)= -0.37639546343D+03

 Unable to determine electronic state:  an orbital has unidentified symmetry.
 Alpha  occ. eigenvalues --  -20.38560 -20.38560 -20.37149 -20.37148 -11.15426
 Alpha  occ. eigenvalues --  -11.15425  -1.28802  -1.26810  -1.23410  -1.20458
 Alpha  occ. eigenvalues --   -0.68136  -0.53903  -0.52559  -0.49858  -0.47718
 Alpha  occ. eigenvalues --   -0.47253  -0.45122  -0.35487  -0.33092  -0.31849
 Alpha  occ. eigenvalues --   -0.29789  -0.27216   0.16315
 Alpha virt. eigenvalues --    0.34762   0.35876   0.38221   0.42015   0.45250
 Alpha virt. eigenvalues --    0.50500   0.57494   0.57759   0.59166   0.60191
 Alpha virt. eigenvalues --    0.62740   0.74920   0.79722   0.87189   0.88263

 Mulliken charges and spin densities:
               1          2
     1  O   -0.482987   0.059095
     2  C    0.234122   0.374280
     3  O   -0.251135   0.066625
     4  O   -0.251135   0.066625
     5  C    0.234122   0.374280
     6  O   -0.482987   0.059095
 Sum of Mulliken charges =  -1.00000   1.00000

 Dipole moment (field-independent basis, Debye):
    X=             -0.0000    Y=             -0.0000    Z=             -0.0000  Tot=              0.0000
 Quadrupole moment (field-independent basis, Debye-Ang):
   XX=            -31.6117   YY=            -33.7617   ZZ=            -72.6364
   XY=              0.0000   XZ=              0.0000   YZ=              0.0000

 8\CCSD(T)=-376.3954634\RMSD=6.671e-09\PG=D*H [C*(O1C1O1.O1C1O1)]\\@
 Normal termination of Gaussian 16 at Mon Feb 19 19:31:06 2024.
