 Gaussian 16, Revision A.03,
 Gaussian 16:  ES64L-G16RevA.03 25-Dec-2016

 --------------------
 #p ROCCSD(T)/cc-pVTZ
 --------------------

 ----------
 CO2_CO2_69
 ----------
 Symbolic Z-matrix:
 Charge = -1 Multiplicity = 2

                         Standard orientation:
 ---------------------------------------------------------------------
 Center     Atomic      Atomic             Coordinates (Angstroms)
 Number     Number       Type             X           Y           Z
 ---------------------------------------------------------------------
      1          8           0        0.000000    0.000000    3.286000
      2          6           0        0.000000    0.000000    2.123000
      3          8           0        0.000000    0.000000    0.960000
      4          8           0        0.000000    0.000000   -0.960000
      5          6           0        0.000000    0.000000   -2.123000
      6          8           0        0.000000    0.000000   -3.286000
 ---------------------------------------------------------------------

 SCF Done:  E(ROHF) =  -375.176828508     A.U. after   13 cycles
 E2 =    -0.1244013942D+01 EUMP2 =    -0.37642084245003D+03
 CCSD(T)
 CCSD(T)= -0.37645687138D+03

 Unable to determine electronic state:  an orbital has unidentified symmetry.
 Alpha  occ. eigenvalues --  -20.39285 -20.39285 -20.38370 -20.38370 -11.16651
 Alpha  occ. eigenvalues --  -11.16651  -1.28549  -1.27688  -1.23299  -1.21712
 Alpha  occ. eigenvalues --   -0.63199  -0.54814  -0.52792  -0.49858  -0.48655
 Alpha  occ. eigenvalues --   -0.47254  -0.46121  -0.40602  -0.35049  -0.31461
 Alpha  occ. eigenvalues --   -0.31409  -0.28730   0.16903
 Alpha virt. eigenvalues --    0.32946   0.35682   0.37476   0.42096   0.44216
 Alpha virt. eigenvalues --    0.50715   0.57140   0.57475   0.59088   0.59477
 Alpha virt. eigenvalues --    0.61788   0.74787   0.78188   0.87187   0.87346

 Mulliken charges and spin densities:
               1          2
     1  O   -0.467540   0.058144
     2  C    0.236107   0.372005
     3  O   -0.268567   0.069851
     4  O   -0.268567   0.069851
     5  C    0.236107   0.372005
     6  O   -0.467540   0.058144
 Sum of Mulliken charges =  -1.00000   1.00000

 Dipole moment (field-independent basis, Debye):
    X=             -0.0000    Y=             -0.0000    Z=              0.0000  Tot=              0.0000
 Quadrupole moment (field-independent basis, Debye-Ang):
   XX=            -31.6471   YY=            -33.8024   ZZ=            -74.0504
   XY=              0.0000   XZ=              0.0000   YZ=              0.0000

 541\CCSD(T)=-376.4568714\RMSD=5.126e-09\PG=D*H [C*(O1C1O1.O1C1O1)]\\@
 Normal termination of Gaussian 16 at Tue Feb 20 10:00:06 2024.
