 Gaussian 16, Revision A.03,
 Gaussian 16:  ES64L-G16RevA.03 25-Dec-2016

 --------------------
 #p ROCCSD(T)/cc-pVTZ
 --------------------

 -----------
 CO2_CO2_166
 -----------
 Symbolic Z-matrix:
 Charge = -1 Multiplicity = 2

                         Standard orientation:
 ---------------------------------------------------------------------
 Center     Atomic      Atomic             Coordinates (Angstroms)
 Number     Number       Type             X           Y           Z
 ---------------------------------------------------------------------
      1          8           0        1.233548   -3.415048    0.000000
      2          6           0        0.411183   -2.592683    0.000000
      3          8           0       -0.411183   -1.770317   -0.000000
      4          8           0       -0.411183    1.429683   -0.000000
      5          6           0       -0.411183    2.592683   -0.000000
      6          8           0       -0.411183    3.755682   -0.000000
 ---------------------------------------------------------------------

 SCF Done:  E(ROHF) =  -375.219895671     A.U. after   15 cycles
 E2 =    -0.1233224549D+01 EUMP2 =    -0.37645312021947D+03
 CCSD(T)
 CCSD(T)= -0.37648916413D+03

 The electronic state is 2-A".
 Alpha  occ. eigenvalues --  -20.41699 -20.41389 -20.40999 -20.40737 -11.19916
 Alpha  occ. eigenvalues --  -11.19105  -1.30389  -1.29731  -1.24913  -1.24258
 Alpha  occ. eigenvalues --   -0.58875  -0.58147  -0.52302  -0.51506  -0.51385
 Alpha  occ. eigenvalues --   -0.50971  -0.49009  -0.48315  -0.35896  -0.35234
 Alpha  occ. eigenvalues --   -0.32428  -0.31784   0.17678
 Alpha virt. eigenvalues --    0.28119   0.34491   0.35577   0.41072   0.41723
 Alpha virt. eigenvalues --    0.49366   0.53704   0.56937   0.57576   0.58533
 Alpha virt. eigenvalues --    0.59909   0.74968   0.75668   0.80586   0.84556

 Mulliken charges and spin densities:
               1          2
     1  O   -0.418480   0.059277
     2  C    0.260381   0.385178
     3  O   -0.351211   0.065071
     4  O   -0.335778   0.063587
     5  C    0.261562   0.370839
     6  O   -0.416474   0.056047
 Sum of Mulliken charges =  -1.00000   1.00000

 Dipole moment (field-independent basis, Debye):
    X=             -0.1804    Y=              0.1652    Z=             -0.0000  Tot=              0.2446
 Quadrupole moment (field-independent basis, Debye-Ang):
   XX=            -36.3650   YY=            -78.2304   ZZ=            -33.8516
   XY=              9.4964   XZ=             -0.0000   YZ=             -0.0000

 31202\MP4SDQ=-376.4384196\CCSD=-376.4332803\CCSD(T)=-376.4891641\RMSD=
 Normal termination of Gaussian 16 at Tue Feb 20 11:35:06 2024.
