 Gaussian 16, Revision A.03,
 Gaussian 16:  ES64L-G16RevA.03 25-Dec-2016

 --------------------
 #p ROCCSD(T)/cc-pVTZ
 --------------------

 -----------
 CO2_CO2_231
 -----------
 Symbolic Z-matrix:
 Charge = -1 Multiplicity = 2

                         Standard orientation:
 ---------------------------------------------------------------------
 Center     Atomic      Atomic             Coordinates (Angstroms)
 Number     Number       Type             X           Y           Z
 ---------------------------------------------------------------------
      1          8           0        0.000000    0.000000    4.366000
      2          6           0        0.000000    0.000000    3.203000
      3          8           0        0.000000    0.000000    2.040000
      4          8           0        0.000000    0.000000   -2.040000
      5          6           0        0.000000    0.000000   -3.203000
      6          8           0        0.000000    0.000000   -4.366000
 ---------------------------------------------------------------------

 SCF Done:  E(ROHF) =  -375.220040658     A.U. after   12 cycles
 E2 =    -0.1232606483D+01 EUMP2 =    -0.37645264714165D+03
 CCSD(T)
 CCSD(T)= -0.37648852588D+03

 Unable to determine electronic state:  an orbital has unidentified symmetry.
 Alpha  occ. eigenvalues --  -20.42272 -20.42272 -20.42026 -20.42026 -11.20514
 Alpha  occ. eigenvalues --  -11.20514  -1.31011  -1.31008  -1.25559  -1.25553
 Alpha  occ. eigenvalues --   -0.59508  -0.59401  -0.52924  -0.52777  -0.52201
 Alpha  occ. eigenvalues --   -0.52168  -0.49634  -0.49626  -0.36662  -0.36433
 Alpha  occ. eigenvalues --   -0.33098  -0.33078   0.17731
 Alpha virt. eigenvalues --    0.26197   0.33909   0.34377   0.40440   0.40475
 Alpha virt. eigenvalues --    0.48604   0.51878   0.56406   0.56446   0.58094
 Alpha virt. eigenvalues --    0.58136   0.74410   0.74440   0.80071   0.85264

 Mulliken charges and spin densities:
               1          2
     1  O   -0.407307   0.058074
     2  C    0.265004   0.378334
     3  O   -0.357697   0.063591
     4  O   -0.357697   0.063591
     5  C    0.265004   0.378334
     6  O   -0.407307   0.058074
 Sum of Mulliken charges =  -1.00000   1.00000

 Dipole moment (field-independent basis, Debye):
    X=             -0.0000    Y=              0.0000    Z=             -0.0000  Tot=              0.0000
 Quadrupole moment (field-independent basis, Debye-Ang):
   XX=            -33.8470   YY=            -31.6383   ZZ=            -98.9240
   XY=              0.0000   XZ=              0.0000   YZ=             -0.0000

 5272\CCSD(T)=-376.4885259\RMSD=2.192e-09\PG=D*H [C*(O1C1O1.O1C1O1)]\\@
 Normal termination of Gaussian 16 at Tue Feb 20 09:48:21 2024.
