 Gaussian 16, Revision A.03,
 Gaussian 16:  ES64L-G16RevA.03 25-Dec-2016

 --------------------
 #p ROCCSD(T)/cc-pVTZ
 --------------------

 -----------
 CO2_CO2_109
 -----------
 Symbolic Z-matrix:
 Charge = -1 Multiplicity = 2

                         Standard orientation:
 ---------------------------------------------------------------------
 Center     Atomic      Atomic             Coordinates (Angstroms)
 Number     Number       Type             X           Y           Z
 ---------------------------------------------------------------------
      1          8           0        1.233548   -3.035048    0.000000
      2          6           0        0.411183   -2.212683    0.000000
      3          8           0       -0.411183   -1.390318   -0.000000
      4          8           0       -0.411183    1.049683   -0.000000
      5          6           0       -0.411183    2.212683   -0.000000
      6          8           0       -0.411183    3.375683   -0.000000
 ---------------------------------------------------------------------

 SCF Done:  E(ROHF) =  -375.214559307     A.U. after   16 cycles
 E2 =    -0.1236314725D+01 EUMP2 =    -0.37645087403197D+03
 CCSD(T)
 CCSD(T)= -0.37648811645D+03

 The electronic state is 2-A".
 Alpha  occ. eigenvalues --  -20.40865 -20.40398 -20.39699 -20.39359 -11.18898
 Alpha  occ. eigenvalues --  -11.17532  -1.29537  -1.28437  -1.24041  -1.22891
 Alpha  occ. eigenvalues --   -0.58956  -0.56528  -0.52304  -0.50633  -0.49692
 Alpha  occ. eigenvalues --   -0.48950  -0.48103  -0.46617  -0.35174  -0.33581
 Alpha  occ. eigenvalues --   -0.31584  -0.30248   0.17476
 Alpha virt. eigenvalues --    0.30436   0.35021   0.36892   0.41879   0.42827
 Alpha virt. eigenvalues --    0.51152   0.54770   0.57157   0.58773   0.58875
 Alpha virt. eigenvalues --    0.62481   0.74935   0.76896   0.84022   0.86282

 Mulliken charges and spin densities:
               1          2
     1  O   -0.435376   0.060374
     2  C    0.251886   0.387452
     3  O   -0.333216   0.068572
     4  O   -0.294343   0.065634
     5  C    0.247820   0.363324
     6  O   -0.436771   0.054644
 Sum of Mulliken charges =  -1.00000   1.00000

 Dipole moment (field-independent basis, Debye):
    X=             -0.2867    Y=              0.2763    Z=             -0.0000  Tot=              0.3982
 Quadrupole moment (field-independent basis, Debye-Ang):
   XX=            -36.4831   YY=            -70.2470   ZZ=            -33.8517
   XY=              8.9737   XZ=             -0.0000   YZ=              0.0000

 874\MP4SDQ=-376.436227\CCSD=-376.4295572\CCSD(T)=-376.4881165\RMSD=6.8
 Normal termination of Gaussian 16 at Tue Feb 20 16:52:51 2024.
