 Gaussian 16, Revision A.03,
 Gaussian 16:  ES64L-G16RevA.03 25-Dec-2016

 --------------------
 #p ROCCSD(T)/cc-pVTZ
 --------------------

 ----------
 CO2_CO2_66
 ----------
 Symbolic Z-matrix:
 Charge = -1 Multiplicity = 2

                         Standard orientation:
 ---------------------------------------------------------------------
 Center     Atomic      Atomic             Coordinates (Angstroms)
 Number     Number       Type             X           Y           Z
 ---------------------------------------------------------------------
      1          8           0        0.000000    0.000000    3.266000
      2          6           0        0.000000    0.000000    2.103000
      3          8           0        0.000000    0.000000    0.940000
      4          8           0        0.000000    0.000000   -0.940000
      5          6           0        0.000000    0.000000   -2.103000
      6          8           0        0.000000    0.000000   -3.266000
 ---------------------------------------------------------------------

 SCF Done:  E(ROHF) =  -375.169247588     A.U. after   13 cycles
 E2 =    -0.1245123983D+01 EUMP2 =    -0.37641437157069D+03
 CCSD(T)
 CCSD(T)= -0.37645022657D+03

 Unable to determine electronic state:  an orbital has unidentified symmetry.
 Alpha  occ. eigenvalues --  -20.39175 -20.39175 -20.38185 -20.38185 -11.16475
 Alpha  occ. eigenvalues --  -11.16474  -1.28533  -1.27556  -1.23297  -1.21530
 Alpha  occ. eigenvalues --   -0.63840  -0.54667  -0.52775  -0.49831  -0.48513
 Alpha  occ. eigenvalues --   -0.47226  -0.45972  -0.39614  -0.35087  -0.31447
 Alpha  occ. eigenvalues --   -0.31217  -0.28512   0.16825
 Alpha virt. eigenvalues --    0.33217   0.35716   0.37589   0.42100   0.44371
 Alpha virt. eigenvalues --    0.50704   0.57242   0.57477   0.59095   0.59585
 Alpha virt. eigenvalues --    0.61932   0.74812   0.78410   0.87313   0.87354

 Mulliken charges and spin densities:
               1          2
     1  O   -0.470006   0.058261
     2  C    0.236319   0.372121
     3  O   -0.266313   0.069618
     4  O   -0.266313   0.069618
     5  C    0.236319   0.372121
     6  O   -0.470006   0.058261
 Sum of Mulliken charges =  -1.00000   1.00000

 Dipole moment (field-independent basis, Debye):
    X=             -0.0000    Y=             -0.0000    Z=             -0.0000  Tot=              0.0000
 Quadrupole moment (field-independent basis, Debye-Ang):
   XX=            -33.7962   YY=            -31.6431   ZZ=            -73.7836
   XY=              0.0000   XZ=              0.0000   YZ=              0.0000

 79\CCSD(T)=-376.4502266\RMSD=5.344e-09\PG=D*H [C*(O1C1O1.O1C1O1)]\\@
 Normal termination of Gaussian 16 at Tue Feb 20 09:28:55 2024.
