 Gaussian 16, Revision A.03,
 Gaussian 16:  ES64L-G16RevA.03 25-Dec-2016

 --------------------
 #p ROCCSD(T)/cc-pVTZ
 --------------------

 -----------
 CO2_CO2_106
 -----------
 Symbolic Z-matrix:
 Charge = -1 Multiplicity = 2

                         Standard orientation:
 ---------------------------------------------------------------------
 Center     Atomic      Atomic             Coordinates (Angstroms)
 Number     Number       Type             X           Y           Z
 ---------------------------------------------------------------------
      1          8           0        1.233548   -3.015048    0.000000
      2          6           0        0.411183   -2.192683    0.000000
      3          8           0       -0.411183   -1.370317    0.000000
      4          8           0       -0.411183    1.029682   -0.000000
      5          6           0       -0.411183    2.192682   -0.000000
      6          8           0       -0.411183    3.355683   -0.000000
 ---------------------------------------------------------------------

 SCF Done:  E(ROHF) =  -375.213555775     A.U. after   16 cycles
 E2 =    -0.1236646459D+01 EUMP2 =    -0.37645020223400D+03
 CCSD(T)
 CCSD(T)= -0.37648745319D+03

 The electronic state is 2-A".
 Alpha  occ. eigenvalues --  -20.40815 -20.40327 -20.39606 -20.39255 -11.18830
 Alpha  occ. eigenvalues --  -11.17416  -1.29489  -1.28349  -1.23995  -1.22793
 Alpha  occ. eigenvalues --   -0.59044  -0.56417  -0.52335  -0.50585  -0.49603
 Alpha  occ. eigenvalues --   -0.48784  -0.48031  -0.46443  -0.35145  -0.33455
 Alpha  occ. eigenvalues --   -0.31539  -0.30121   0.17452
 Alpha virt. eigenvalues --    0.30595   0.35044   0.36980   0.41924   0.42897
 Alpha virt. eigenvalues --    0.51224   0.54825   0.57154   0.58780   0.58967
 Alpha virt. eigenvalues --    0.62663   0.74942   0.76990   0.84120   0.86317

 Mulliken charges and spin densities:
               1          2
     1  O   -0.436539   0.060497
     2  C    0.251590   0.387777
     3  O   -0.332575   0.068812
     4  O   -0.291577   0.065755
     5  C    0.247159   0.362609
     6  O   -0.438060   0.054550
 Sum of Mulliken charges =  -1.00000   1.00000

 Dipole moment (field-independent basis, Debye):
    X=             -0.2955    Y=              0.2884    Z=             -0.0000  Tot=              0.4129
 Quadrupole moment (field-independent basis, Debye-Ang):
   XX=            -36.4924   YY=            -69.8854   ZZ=            -33.8509
   XY=              8.9514   XZ=             -0.0000   YZ=              0.0000

 02022\MP4SDQ=-376.4355201\CCSD=-376.4288236\CCSD(T)=-376.4874532\RMSD=
 Normal termination of Gaussian 16 at Tue Feb 20 16:22:13 2024.
