 Gaussian 16, Revision A.03,
 Gaussian 16:  ES64L-G16RevA.03 25-Dec-2016

 --------------------
 #p ROCCSD(T)/cc-pVTZ
 --------------------

 -----------
 CO2_CO2_160
 -----------
 Symbolic Z-matrix:
 Charge = -1 Multiplicity = 2

                         Standard orientation:
 ---------------------------------------------------------------------
 Center     Atomic      Atomic             Coordinates (Angstroms)
 Number     Number       Type             X           Y           Z
 ---------------------------------------------------------------------
      1          8           0        1.233548   -3.375048    0.000000
      2          6           0        0.411183   -2.552683    0.000000
      3          8           0       -0.411183   -1.730317    0.000000
      4          8           0       -0.411183    1.389682   -0.000000
      5          6           0       -0.411183    2.552682   -0.000000
      6          8           0       -0.411183    3.715683   -0.000000
 ---------------------------------------------------------------------

 SCF Done:  E(ROHF) =  -375.219777111     A.U. after   15 cycles
 E2 =    -0.1233389519D+01 EUMP2 =    -0.37645316662994D+03
 CCSD(T)
 CCSD(T)= -0.37648942796D+03

 The electronic state is 2-A".
 Alpha  occ. eigenvalues --  -20.41621 -20.41304 -20.40893 -20.40627 -11.19827
 Alpha  occ. eigenvalues --  -11.18980  -1.30307  -1.29622  -1.24828  -1.24145
 Alpha  occ. eigenvalues --   -0.58820  -0.58018  -0.52257  -0.51422  -0.51216
 Alpha  occ. eigenvalues --   -0.50864  -0.48927  -0.48200  -0.35817  -0.35107
 Alpha  occ. eigenvalues --   -0.32343  -0.31668   0.17672
 Alpha virt. eigenvalues --    0.28314   0.34559   0.35689   0.41149   0.41823
 Alpha virt. eigenvalues --    0.49600   0.53809   0.56982   0.57681   0.58572
 Alpha virt. eigenvalues --    0.60100   0.74986   0.75772   0.81143   0.84487

 Mulliken charges and spin densities:
               1          2
     1  O   -0.419909   0.059319
     2  C    0.259441   0.385308
     3  O   -0.349249   0.065286
     4  O   -0.332617   0.063713
     5  C    0.260470   0.370451
     6  O   -0.418135   0.055923
 Sum of Mulliken charges =  -1.00000   1.00000

 Dipole moment (field-independent basis, Debye):
    X=             -0.1880    Y=              0.1700    Z=             -0.0000  Tot=              0.2535
 Quadrupole moment (field-independent basis, Debye-Ang):
   XX=            -36.3734   YY=            -77.3030   ZZ=            -33.8525
   XY=              9.4353   XZ=             -0.0000   YZ=              0.0000

 31666\MP4SDQ=-376.4385004\CCSD=-376.433028\CCSD(T)=-376.489428\RMSD=9.
 Normal termination of Gaussian 16 at Tue Feb 20 10:38:19 2024.
