 Gaussian 16, Revision A.03,
 Gaussian 16:  ES64L-G16RevA.03 25-Dec-2016

 --------------------
 #p ROCCSD(T)/cc-pVTZ
 --------------------

 ----------
 CO2_CO2_37
 ----------
 Symbolic Z-matrix:
 Charge = -1 Multiplicity = 2

                         Standard orientation:
 ---------------------------------------------------------------------
 Center     Atomic      Atomic             Coordinates (Angstroms)
 Number     Number       Type             X           Y           Z
 ---------------------------------------------------------------------
      1          8           0        1.233548   -2.555048   -0.000000
      2          6           0        0.411183   -1.732682   -0.000000
      3          8           0       -0.411183   -0.910317   -0.000000
      4          8           0       -0.411183    0.569683    0.000000
      5          6           0       -0.411183    1.732682    0.000000
      6          8           0       -0.411183    2.895682    0.000000
 ---------------------------------------------------------------------

 SCF Done:  E(ROHF) =  -374.978487975     A.U. after   20 cycles
 E2 =    -0.1274055145D+01 EUMP2 =    -0.37625254311967D+03
 CCSD(T)
 CCSD(T)= -0.37628646318D+03

 The electronic state is 2-A".
 Alpha  occ. eigenvalues --  -20.40899 -20.39528 -20.35225 -20.34325 -11.17992
 Alpha  occ. eigenvalues --  -11.10708  -1.32512  -1.27172  -1.22692  -1.18473
 Alpha  occ. eigenvalues --   -0.73474  -0.55252  -0.51773  -0.50775  -0.49311
 Alpha  occ. eigenvalues --   -0.46293  -0.44283  -0.36749  -0.34989  -0.30302
 Alpha  occ. eigenvalues --   -0.28223  -0.16497   0.15323
 Alpha virt. eigenvalues --    0.34914   0.36309   0.39749   0.41429   0.45712
 Alpha virt. eigenvalues --    0.52876   0.56590   0.56716   0.58468   0.62375
 Alpha virt. eigenvalues --    0.68356   0.75767   0.81088   0.86394   0.89988

 Mulliken charges and spin densities:
               1          2
     1  O   -0.495586   0.080537
     2  C    0.142823   0.490118
     3  O   -0.273791   0.056660
     4  O   -0.183242   0.045181
     5  C    0.269458   0.284134
     6  O   -0.459663   0.043371
 Sum of Mulliken charges =  -1.00000   1.00000

 Dipole moment (field-independent basis, Debye):
    X=             -1.0311    Y=              2.0289    Z=              0.0000  Tot=              2.2759
 Quadrupole moment (field-independent basis, Debye-Ang):
   XX=            -37.0424   YY=            -64.3830   ZZ=            -33.7847
   XY=              8.9908   XZ=             -0.0000   YZ=             -0.0000

 31\MP4SDQ=-376.2300643\CCSD=-376.2218946\CCSD(T)=-376.2864632\RMSD=5.2
 Normal termination of Gaussian 16 at Mon Feb 19 17:30:44 2024.
