 Gaussian 16, Revision A.03,
 Gaussian 16:  ES64L-G16RevA.03 25-Dec-2016

 --------------------
 #p ROCCSD(T)/cc-pVTZ
 --------------------

 ----------
 CO2_CO2_10
 ----------
 Symbolic Z-matrix:
 Charge = -1 Multiplicity = 2

                         Standard orientation:
 ---------------------------------------------------------------------
 Center     Atomic      Atomic             Coordinates (Angstroms)
 Number     Number       Type             X           Y           Z
 ---------------------------------------------------------------------
      1          8           0        1.233548   -2.375048    0.000000
      2          6           0        0.411183   -1.552683    0.000000
      3          8           0       -0.411183   -0.730318   -0.000000
      4          8           0       -0.411183    0.389683   -0.000000
      5          6           0       -0.411183    1.552683   -0.000000
      6          8           0       -0.411183    2.715682   -0.000000
 ---------------------------------------------------------------------

 SCF Done:  E(ROHF) =  -374.586858732     A.U. after   21 cycles
 E2 =    -0.1235849188D+01 EUMP2 =    -0.37582270791918D+03
 CCSD(T)
 CCSD(T)= -0.37588372482D+03

 The electronic state is 2-A".
 Alpha  occ. eigenvalues --  -20.53695 -20.48869 -20.38455 -20.30118 -11.17811
 Alpha  occ. eigenvalues --  -11.05572  -1.61493  -1.27148  -1.22350  -1.16048
 Alpha  occ. eigenvalues --   -0.94587  -0.70132  -0.68020  -0.53690  -0.49139
 Alpha  occ. eigenvalues --   -0.46214  -0.44290  -0.37914  -0.35646  -0.29839
 Alpha  occ. eigenvalues --   -0.27069   0.00947   0.04849
 Alpha virt. eigenvalues --    0.33539   0.36616   0.40484   0.45020   0.49810
 Alpha virt. eigenvalues --    0.54067   0.54343   0.57227   0.58608   0.66243
 Alpha virt. eigenvalues --    0.70586   0.77726   0.84295   0.87823   0.90710

 Mulliken charges and spin densities:
               1          2
     1  O   -0.527493   0.007207
     2  C   -0.186457   0.019351
     3  O   -0.026084   0.013000
     4  O    0.231795   0.064359
     5  C   -0.035826   0.754005
     6  O   -0.455935   0.142078
 Sum of Mulliken charges =  -1.00000   1.00000

 Dipole moment (field-independent basis, Debye):
    X=             -2.4406    Y=              1.9526    Z=             -0.0000  Tot=              3.1256
 Quadrupole moment (field-independent basis, Debye-Ang):
   XX=            -38.6195   YY=            -69.4288   ZZ=            -32.8916
   XY=              9.5360   XZ=             -0.0000   YZ=              0.0000

 \MP4SDQ=-375.821154\CCSD=-375.8193304\CCSD(T)=-375.8837248\RMSD=7.680e
 Normal termination of Gaussian 16 at Mon Feb 19 13:08:08 2024.
