 Gaussian 16, Revision A.03,
 Gaussian 16:  ES64L-G16RevA.03 25-Dec-2016

 --------------------
 #p ROCCSD(T)/cc-pVTZ
 --------------------

 ----------
 CO2_CO2_62
 ----------
 Symbolic Z-matrix:
 Charge = -1 Multiplicity = 2

                         Standard orientation:
 ---------------------------------------------------------------------
 Center     Atomic      Atomic             Coordinates (Angstroms)
 Number     Number       Type             X           Y           Z
 ---------------------------------------------------------------------
      1          8           0       -1.744500   -1.481500    0.000000
      2          6           0       -0.581500   -1.481500    0.000000
      3          8           0        0.581500   -1.481500    0.000000
      4          8           0        0.581500    0.318500    0.000000
      5          6           0        0.581500    1.481500    0.000000
      6          8           0        0.581500    2.644500    0.000000
 ---------------------------------------------------------------------

 SCF Done:  E(ROHF) =  -375.165882360     A.U. after   38 cycles
 E2 =    -0.1247479888D+01 EUMP2 =    -0.37641336224808D+03
 CCSD(T)
 CCSD(T)= -0.37645307323D+03

 The electronic state is 2-A'.
 Alpha  occ. eigenvalues --  -20.45753 -20.43295 -20.37208 -20.36214 -11.26076
 Alpha  occ. eigenvalues --  -11.16612  -1.34271  -1.29413  -1.25960  -1.21349
 Alpha  occ. eigenvalues --   -0.63563  -0.60989  -0.55430  -0.52503  -0.51887
 Alpha  occ. eigenvalues --   -0.46478  -0.45106  -0.44888  -0.35382  -0.30091
 Alpha  occ. eigenvalues --   -0.29183  -0.27936   0.12879
 Alpha virt. eigenvalues --    0.35335   0.38528   0.39479   0.41990   0.43844
 Alpha virt. eigenvalues --    0.50180   0.55287   0.55655   0.59452   0.63792
 Alpha virt. eigenvalues --    0.65523   0.73890   0.78756   0.82593   0.88380

 Mulliken charges and spin densities:
               1          2
     1  O   -0.315262  -0.033075
     2  C    0.296766   0.233633
     3  O   -0.202111  -0.035573
     4  O   -0.053046  -0.189765
     5  C   -0.497905   1.173352
     6  O   -0.228441  -0.148571
 Sum of Mulliken charges =  -1.00000   1.00000

 Dipole moment (field-independent basis, Debye):
    X=             -2.2821    Y=             -4.3544    Z=              0.0000  Tot=              4.9161
 Quadrupole moment (field-independent basis, Debye-Ang):
   XX=            -44.1935   YY=            -52.9723   ZZ=            -34.3742
   XY=             -6.6939   XZ=              0.0000   YZ=              0.0000

 =-376.3910331\CCSD(T)=-376.4530732\RMSD=1.467e-09\PG=CS [SG(C2O4)]\\@
 Normal termination of Gaussian 16 at Mon Feb 19 21:22:04 2024.
