 Gaussian 16, Revision A.03,
 Gaussian 16:  ES64L-G16RevA.03 25-Dec-2016

 --------------------
 #p ROCCSD(T)/cc-pVTZ
 --------------------

 -----------
 CO2_CO2_213
 -----------
 Symbolic Z-matrix:
 Charge = -1 Multiplicity = 2

                         Standard orientation:
 ---------------------------------------------------------------------
 Center     Atomic      Atomic             Coordinates (Angstroms)
 Number     Number       Type             X           Y           Z
 ---------------------------------------------------------------------
      1          8           0        0.000000    0.000000    4.246000
      2          6           0        0.000000    0.000000    3.083000
      3          8           0        0.000000    0.000000    1.920000
      4          8           0        0.000000    0.000000   -1.920000
      5          6           0        0.000000    0.000000   -3.083000
      6          8           0        0.000000    0.000000   -4.246000
 ---------------------------------------------------------------------

 SCF Done:  E(ROHF) =  -375.219845554     A.U. after   12 cycles
 E2 =    -0.1232766211D+01 EUMP2 =    -0.37645261176571D+03
 CCSD(T)
 CCSD(T)= -0.37648862645D+03

 Unable to determine electronic state:  an orbital has unidentified symmetry.
 Alpha  occ. eigenvalues --  -20.42081 -20.42081 -20.41822 -20.41821 -11.20304
 Alpha  occ. eigenvalues --  -11.20304  -1.30813  -1.30808  -1.25357  -1.25347
 Alpha  occ. eigenvalues --   -0.59330  -0.59161  -0.52749  -0.52504  -0.52006
 Alpha  occ. eigenvalues --   -0.51963  -0.49439  -0.49425  -0.36475  -0.36201
 Alpha  occ. eigenvalues --   -0.32901  -0.32864   0.17744
 Alpha virt. eigenvalues --    0.26586   0.34044   0.34588   0.40615   0.40680
 Alpha virt. eigenvalues --    0.48468   0.52407   0.56569   0.56633   0.58258
 Alpha virt. eigenvalues --    0.58332   0.74576   0.74666   0.78770   0.85586

 Mulliken charges and spin densities:
               1          2
     1  O   -0.409351   0.057896
     2  C    0.263525   0.378330
     3  O   -0.354173   0.063773
     4  O   -0.354173   0.063773
     5  C    0.263525   0.378330
     6  O   -0.409351   0.057896
 Sum of Mulliken charges =  -1.00000   1.00000

 Dipole moment (field-independent basis, Debye):
    X=             -0.0000    Y=             -0.0000    Z=             -0.0000  Tot=              0.0000
 Quadrupole moment (field-independent basis, Debye-Ang):
   XX=            -31.6414   YY=            -33.8522   ZZ=            -95.4415
   XY=              0.0000   XZ=              0.0000   YZ=             -0.0000

 5765\CCSD(T)=-376.4886264\RMSD=2.260e-09\PG=D*H [C*(O1C1O1.O1C1O1)]\\@
 Normal termination of Gaussian 16 at Tue Feb 20 18:29:17 2024.
