 Gaussian 16, Revision A.03,
 Gaussian 16:  ES64L-G16RevA.03 25-Dec-2016

 --------------------
 #p ROCCSD(T)/cc-pVTZ
 --------------------

 -----------
 CO2_CO2_195
 -----------
 Symbolic Z-matrix:
 Charge = -1 Multiplicity = 2

                         Standard orientation:
 ---------------------------------------------------------------------
 Center     Atomic      Atomic             Coordinates (Angstroms)
 Number     Number       Type             X           Y           Z
 ---------------------------------------------------------------------
      1          8           0        0.000000    0.000000    4.126000
      2          6           0        0.000000    0.000000    2.963000
      3          8           0        0.000000    0.000000    1.800000
      4          8           0        0.000000    0.000000   -1.800000
      5          6           0        0.000000    0.000000   -2.963000
      6          8           0        0.000000    0.000000   -4.126000
 ---------------------------------------------------------------------

 SCF Done:  E(ROHF) =  -375.219660804     A.U. after   12 cycles
 E2 =    -0.1232988811D+01 EUMP2 =    -0.37645264961439D+03
 CCSD(T)
 CCSD(T)= -0.37648881830D+03

 Unable to determine electronic state:  an orbital has unidentified symmetry.
 Alpha  occ. eigenvalues --  -20.41870 -20.41870 -20.41599 -20.41599 -11.20071
 Alpha  occ. eigenvalues --  -11.20071  -1.30597  -1.30588  -1.25137  -1.25118
 Alpha  occ. eigenvalues --   -0.59152  -0.58884  -0.52580  -0.52173  -0.51793
 Alpha  occ. eigenvalues --   -0.51736  -0.49227  -0.49203  -0.36274  -0.35937
 Alpha  occ. eigenvalues --   -0.32689  -0.32625   0.17751
 Alpha virt. eigenvalues --    0.27021   0.34233   0.34802   0.40798   0.40912
 Alpha virt. eigenvalues --    0.48586   0.52888   0.56737   0.56841   0.58426
 Alpha virt. eigenvalues --    0.58555   0.74699   0.75001   0.77731   0.85765

 Mulliken charges and spin densities:
               1          2
     1  O   -0.412202   0.057720
     2  C    0.261763   0.378290
     3  O   -0.349561   0.063990
     4  O   -0.349561   0.063990
     5  C    0.261763   0.378290
     6  O   -0.412202   0.057720
 Sum of Mulliken charges =  -1.00000   1.00000

 Dipole moment (field-independent basis, Debye):
    X=             -0.0000    Y=              0.0000    Z=              0.0000  Tot=              0.0000
 Quadrupole moment (field-independent basis, Debye-Ang):
   XX=            -33.8580   YY=            -31.6449   ZZ=            -92.1125
   XY=              0.0000   XZ=              0.0000   YZ=             -0.0000

 33\CCSD(T)=-376.4888183\RMSD=2.345e-09\PG=D*H [C*(O1C1O1.O1C1O1)]\\@
 Normal termination of Gaussian 16 at Tue Feb 20 16:06:25 2024.
