 Gaussian 16, Revision A.03,
 Gaussian 16:  ES64L-G16RevA.03 25-Dec-2016

 --------------------
 #p ROCCSD(T)/cc-pVTZ
 --------------------

 ----------
 CO2_CO2_27
 ----------
 Symbolic Z-matrix:
 Charge = -1 Multiplicity = 2

                         Standard orientation:
 ---------------------------------------------------------------------
 Center     Atomic      Atomic             Coordinates (Angstroms)
 Number     Number       Type             X           Y           Z
 ---------------------------------------------------------------------
      1          8           0        0.000000    0.000000    3.006000
      2          6           0        0.000000    0.000000    1.843000
      3          8           0        0.000000    0.000000    0.680000
      4          8           0        0.000000    0.000000   -0.680000
      5          6           0        0.000000    0.000000   -1.843000
      6          8           0        0.000000    0.000000   -3.006000
 ---------------------------------------------------------------------

 SCF Done:  E(ROHF) =  -374.846406166     A.U. after   13 cycles
 E2 =    -0.1287896181D+01 EUMP2 =    -0.37613430234621D+03
 CCSD(T)
 CCSD(T)= -0.37616335555D+03

 Unable to determine electronic state:  an orbital has unidentified symmetry.
 Alpha  occ. eigenvalues --  -20.37226 -20.37226 -20.36392 -20.36378 -11.12932
 Alpha  occ. eigenvalues --  -11.12932  -1.34111  -1.25311  -1.23460  -1.18402
 Alpha  occ. eigenvalues --   -0.79590  -0.52536  -0.51881  -0.51735  -0.49422
 Alpha  occ. eigenvalues --   -0.46113  -0.43347  -0.37236  -0.33597  -0.26860
 Alpha  occ. eigenvalues --   -0.24433  -0.14049   0.14777
 Alpha virt. eigenvalues --    0.35866   0.37889   0.39788   0.41123   0.46909
 Alpha virt. eigenvalues --    0.49762   0.57595   0.58642   0.59468   0.61488
 Alpha virt. eigenvalues --    0.64422   0.74438   0.82894   0.86457   0.91698

 Mulliken charges and spin densities:
               1          2
     1  O   -0.491962   0.062358
     2  C    0.194916   0.387869
     3  O   -0.202954   0.049773
     4  O   -0.202954   0.049773
     5  C    0.194916   0.387869
     6  O   -0.491962   0.062358
 Sum of Mulliken charges =  -1.00000   1.00000

 Dipole moment (field-independent basis, Debye):
    X=             -0.0000    Y=              0.0000    Z=              0.0000  Tot=              0.0000
 Quadrupole moment (field-independent basis, Debye-Ang):
   XX=            -33.7489   YY=            -31.5381   ZZ=            -71.8780
   XY=             -0.0000   XZ=              0.0000   YZ=              0.0000

 015\CCSD(T)=-376.1633555\RMSD=8.731e-09\PG=D*H [C*(O1C1O1.O1C1O1)]\\@
 Normal termination of Gaussian 16 at Mon Feb 19 15:50:25 2024.
