 Gaussian 16, Revision A.03,
 Gaussian 16:  ES64L-G16RevA.03 25-Dec-2016

 --------------------
 #p ROCCSD(T)/cc-pVTZ
 --------------------

 ----------
 CO2_CO2_82
 ----------
 Symbolic Z-matrix:
 Charge = -1 Multiplicity = 2

                         Standard orientation:
 ---------------------------------------------------------------------
 Center     Atomic      Atomic             Coordinates (Angstroms)
 Number     Number       Type             X           Y           Z
 ---------------------------------------------------------------------
      1          8           0        1.233548   -2.855048   -0.000000
      2          6           0        0.411183   -2.032682   -0.000000
      3          8           0       -0.411183   -1.210317   -0.000000
      4          8           0       -0.411183    0.869683    0.000000
      5          6           0       -0.411183    2.032682    0.000000
      6          8           0       -0.411183    3.195682    0.000000
 ---------------------------------------------------------------------

 SCF Done:  E(ROHF) =  -375.195823541     A.U. after   17 cycles
 E2 =    -0.1240856899D+01 EUMP2 =    -0.37643668043972D+03
 CCSD(T)
 CCSD(T)= -0.37647369649D+03

 The electronic state is 2-A".
 Alpha  occ. eigenvalues --  -20.40401 -20.39623 -20.38703 -20.38220 -11.18212
 Alpha  occ. eigenvalues --  -11.16272  -1.29152  -1.27539  -1.23701  -1.21848
 Alpha  occ. eigenvalues --   -0.60649  -0.55483  -0.52564  -0.50241  -0.48766
 Alpha  occ. eigenvalues --   -0.48035  -0.46959  -0.44015  -0.35039  -0.32208
 Alpha  occ. eigenvalues --   -0.31210  -0.28696   0.17155
 Alpha virt. eigenvalues --    0.32083   0.35232   0.37767   0.42247   0.43532
 Alpha virt. eigenvalues --    0.51902   0.55269   0.57085   0.58828   0.59812
 Alpha virt. eigenvalues --    0.64243   0.75153   0.77913   0.85385   0.86646

 Mulliken charges and spin densities:
               1          2
     1  O   -0.447888   0.062008
     2  C    0.246933   0.393183
     3  O   -0.326936   0.070074
     4  O   -0.269482   0.065936
     5  C    0.246350   0.355183
     6  O   -0.448978   0.053616
 Sum of Mulliken charges =  -1.00000   1.00000

 Dipole moment (field-independent basis, Debye):
    X=             -0.3910    Y=              0.4320    Z=              0.0000  Tot=              0.5827
 Quadrupole moment (field-independent basis, Debye-Ang):
   XX=            -36.5826   YY=            -67.2705   ZZ=            -33.8397
   XY=              8.8090   XZ=              0.0000   YZ=             -0.0000

 804\MP4SDQ=-376.4213308\CCSD=-376.4143897\CCSD(T)=-376.4736965\RMSD=2.
 Normal termination of Gaussian 16 at Tue Feb 20 12:18:19 2024.
