 Gaussian 16, Revision A.03,
 Gaussian 16:  ES64L-G16RevA.03 25-Dec-2016

 --------------------
 #p ROCCSD(T)/cc-pVTZ
 --------------------

 -----------
 CO2_CO2_113
 -----------
 Symbolic Z-matrix:
 Charge = -1 Multiplicity = 2

                         Standard orientation:
 ---------------------------------------------------------------------
 Center     Atomic      Atomic             Coordinates (Angstroms)
 Number     Number       Type             X           Y           Z
 ---------------------------------------------------------------------
      1          8           0       -1.744500   -1.821500    0.000000
      2          6           0       -0.581500   -1.821500    0.000000
      3          8           0        0.581500   -1.821500    0.000000
      4          8           0        0.581500    0.658500    0.000000
      5          6           0        0.581500    1.821500    0.000000
      6          8           0        0.581500    2.984500    0.000000
 ---------------------------------------------------------------------

 SCF Done:  E(ROHF) =  -375.253787581     A.U. after   39 cycles
 E2 =    -0.1237084106D+01 EUMP2 =    -0.37649087168695D+03
 CCSD(T)
 CCSD(T)= -0.37652964052D+03

 The electronic state is 2-A'.
 Alpha  occ. eigenvalues --  -20.48729 -20.47888 -20.38190 -20.38128 -11.29601
 Alpha  occ. eigenvalues --  -11.19051  -1.36493  -1.31204  -1.27444  -1.22593
 Alpha  occ. eigenvalues --   -0.63938  -0.58236  -0.57156  -0.55003  -0.53764
 Alpha  occ. eigenvalues --   -0.49225  -0.46117  -0.45623  -0.38002  -0.37566
 Alpha  occ. eigenvalues --   -0.29380  -0.28820   0.13952
 Alpha virt. eigenvalues --    0.32279   0.36155   0.37086   0.42315   0.43032
 Alpha virt. eigenvalues --    0.48500   0.53518   0.53981   0.58694   0.62311
 Alpha virt. eigenvalues --    0.63685   0.72529   0.76790   0.81063   0.84625

 Mulliken charges and spin densities:
               1          2
     1  O   -0.275657  -0.043707
     2  C    0.329976   0.227552
     3  O   -0.218147  -0.041324
     4  O   -0.015043  -0.250175
     5  C   -0.678489   1.322178
     6  O   -0.142639  -0.214524
 Sum of Mulliken charges =  -1.00000   1.00000

 Dipole moment (field-independent basis, Debye):
    X=             -2.3129    Y=             -5.9265    Z=              0.0000  Tot=              6.3618
 Quadrupole moment (field-independent basis, Debye-Ang):
   XX=            -43.6222   YY=            -56.8077   ZZ=            -35.0757
   XY=             -7.0613   XZ=              0.0000   YZ=              0.0000

 SD=-376.4688805\CCSD(T)=-376.5296405\RMSD=5.247e-09\PG=CS [SG(C2O4)]\\
 Normal termination of Gaussian 16 at Tue Feb 20 17:37:52 2024.
