 Gaussian 16, Revision A.03,
 Gaussian 16:  ES64L-G16RevA.03 25-Dec-2016

 --------------------
 #p ROCCSD(T)/cc-pVTZ
 --------------------

 ----------
 CO2_CO2_94
 ----------
 Symbolic Z-matrix:
 Charge = -1 Multiplicity = 2

                         Standard orientation:
 ---------------------------------------------------------------------
 Center     Atomic      Atomic             Coordinates (Angstroms)
 Number     Number       Type             X           Y           Z
 ---------------------------------------------------------------------
      1          8           0        1.233548   -2.935048    0.000000
      2          6           0        0.411183   -2.112683    0.000000
      3          8           0       -0.411183   -1.290317    0.000000
      4          8           0       -0.411183    0.949682   -0.000000
      5          6           0       -0.411183    2.112682   -0.000000
      6          8           0       -0.411183    3.275683   -0.000000
 ---------------------------------------------------------------------

 SCF Done:  E(ROHF) =  -375.207417706     A.U. after   17 cycles
 E2 =    -0.1238333955D+01 EUMP2 =    -0.37644575166086D+03
 CCSD(T)
 CCSD(T)= -0.37648296436D+03

 The electronic state is 2-A".
 Alpha  occ. eigenvalues --  -20.40609 -20.40007 -20.39195 -20.38788 -11.18538
 Alpha  occ. eigenvalues --  -11.16899  -1.29304  -1.27967  -1.23826  -1.22363
 Alpha  occ. eigenvalues --   -0.59603  -0.55956  -0.52470  -0.50399  -0.49214
 Alpha  occ. eigenvalues --   -0.48267  -0.47595  -0.45504  -0.35057  -0.32890
 Alpha  occ. eigenvalues --   -0.31368  -0.29521   0.17329
 Alpha virt. eigenvalues --    0.31288   0.35137   0.37353   0.42099   0.43196
 Alpha virt. eigenvalues --    0.51541   0.55043   0.57128   0.58804   0.59363
 Alpha virt. eigenvalues --    0.63427   0.75012   0.77409   0.84653   0.86462

 Mulliken charges and spin densities:
               1          2
     1  O   -0.441673   0.061109
     2  C    0.250121   0.389681
     3  O   -0.330174   0.069655
     4  O   -0.280415   0.066090
     5  C    0.245495   0.359331
     6  O   -0.443353   0.054133
 Sum of Mulliken charges =  -1.00000   1.00000

 Dipole moment (field-independent basis, Debye):
    X=             -0.3367    Y=              0.3475    Z=             -0.0000  Tot=              0.4839
 Quadrupole moment (field-independent basis, Debye-Ang):
   XX=            -36.5336   YY=            -68.5125   ZZ=            -33.8464
   XY=              8.8708   XZ=             -0.0000   YZ=              0.0000

 17\MP4SDQ=-376.4308399\CCSD=-376.4240342\CCSD(T)=-376.4829644\RMSD=2.2
 Normal termination of Gaussian 16 at Tue Feb 20 14:21:22 2024.
