 Gaussian 16, Revision A.03,
 Gaussian 16:  ES64L-G16RevA.03 25-Dec-2016

 --------------------
 #p ROCCSD(T)/cc-pVTZ
 --------------------

 ----------
 CO2_CO2_96
 ----------
 Symbolic Z-matrix:
 Charge = -1 Multiplicity = 2

                         Standard orientation:
 ---------------------------------------------------------------------
 Center     Atomic      Atomic             Coordinates (Angstroms)
 Number     Number       Type             X           Y           Z
 ---------------------------------------------------------------------
      1          8           0        0.000000    0.000000    3.466000
      2          6           0        0.000000    0.000000    2.303000
      3          8           0        0.000000    0.000000    1.140000
      4          8           0        0.000000    0.000000   -1.140000
      5          6           0        0.000000    0.000000   -2.303000
      6          8           0        0.000000    0.000000   -3.466000
 ---------------------------------------------------------------------

 SCF Done:  E(ROHF) =  -375.210300977     A.U. after   12 cycles
 E2 =    -0.1237944321D+01 EUMP2 =    -0.37644824529815D+03
 CCSD(T)
 CCSD(T)= -0.37648502988D+03

 Unable to determine electronic state:  an orbital has unidentified symmetry.
 Alpha  occ. eigenvalues --  -20.40117 -20.40117 -20.39643 -20.39642 -11.17895
 Alpha  occ. eigenvalues --  -11.17894  -1.28976  -1.28677  -1.23578  -1.22986
 Alpha  occ. eigenvalues --   -0.59806  -0.56059  -0.52640  -0.50266  -0.49708
 Alpha  occ. eigenvalues --   -0.47681  -0.47205  -0.46525  -0.35060  -0.33179
 Alpha  occ. eigenvalues --   -0.31429  -0.30237   0.17376
 Alpha virt. eigenvalues --    0.30942   0.35403   0.36593   0.41897   0.43072
 Alpha virt. eigenvalues --    0.50612   0.56158   0.57451   0.58641   0.59057
 Alpha virt. eigenvalues --    0.60698   0.74711   0.76595   0.86554   0.86786

 Mulliken charges and spin densities:
               1          2
     1  O   -0.449110   0.057518
     2  C    0.236735   0.373282
     3  O   -0.287625   0.069200
     4  O   -0.287625   0.069200
     5  C    0.236735   0.373282
     6  O   -0.449110   0.057518
 Sum of Mulliken charges =  -1.00000   1.00000

 Dipole moment (field-independent basis, Debye):
    X=             -0.0000    Y=              0.0000    Z=              0.0000  Tot=              0.0000
 Quadrupole moment (field-independent basis, Debye-Ang):
   XX=            -33.8457   YY=            -31.6636   ZZ=            -76.9127
   XY=              0.0000   XZ=              0.0000   YZ=              0.0000

 \CCSD(T)=-376.4850299\RMSD=5.558e-09\PG=D*H [C*(O1C1O1.O1C1O1)]\\@
 Normal termination of Gaussian 16 at Tue Feb 20 14:38:57 2024.
