 Gaussian 16, Revision A.03,
 Gaussian 16:  ES64L-G16RevA.03 25-Dec-2016

 --------------------
 #p ROCCSD(T)/cc-pVTZ
 --------------------

 -----------
 CO2_CO2_175
 -----------
 Symbolic Z-matrix:
 Charge = -1 Multiplicity = 2

                         Standard orientation:
 ---------------------------------------------------------------------
 Center     Atomic      Atomic             Coordinates (Angstroms)
 Number     Number       Type             X           Y           Z
 ---------------------------------------------------------------------
      1          8           0        1.233548   -3.475048    0.000000
      2          6           0        0.411183   -2.652683    0.000000
      3          8           0       -0.411183   -1.830318    0.000000
      4          8           0       -0.411183    1.489683   -0.000000
      5          6           0       -0.411183    2.652683   -0.000000
      6          8           0       -0.411183    3.815683   -0.000000
 ---------------------------------------------------------------------

 SCF Done:  E(ROHF) =  -375.220039181     A.U. after   15 cycles
 E2 =    -0.1233012723D+01 EUMP2 =    -0.37645305190428D+03
 CCSD(T)
 CCSD(T)= -0.37648877810D+03

 The electronic state is 2-A".
 Alpha  occ. eigenvalues --  -20.41813 -20.41513 -20.41150 -20.40893 -11.20044
 Alpha  occ. eigenvalues --  -11.19279  -1.30508  -1.29884  -1.25037  -1.24416
 Alpha  occ. eigenvalues --   -0.58967  -0.58325  -0.52382  -0.51628  -0.51612
 Alpha  occ. eigenvalues --   -0.51122  -0.49127  -0.48476  -0.36012  -0.35411
 Alpha  occ. eigenvalues --   -0.32551  -0.31946   0.17683
 Alpha virt. eigenvalues --    0.27843   0.34389   0.35420   0.40960   0.41581
 Alpha virt. eigenvalues --    0.49037   0.53542   0.56864   0.57431   0.58470
 Alpha virt. eigenvalues --    0.59652   0.74920   0.75507   0.80049   0.84663

 Mulliken charges and spin densities:
               1          2
     1  O   -0.416483   0.059235
     2  C    0.261680   0.384997
     3  O   -0.354001   0.064806
     4  O   -0.339969   0.063431
     5  C    0.262995   0.371307
     6  O   -0.414221   0.056225
 Sum of Mulliken charges =  -1.00000   1.00000

 Dipole moment (field-independent basis, Debye):
    X=             -0.1701    Y=              0.1599    Z=             -0.0000  Tot=              0.2335
 Quadrupole moment (field-independent basis, Debye-Ang):
   XX=            -36.3537   YY=            -79.6562   ZZ=            -33.8499
   XY=              9.5901   XZ=             -0.0000   YZ=              0.0000

 519\MP4SDQ=-376.4382969\CCSD=-376.4337056\CCSD(T)=-376.4887781\RMSD=8.
 Normal termination of Gaussian 16 at Tue Feb 20 13:03:02 2024.
