 Gaussian 16, Revision A.03,
 Gaussian 16:  ES64L-G16RevA.03 25-Dec-2016

 --------------------
 #p ROCCSD(T)/cc-pVTZ
 --------------------

 ----------
 CO2_CO2_68
 ----------
 Symbolic Z-matrix:
 Charge = -1 Multiplicity = 2

                         Standard orientation:
 ---------------------------------------------------------------------
 Center     Atomic      Atomic             Coordinates (Angstroms)
 Number     Number       Type             X           Y           Z
 ---------------------------------------------------------------------
      1          8           0       -1.744500   -1.521500    0.000000
      2          6           0       -0.581500   -1.521500    0.000000
      3          8           0        0.581500   -1.521500    0.000000
      4          8           0        0.581500    0.358500    0.000000
      5          6           0        0.581500    1.521500    0.000000
      6          8           0        0.581500    2.684500    0.000000
 ---------------------------------------------------------------------

 SCF Done:  E(ROHF) =  -375.190742890     A.U. after   37 cycles
 E2 =    -0.1245608779D+01 EUMP2 =    -0.37643635166818D+03
 CCSD(T)
 CCSD(T)= -0.37647536962D+03

 The electronic state is 2-A'.
 Alpha  occ. eigenvalues --  -20.46201 -20.44018 -20.37684 -20.36822 -11.26658
 Alpha  occ. eigenvalues --  -11.17547  -1.34430  -1.29484  -1.26542  -1.21904
 Alpha  occ. eigenvalues --   -0.62809  -0.60996  -0.55677  -0.52786  -0.52275
 Alpha  occ. eigenvalues --   -0.46793  -0.45596  -0.45244  -0.35680  -0.31485
 Alpha  occ. eigenvalues --   -0.29648  -0.28355   0.13142
 Alpha virt. eigenvalues --    0.34938   0.38219   0.39183   0.41977   0.43483
 Alpha virt. eigenvalues --    0.49992   0.54947   0.55353   0.59258   0.63439
 Alpha virt. eigenvalues --    0.65327   0.73498   0.78395   0.82342   0.87650

 Mulliken charges and spin densities:
               1          2
     1  O   -0.303808  -0.039087
     2  C    0.294646   0.243870
     3  O   -0.206316  -0.038859
     4  O   -0.027454  -0.212711
     5  C   -0.557732   1.218793
     6  O   -0.199336  -0.172005
 Sum of Mulliken charges =  -1.00000   1.00000

 Dipole moment (field-independent basis, Debye):
    X=             -2.2210    Y=             -4.5339    Z=              0.0000  Tot=              5.0487
 Quadrupole moment (field-independent basis, Debye-Ang):
   XX=            -44.1177   YY=            -53.1922   ZZ=            -34.6541
   XY=             -6.6195   XZ=              0.0000   YZ=              0.0000

 D=-376.413547\CCSD(T)=-376.4753696\RMSD=4.285e-09\PG=CS [SG(C2O4)]\\@
 Normal termination of Gaussian 16 at Tue Feb 20 09:55:16 2024.
