 Gaussian 16, Revision A.03,
 Gaussian 16:  ES64L-G16RevA.03 25-Dec-2016

 --------------------
 #p ROCCSD(T)/cc-pVTZ
 --------------------

 ----------
 CO2_CO2_79
 ----------
 Symbolic Z-matrix:
 Charge = -1 Multiplicity = 2

                         Standard orientation:
 ---------------------------------------------------------------------
 Center     Atomic      Atomic             Coordinates (Angstroms)
 Number     Number       Type             X           Y           Z
 ---------------------------------------------------------------------
      1          8           0        1.233548   -2.835048    0.000000
      2          6           0        0.411183   -2.012683    0.000000
      3          8           0       -0.411183   -1.190317    0.000000
      4          8           0       -0.411183    0.849683   -0.000000
      5          6           0       -0.411183    2.012683   -0.000000
      6          8           0       -0.411183    3.175682   -0.000000
 ---------------------------------------------------------------------

 SCF Done:  E(ROHF) =  -375.191609224     A.U. after   17 cycles
 E2 =    -0.1241675460D+01 EUMP2 =    -0.37643328468392D+03
 CCSD(T)
 CCSD(T)= -0.37647021783D+03

 The electronic state is 2-A".
 Alpha  occ. eigenvalues --  -20.40350 -20.39517 -20.38563 -20.38060 -11.18126
 Alpha  occ. eigenvalues --  -11.16093  -1.29125  -1.27425  -1.23681  -1.21703
 Alpha  occ. eigenvalues --   -0.61015  -0.55367  -0.52569  -0.50210  -0.48643
 Alpha  occ. eigenvalues --   -0.48005  -0.46794  -0.43541  -0.35050  -0.32016
 Alpha  occ. eigenvalues --   -0.31174  -0.28437   0.17101
 Alpha virt. eigenvalues --    0.32300   0.35255   0.37877   0.42276   0.43624
 Alpha virt. eigenvalues --    0.51993   0.55330   0.57072   0.58834   0.59934
 Alpha virt. eigenvalues --    0.64456   0.75199   0.78056   0.85591   0.86697

 Mulliken charges and spin densities:
               1          2
     1  O   -0.449669   0.062302
     2  C    0.245619   0.394454
     3  O   -0.325770   0.070061
     4  O   -0.266754   0.065768
     5  C    0.247041   0.353954
     6  O   -0.450466   0.053461
 Sum of Mulliken charges =  -1.00000   1.00000

 Dipole moment (field-independent basis, Debye):
    X=             -0.4075    Y=              0.4590    Z=             -0.0000  Tot=              0.6138
 Quadrupole moment (field-independent basis, Debye-Ang):
   XX=            -36.5965   YY=            -66.9829   ZZ=            -33.8377
   XY=              8.7973   XZ=             -0.0000   YZ=              0.0000

 2847\MP4SDQ=-376.4177791\CCSD=-376.4107957\CCSD(T)=-376.4702178\RMSD=2
 Normal termination of Gaussian 16 at Tue Feb 20 11:47:09 2024.
