 Gaussian 16, Revision A.03,
 Gaussian 16:  ES64L-G16RevA.03 25-Dec-2016

 --------------------
 #p ROCCSD(T)/cc-pVTZ
 --------------------

 ----------
 CO2_CO2_77
 ----------
 Symbolic Z-matrix:
 Charge = -1 Multiplicity = 2

                         Standard orientation:
 ---------------------------------------------------------------------
 Center     Atomic      Atomic             Coordinates (Angstroms)
 Number     Number       Type             X           Y           Z
 ---------------------------------------------------------------------
      1          8           0       -1.744500   -1.581500    0.000000
      2          6           0       -0.581500   -1.581500    0.000000
      3          8           0        0.581500   -1.581500    0.000000
      4          8           0        0.581500    0.418500    0.000000
      5          6           0        0.581500    1.581500    0.000000
      6          8           0        0.581500    2.744500    0.000000
 ---------------------------------------------------------------------

 SCF Done:  E(ROHF) =  -375.216776339     A.U. after   38 cycles
 E2 =    -0.1243189807D+01 EUMP2 =    -0.37645996614569D+03
 CCSD(T)
 CCSD(T)= -0.37649843892D+03

 The electronic state is 2-A'.
 Alpha  occ. eigenvalues --  -20.46786 -20.44991 -20.38099 -20.37457 -11.27389
 Alpha  occ. eigenvalues --  -11.18406  -1.34773  -1.29657  -1.27117  -1.22395
 Alpha  occ. eigenvalues --   -0.62492  -0.60392  -0.56087  -0.53218  -0.52661
 Alpha  occ. eigenvalues --   -0.47397  -0.46039  -0.45563  -0.36135  -0.33507
 Alpha  occ. eigenvalues --   -0.29662  -0.28728   0.13415
 Alpha virt. eigenvalues --    0.34352   0.37787   0.38786   0.42001   0.43160
 Alpha virt. eigenvalues --    0.49706   0.54535   0.55002   0.59038   0.63049
 Alpha virt. eigenvalues --    0.65061   0.73064   0.77968   0.82032   0.86731

 Mulliken charges and spin densities:
               1          2
     1  O   -0.292100  -0.044412
     2  C    0.297313   0.250071
     3  O   -0.211083  -0.041617
     4  O   -0.005351  -0.234489
     5  C   -0.615964   1.263509
     6  O   -0.172815  -0.193063
 Sum of Mulliken charges =  -1.00000   1.00000

 Dipole moment (field-independent basis, Debye):
    X=             -2.1518    Y=             -4.7955    Z=              0.0000  Tot=              5.2562
 Quadrupole moment (field-independent basis, Debye-Ang):
   XX=            -43.9748   YY=            -53.6915   ZZ=            -34.9093
   XY=             -6.5553   XZ=              0.0000   YZ=              0.0000

 -376.4369105\CCSD(T)=-376.4984389\RMSD=3.182e-09\PG=CS [SG(C2O4)]\\@
 Normal termination of Gaussian 16 at Tue Feb 20 11:30:08 2024.
