 Gaussian 16, Revision A.03,
 Gaussian 16:  ES64L-G16RevA.03 25-Dec-2016

 --------------------
 #p ROCCSD(T)/cc-pVTZ
 --------------------

 -----------
 CO2_CO2_201
 -----------
 Symbolic Z-matrix:
 Charge = -1 Multiplicity = 2

                         Standard orientation:
 ---------------------------------------------------------------------
 Center     Atomic      Atomic             Coordinates (Angstroms)
 Number     Number       Type             X           Y           Z
 ---------------------------------------------------------------------
      1          8           0        0.000000    0.000000    4.166000
      2          6           0        0.000000    0.000000    3.003000
      3          8           0        0.000000    0.000000    1.840000
      4          8           0        0.000000    0.000000   -1.840000
      5          6           0        0.000000    0.000000   -3.003000
      6          8           0        0.000000    0.000000   -4.166000
 ---------------------------------------------------------------------

 SCF Done:  E(ROHF) =  -375.219720945     A.U. after   12 cycles
 E2 =    -0.1232906626D+01 EUMP2 =    -0.37645262757069D+03
 CCSD(T)
 CCSD(T)= -0.37648874293D+03

 Unable to determine electronic state:  an orbital has unidentified symmetry.
 Alpha  occ. eigenvalues --  -20.41943 -20.41943 -20.41675 -20.41675 -11.20152
 Alpha  occ. eigenvalues --  -11.20151  -1.30671  -1.30664  -1.25212  -1.25197
 Alpha  occ. eigenvalues --   -0.59211  -0.58981  -0.52635  -0.52291  -0.51866
 Alpha  occ. eigenvalues --   -0.51814  -0.49299  -0.49280  -0.36343  -0.36029
 Alpha  occ. eigenvalues --   -0.32761  -0.32708   0.17749
 Alpha virt. eigenvalues --    0.26871   0.34164   0.34730   0.40736   0.40831
 Alpha virt. eigenvalues --    0.48511   0.52734   0.56681   0.56769   0.58370
 Alpha virt. eigenvalues --    0.58478   0.74659   0.74885   0.78011   0.85719

 Mulliken charges and spin densities:
               1          2
     1  O   -0.411141   0.057778
     2  C    0.262397   0.378311
     3  O   -0.351255   0.063911
     4  O   -0.351255   0.063911
     5  C    0.262397   0.378311
     6  O   -0.411141   0.057778
 Sum of Mulliken charges =  -1.00000   1.00000

 Dipole moment (field-independent basis, Debye):
    X=             -0.0000    Y=             -0.0000    Z=              0.0000  Tot=              0.0000
 Quadrupole moment (field-independent basis, Debye-Ang):
   XX=            -33.8560   YY=            -31.6437   ZZ=            -93.2048
   XY=              0.0000   XZ=              0.0000   YZ=             -0.0000

 6512\CCSD(T)=-376.4887429\RMSD=2.314e-09\PG=D*H [C*(O1C1O1.O1C1O1)]\\@
 Normal termination of Gaussian 16 at Tue Feb 20 16:52:41 2024.
