 Gaussian 16, Revision A.03,
 Gaussian 16:  ES64L-G16RevA.03 25-Dec-2016

 --------------------
 #p ROCCSD(T)/cc-pVTZ
 --------------------

 ----------
 CO2_CO2_83
 ----------
 Symbolic Z-matrix:
 Charge = -1 Multiplicity = 2

                         Standard orientation:
 ---------------------------------------------------------------------
 Center     Atomic      Atomic             Coordinates (Angstroms)
 Number     Number       Type             X           Y           Z
 ---------------------------------------------------------------------
      1          8           0       -1.744500   -1.621500    0.000000
      2          6           0       -0.581500   -1.621500    0.000000
      3          8           0        0.581500   -1.621500    0.000000
      4          8           0        0.581500    0.458500    0.000000
      5          6           0        0.581500    1.621500    0.000000
      6          8           0        0.581500    2.784500    0.000000
 ---------------------------------------------------------------------

 SCF Done:  E(ROHF) =  -375.228677693     A.U. after   35 cycles
 E2 =    -0.1241783928D+01 EUMP2 =    -0.37647046162164D+03
 CCSD(T)
 CCSD(T)= -0.37650881956D+03

 The electronic state is 2-A'.
 Alpha  occ. eigenvalues --  -20.47143 -20.45573 -20.38231 -20.37729 -11.27817
 Alpha  occ. eigenvalues --  -11.18723  -1.35039  -1.29839  -1.27334  -1.22559
 Alpha  occ. eigenvalues --   -0.62633  -0.59778  -0.56374  -0.53513  -0.52842
 Alpha  occ. eigenvalues --   -0.47846  -0.46165  -0.45666  -0.36447  -0.34528
 Alpha  occ. eigenvalues --   -0.29634  -0.28851   0.13541
 Alpha virt. eigenvalues --    0.33976   0.37507   0.38522   0.42037   0.43051
 Alpha virt. eigenvalues --    0.49509   0.54318   0.54810   0.58934   0.62858
 Alpha virt. eigenvalues --    0.64880   0.72871   0.77734   0.81859   0.86246

 Mulliken charges and spin densities:
               1          2
     1  O   -0.287012  -0.046024
     2  C    0.301700   0.249787
     3  O   -0.213378  -0.042482
     4  O    0.000982  -0.242889
     5  C   -0.639494   1.282494
     6  O   -0.162798  -0.200885
 Sum of Mulliken charges =  -1.00000   1.00000

 Dipole moment (field-independent basis, Debye):
    X=             -2.1378    Y=             -4.9737    Z=              0.0000  Tot=              5.4137
 Quadrupole moment (field-independent basis, Debye-Ang):
   XX=            -43.8887   YY=            -54.1082   ZZ=            -35.0015
   XY=             -6.5651   XZ=              0.0000   YZ=              0.0000

 D=-376.4474654\CCSD(T)=-376.5088196\RMSD=4.437e-09\PG=CS [SG(C2O4)]\\@
 Normal termination of Gaussian 16 at Tue Feb 20 12:31:44 2024.
