 Gaussian 16, Revision A.03,
 Gaussian 16:  ES64L-G16RevA.03 25-Dec-2016

 --------------------
 #p ROCCSD(T)/cc-pVTZ
 --------------------

 ----------
 CO2_CO2_57
 ----------
 Symbolic Z-matrix:
 Charge = -1 Multiplicity = 2

                         Standard orientation:
 ---------------------------------------------------------------------
 Center     Atomic      Atomic             Coordinates (Angstroms)
 Number     Number       Type             X           Y           Z
 ---------------------------------------------------------------------
      1          8           0        0.000000    0.000000    3.206000
      2          6           0        0.000000    0.000000    2.043000
      3          8           0        0.000000    0.000000    0.880000
      4          8           0        0.000000    0.000000   -0.880000
      5          6           0        0.000000    0.000000   -2.043000
      6          8           0        0.000000    0.000000   -3.206000
 ---------------------------------------------------------------------

 SCF Done:  E(ROHF) =  -375.138020903     A.U. after   13 cycles
 E2 =    -0.1249370735D+01 EUMP2 =    -0.37638739163755D+03
 CCSD(T)
 CCSD(T)= -0.37642254748D+03

 Unable to determine electronic state:  an orbital has unidentified symmetry.
 Alpha  occ. eigenvalues --  -20.38821 -20.38821 -20.37580 -20.37579 -11.15883
 Alpha  occ. eigenvalues --  -11.15882  -1.28598  -1.27125  -1.23341  -1.20920
 Alpha  occ. eigenvalues --   -0.66183  -0.54215  -0.52673  -0.49805  -0.48054
 Alpha  occ. eigenvalues --   -0.47197  -0.45485  -0.36059  -0.35278  -0.31638
 Alpha  occ. eigenvalues --   -0.30404  -0.27778   0.16546
 Alpha virt. eigenvalues --    0.34103   0.35816   0.37953   0.42074   0.44877
 Alpha virt. eigenvalues --    0.50612   0.57484   0.57551   0.59129   0.59935
 Alpha virt. eigenvalues --    0.62398   0.74885   0.79154   0.87296   0.87809

 Mulliken charges and spin densities:
               1          2
     1  O   -0.477763   0.058704
     2  C    0.235969   0.373041
     3  O   -0.258206   0.068255
     4  O   -0.258206   0.068255
     5  C    0.235969   0.373041
     6  O   -0.477763   0.058704
 Sum of Mulliken charges =  -1.00000   1.00000

 Dipole moment (field-independent basis, Debye):
    X=             -0.0000    Y=              0.0000    Z=             -0.0000  Tot=              0.0000
 Quadrupole moment (field-independent basis, Debye-Ang):
   XX=            -33.7760   YY=            -31.6267   ZZ=            -73.0552
   XY=              0.0000   XZ=              0.0000   YZ=              0.0000

 839\CCSD(T)=-376.4225475\RMSD=5.701e-09\PG=D*H [C*(O1C1O1.O1C1O1)]\\@
 Normal termination of Gaussian 16 at Mon Feb 19 20:29:13 2024.
