 Gaussian 16, Revision A.03,
 Gaussian 16:  ES64L-G16RevA.03 25-Dec-2016

 --------------------
 #p ROCCSD(T)/cc-pVTZ
 --------------------

 -----------
 CO2_CO2_130
 -----------
 Symbolic Z-matrix:
 Charge = -1 Multiplicity = 2

                         Standard orientation:
 ---------------------------------------------------------------------
 Center     Atomic      Atomic             Coordinates (Angstroms)
 Number     Number       Type             X           Y           Z
 ---------------------------------------------------------------------
      1          8           0        1.233548   -3.175048   -0.000000
      2          6           0        0.411183   -2.352683   -0.000000
      3          8           0       -0.411183   -1.530317    0.000000
      4          8           0       -0.411183    1.189682    0.000000
      5          6           0       -0.411183    2.352683    0.000000
      6          8           0       -0.411183    3.515683    0.000000
 ---------------------------------------------------------------------

 SCF Done:  E(ROHF) =  -375.218354458     A.U. after   16 cycles
 E2 =    -0.1234647798D+01 EUMP2 =    -0.37645300225595D+03
 CCSD(T)
 CCSD(T)= -0.37649003507D+03

 The electronic state is 2-A".
 Alpha  occ. eigenvalues --  -20.41197 -20.40824 -20.40266 -20.39973 -11.19326
 Alpha  occ. eigenvalues --  -11.18231  -1.29868  -1.28991  -1.24374  -1.23485
 Alpha  occ. eigenvalues --   -0.58691  -0.57233  -0.52171  -0.50970  -0.50243
 Alpha  occ. eigenvalues --   -0.50078  -0.48484  -0.47468  -0.35420  -0.34329
 Alpha  occ. eigenvalues --   -0.31901  -0.30959   0.17598
 Alpha virt. eigenvalues --    0.29443   0.34859   0.36336   0.41565   0.42375
 Alpha virt. eigenvalues --    0.50639   0.54366   0.57136   0.58307   0.58716
 Alpha virt. eigenvalues --    0.61329   0.74955   0.76340   0.83657   0.85768

 Mulliken charges and spin densities:
               1          2
     1  O   -0.428189   0.059750
     2  C    0.254452   0.386126
     3  O   -0.339013   0.066927
     4  O   -0.312394   0.064695
     5  C    0.253369   0.367273
     6  O   -0.428225   0.055229
 Sum of Mulliken charges =  -1.00000   1.00000

 Dipole moment (field-independent basis, Debye):
    X=             -0.2367    Y=              0.2143    Z=              0.0000  Tot=              0.3193
 Quadrupole moment (field-independent basis, Debye-Ang):
   XX=            -36.4281   YY=            -72.9593   ZZ=            -33.8545
   XY=              9.1485   XZ=              0.0000   YZ=             -0.0000

 023\MP4SDQ=-376.4384441\CCSD=-376.4320172\CCSD(T)=-376.4900351\RMSD=5.
 Normal termination of Gaussian 16 at Wed Feb 21 09:53:01 2024.
