 Gaussian 16, Revision A.03,
 Gaussian 16:  ES64L-G16RevA.03 25-Dec-2016

 --------------------
 #p ROCCSD(T)/cc-pVTZ
 --------------------

 -----------
 CO2_CO2_258
 -----------
 Symbolic Z-matrix:
 Charge = -1 Multiplicity = 2

                         Standard orientation:
 ---------------------------------------------------------------------
 Center     Atomic      Atomic             Coordinates (Angstroms)
 Number     Number       Type             X           Y           Z
 ---------------------------------------------------------------------
      1          8           0        0.000000    0.000000    4.546000
      2          6           0        0.000000    0.000000    3.383000
      3          8           0        0.000000    0.000000    2.220000
      4          8           0        0.000000    0.000000   -2.220000
      5          6           0        0.000000    0.000000   -3.383000
      6          8           0        0.000000    0.000000   -4.546000
 ---------------------------------------------------------------------

 SCF Done:  E(ROHF) =  -375.220341789     A.U. after   12 cycles
 E2 =    -0.1232458748D+01 EUMP2 =    -0.37645280053734D+03
 CCSD(T)
 CCSD(T)= -0.37648850398D+03

 Unable to determine electronic state:  an orbital has unidentified symmetry.
 Alpha  occ. eigenvalues --  -20.42530 -20.42530 -20.42306 -20.42305 -11.20795
 Alpha  occ. eigenvalues --  -11.20794  -1.31279  -1.31277  -1.25832  -1.25829
 Alpha  occ. eigenvalues --   -0.59763  -0.59707  -0.53180  -0.53114  -0.52465
 Alpha  occ. eigenvalues --   -0.52441  -0.49899  -0.49896  -0.36917  -0.36735
 Alpha  occ. eigenvalues --   -0.33368  -0.33360   0.17707
 Alpha virt. eigenvalues --    0.25681   0.33759   0.34071   0.40193   0.40206
 Alpha virt. eigenvalues --    0.48972   0.51068   0.56176   0.56196   0.57860
 Alpha virt. eigenvalues --    0.57877   0.74135   0.74214   0.81628   0.84527

 Mulliken charges and spin densities:
               1          2
     1  O   -0.405101   0.058330
     2  C    0.266914   0.378342
     3  O   -0.361813   0.063328
     4  O   -0.361813   0.063328
     5  C    0.266914   0.378342
     6  O   -0.405101   0.058330
 Sum of Mulliken charges =  -1.00000   1.00000

 Dipole moment (field-independent basis, Debye):
    X=             -0.0000    Y=              0.0000    Z=             -0.0000  Tot=              0.0000
 Quadrupole moment (field-independent basis, Debye-Ang):
   XX=            -33.8404   YY=            -31.6343   ZZ=           -104.4276
   XY=              0.0000   XZ=              0.0000   YZ=             -0.0000

 596\CCSD(T)=-376.488504\RMSD=2.107e-09\PG=D*H [C*(O1C1O1.O1C1O1)]\\@
 Normal termination of Gaussian 16 at Tue Feb 20 13:24:06 2024.
