 Gaussian 16, Revision A.03,
 Gaussian 16:  ES64L-G16RevA.03 25-Dec-2016

 --------------------
 #p ROCCSD(T)/cc-pVTZ
 --------------------

 -----------
 CO2_CO2_240
 -----------
 Symbolic Z-matrix:
 Charge = -1 Multiplicity = 2

                         Standard orientation:
 ---------------------------------------------------------------------
 Center     Atomic      Atomic             Coordinates (Angstroms)
 Number     Number       Type             X           Y           Z
 ---------------------------------------------------------------------
      1          8           0        0.000000    0.000000    4.426000
      2          6           0        0.000000    0.000000    3.263000
      3          8           0        0.000000    0.000000    2.100000
      4          8           0        0.000000    0.000000   -2.100000
      5          6           0        0.000000    0.000000   -3.263000
      6          8           0        0.000000    0.000000   -4.426000
 ---------------------------------------------------------------------

 SCF Done:  E(ROHF) =  -375.220140538     A.U. after   12 cycles
 E2 =    -0.1232546343D+01 EUMP2 =    -0.37645268688152D+03
 CCSD(T)
 CCSD(T)= -0.37648850382D+03

 Unable to determine electronic state:  an orbital has unidentified symmetry.
 Alpha  occ. eigenvalues --  -20.42362 -20.42362 -20.42123 -20.42123 -11.20612
 Alpha  occ. eigenvalues --  -11.20612  -1.31104  -1.31102  -1.25654  -1.25649
 Alpha  occ. eigenvalues --   -0.59595  -0.59509  -0.53010  -0.52897  -0.52292
 Alpha  occ. eigenvalues --   -0.52263  -0.49726  -0.49720  -0.36750  -0.36539
 Alpha  occ. eigenvalues --   -0.33191  -0.33176   0.17723
 Alpha virt. eigenvalues --    0.26017   0.33855   0.34273   0.40355   0.40380
 Alpha virt. eigenvalues --    0.48722   0.51604   0.56327   0.56359   0.58014
 Alpha virt. eigenvalues --    0.58045   0.74307   0.74367   0.80674   0.85047

 Mulliken charges and spin densities:
               1          2
     1  O   -0.406487   0.058162
     2  C    0.265679   0.378335
     3  O   -0.359191   0.063503
     4  O   -0.359191   0.063503
     5  C    0.265679   0.378335
     6  O   -0.406487   0.058162
 Sum of Mulliken charges =  -1.00000   1.00000

 Dipole moment (field-independent basis, Debye):
    X=             -0.0000    Y=              0.0000    Z=              0.0000  Tot=              0.0000
 Quadrupole moment (field-independent basis, Debye-Ang):
   XX=            -33.8446   YY=            -31.6369   ZZ=           -100.7216
   XY=              0.0000   XZ=              0.0000   YZ=             -0.0000

 26\CCSD(T)=-376.4885038\RMSD=2.162e-09\PG=D*H [C*(O1C1O1.O1C1O1)]\\@
 Normal termination of Gaussian 16 at Tue Feb 20 11:00:14 2024.
