 Gaussian 16, Revision A.03,
 Gaussian 16:  ES64L-G16RevA.03 25-Dec-2016

 --------------------
 #p ROCCSD(T)/cc-pVTZ
 --------------------

 ----------
 CO2_CO2_44
 ----------
 Symbolic Z-matrix:
 Charge = -1 Multiplicity = 2

                         Standard orientation:
 ---------------------------------------------------------------------
 Center     Atomic      Atomic             Coordinates (Angstroms)
 Number     Number       Type             X           Y           Z
 ---------------------------------------------------------------------
      1          8           0       -1.744500   -1.361500    0.000000
      2          6           0       -0.581500   -1.361500    0.000000
      3          8           0        0.581500   -1.361500    0.000000
      4          8           0        0.581500    0.198500    0.000000
      5          6           0        0.581500    1.361500    0.000000
      6          8           0        0.581500    2.524500    0.000000
 ---------------------------------------------------------------------

 SCF Done:  E(ROHF) =  -375.030969350     A.U. after   30 cycles
 E2 =    -0.1249468447D+01 EUMP2 =    -0.37628043779695D+03
 CCSD(T)
 CCSD(T)= -0.37632038882D+03

 The electronic state is 2-A'.
 Alpha  occ. eigenvalues --  -20.43163 -20.40704 -20.31530 -20.30964 -11.22242
 Alpha  occ. eigenvalues --  -11.05936  -1.33973  -1.27923  -1.20708  -1.15618
 Alpha  occ. eigenvalues --   -0.65733  -0.59781  -0.54243  -0.50940  -0.47596
 Alpha  occ. eigenvalues --   -0.44832  -0.42418  -0.40966  -0.33512  -0.30039
 Alpha  occ. eigenvalues --   -0.23823  -0.18737   0.10647
 Alpha virt. eigenvalues --    0.36398   0.40506   0.40791   0.43982   0.47871
 Alpha virt. eigenvalues --    0.51177   0.57441   0.58150   0.60222   0.67145
 Alpha virt. eigenvalues --    0.67439   0.76257   0.81668   0.84780   0.89069

 Mulliken charges and spin densities:
               1          2
     1  O   -0.396737   0.014417
     2  C    0.424070   0.067519
     3  O   -0.211745   0.020344
     4  O   -0.378050   0.071818
     5  C    0.097823   0.709589
     6  O   -0.535360   0.116312
 Sum of Mulliken charges =  -1.00000   1.00000

 Dipole moment (field-independent basis, Debye):
    X=             -0.6791    Y=             -3.8272    Z=              0.0000  Tot=              3.8870
 Quadrupole moment (field-independent basis, Debye-Ang):
   XX=            -41.2839   YY=            -54.5061   ZZ=            -31.4437
   XY=             -4.8699   XZ=              0.0000   YZ=              0.0000

 D=-376.2594549\CCSD(T)=-376.3203888\RMSD=6.234e-09\PG=CS [SG(C2O4)]\\@
 Normal termination of Gaussian 16 at Mon Feb 19 18:26:26 2024.
