 Gaussian 16, Revision A.03,
 Gaussian 16:  ES64L-G16RevA.03 25-Dec-2016

 --------------------
 #p ROCCSD(T)/cc-pVTZ
 --------------------

 -----------
 CO2_CO2_123
 -----------
 Symbolic Z-matrix:
 Charge = -1 Multiplicity = 2

                         Standard orientation:
 ---------------------------------------------------------------------
 Center     Atomic      Atomic             Coordinates (Angstroms)
 Number     Number       Type             X           Y           Z
 ---------------------------------------------------------------------
      1          8           0        0.000000    0.000000    3.646000
      2          6           0        0.000000    0.000000    2.483000
      3          8           0        0.000000    0.000000    1.320000
      4          8           0        0.000000    0.000000   -1.320000
      5          6           0        0.000000    0.000000   -2.483000
      6          8           0        0.000000    0.000000   -3.646000
 ---------------------------------------------------------------------

 SCF Done:  E(ROHF) =  -375.217711304     A.U. after   12 cycles
 E2 =    -0.1235323944D+01 EUMP2 =    -0.37645303524712D+03
 CCSD(T)
 CCSD(T)= -0.37648984862D+03

 Unable to determine electronic state:  an orbital has unidentified symmetry.
 Alpha  occ. eigenvalues --  -20.40742 -20.40742 -20.40410 -20.40409 -11.18730
 Alpha  occ. eigenvalues --  -11.18730  -1.29494  -1.29384  -1.24036  -1.23813
 Alpha  occ. eigenvalues --   -0.58877  -0.57114  -0.52358  -0.50738  -0.50462
 Alpha  occ. eigenvalues --   -0.49366  -0.48165  -0.47958  -0.35353  -0.34294
 Alpha  occ. eigenvalues --   -0.31733  -0.31194   0.17607
 Alpha virt. eigenvalues --    0.29495   0.35186   0.35912   0.41592   0.42261
 Alpha virt. eigenvalues --    0.50562   0.55013   0.57347   0.57997   0.58987
 Alpha virt. eigenvalues --    0.59892   0.74879   0.75577   0.86186   0.86302

 Mulliken charges and spin densities:
               1          2
     1  O   -0.435396   0.057329
     2  C    0.245248   0.375746
     3  O   -0.309851   0.066925
     4  O   -0.309851   0.066925
     5  C    0.245248   0.375746
     6  O   -0.435396   0.057329
 Sum of Mulliken charges =  -1.00000   1.00000

 Dipole moment (field-independent basis, Debye):
    X=             -0.0000    Y=              0.0000    Z=              0.0000  Tot=              0.0000
 Quadrupole moment (field-independent basis, Debye-Ang):
   XX=            -33.8661   YY=            -31.6611   ZZ=            -80.4530
   XY=              0.0000   XZ=              0.0000   YZ=              0.0000

 2816\CCSD(T)=-376.4898486\RMSD=3.653e-09\PG=D*H [C*(O1C1O1.O1C1O1)]\\@
 Normal termination of Gaussian 16 at Wed Feb 21 08:49:44 2024.
