 Gaussian 16, Revision A.03,
 Gaussian 16:  ES64L-G16RevA.03 25-Dec-2016

 --------------------
 #p ROCCSD(T)/cc-pVTZ
 --------------------

 ----------
 CO2_CO2_67
 ----------
 Symbolic Z-matrix:
 Charge = -1 Multiplicity = 2

                         Standard orientation:
 ---------------------------------------------------------------------
 Center     Atomic      Atomic             Coordinates (Angstroms)
 Number     Number       Type             X           Y           Z
 ---------------------------------------------------------------------
      1          8           0        1.233548   -2.755048    0.000000
      2          6           0        0.411183   -1.932683    0.000000
      3          8           0       -0.411183   -1.110317    0.000000
      4          8           0       -0.411183    0.769683   -0.000000
      5          6           0       -0.411183    1.932683   -0.000000
      6          8           0       -0.411183    3.095682   -0.000000
 ---------------------------------------------------------------------

 SCF Done:  E(ROHF) =  -375.166528213     A.U. after   17 cycles
 E2 =    -0.1246069018D+01 EUMP2 =    -0.37641259723128D+03
 CCSD(T)
 CCSD(T)= -0.37644901396D+03

 The electronic state is 2-A".
 Alpha  occ. eigenvalues --  -20.40170 -20.39072 -20.37906 -20.37345 -11.17778
 Alpha  occ. eigenvalues --  -11.15251  -1.29118  -1.26955  -1.23658  -1.21040
 Alpha  occ. eigenvalues --   -0.63028  -0.54949  -0.52458  -0.50153  -0.48099
 Alpha  occ. eigenvalues --   -0.47988  -0.46121  -0.41238  -0.35194  -0.31149
 Alpha  occ. eigenvalues --   -0.31039  -0.27051   0.16826
 Alpha virt. eigenvalues --    0.33253   0.35323   0.38354   0.42338   0.44032
 Alpha virt. eigenvalues --    0.52329   0.55614   0.57012   0.58854   0.60465
 Alpha virt. eigenvalues --    0.65341   0.75412   0.78705   0.86410   0.86970

 Mulliken charges and spin densities:
               1          2
     1  O   -0.458008   0.063931
     2  C    0.237006   0.402174
     3  O   -0.318771   0.069264
     4  O   -0.254772   0.064248
     5  C    0.251315   0.347731
     6  O   -0.456770   0.052652
 Sum of Mulliken charges =  -1.00000   1.00000

 Dipole moment (field-independent basis, Debye):
    X=             -0.4900    Y=              0.6065    Z=             -0.0000  Tot=              0.7797
 Quadrupole moment (field-independent basis, Debye-Ang):
   XX=            -36.6615   YY=            -65.9367   ZZ=            -33.8279
   XY=              8.7701   XZ=             -0.0000   YZ=              0.0000

 5972\MP4SDQ=-376.3961966\CCSD=-376.3889855\CCSD(T)=-376.449014\RMSD=5.
 Normal termination of Gaussian 16 at Tue Feb 20 09:41:26 2024.
