 Gaussian 16, Revision A.03,
 Gaussian 16:  ES64L-G16RevA.03 25-Dec-2016

 --------------------
 #p ROCCSD(T)/cc-pVTZ
 --------------------

 ----------
 CO2_CO2_59
 ----------
 Symbolic Z-matrix:
 Charge = -1 Multiplicity = 2

                         Standard orientation:
 ---------------------------------------------------------------------
 Center     Atomic      Atomic             Coordinates (Angstroms)
 Number     Number       Type             X           Y           Z
 ---------------------------------------------------------------------
      1          8           0       -1.744500   -1.461500    0.000000
      2          6           0       -0.581500   -1.461500    0.000000
      3          8           0        0.581500   -1.461500    0.000000
      4          8           0        0.581500    0.298500    0.000000
      5          6           0        0.581500    1.461500    0.000000
      6          8           0        0.581500    2.624500    0.000000
 ---------------------------------------------------------------------

 SCF Done:  E(ROHF) =  -375.150522118     A.U. after   36 cycles
 E2 =    -0.1248559404D+01 EUMP2 =    -0.37639908152177D+03
 CCSD(T)
 CCSD(T)= -0.37643922075D+03

 The electronic state is 2-A'.
 Alpha  occ. eigenvalues --  -20.45502 -20.42911 -20.36907 -20.35856 -11.25743
 Alpha  occ. eigenvalues --  -11.16020  -1.34227  -1.29381  -1.25610  -1.20996
 Alpha  occ. eigenvalues --   -0.64048  -0.60915  -0.55317  -0.52362  -0.51648
 Alpha  occ. eigenvalues --   -0.46336  -0.44824  -0.44667  -0.35232  -0.29921
 Alpha  occ. eigenvalues --   -0.28232  -0.27672   0.12718
 Alpha virt. eigenvalues --    0.35533   0.38693   0.39649   0.42007   0.44071
 Alpha virt. eigenvalues --    0.50276   0.55476   0.55834   0.59562   0.64000
 Alpha virt. eigenvalues --    0.65634   0.74115   0.78965   0.82736   0.88451

 Mulliken charges and spin densities:
               1          2
     1  O   -0.322167  -0.029332
     2  C    0.298881   0.226644
     3  O   -0.199555  -0.033428
     4  O   -0.069320  -0.175391
     5  C   -0.460775   1.144900
     6  O   -0.247065  -0.133393
 Sum of Mulliken charges =  -1.00000   1.00000

 Dipole moment (field-independent basis, Debye):
    X=             -2.3046    Y=             -4.2574    Z=              0.0000  Tot=              4.8411
 Quadrupole moment (field-independent basis, Debye-Ang):
   XX=            -44.2119   YY=            -52.9039   ZZ=            -34.1967
   XY=             -6.7265   XZ=              0.0000   YZ=              0.0000

 D=-376.3770612\CCSD(T)=-376.4392208\RMSD=2.553e-09\PG=CS [SG(C2O4)]\\@
 Normal termination of Gaussian 16 at Mon Feb 19 20:52:35 2024.
