 Gaussian 16, Revision A.03,
 Gaussian 16:  ES64L-G16RevA.03 25-Dec-2016

 --------------------
 #p ROCCSD(T)/cc-pVTZ
 --------------------

 ----------
 CO2_CO2_89
 ----------
 Symbolic Z-matrix:
 Charge = -1 Multiplicity = 2

                         Standard orientation:
 ---------------------------------------------------------------------
 Center     Atomic      Atomic             Coordinates (Angstroms)
 Number     Number       Type             X           Y           Z
 ---------------------------------------------------------------------
      1          8           0       -1.744500   -1.661500    0.000000
      2          6           0       -0.581500   -1.661500    0.000000
      3          8           0        0.581500   -1.661500    0.000000
      4          8           0        0.581500    0.498500    0.000000
      5          6           0        0.581500    1.661500    0.000000
      6          8           0        0.581500    2.824500    0.000000
 ---------------------------------------------------------------------

 SCF Done:  E(ROHF) =  -375.237431105     A.U. after   37 cycles
 E2 =    -0.1240549713D+01 EUMP2 =    -0.37647798081812D+03
 CCSD(T)
 CCSD(T)= -0.37651633641D+03

 The electronic state is 2-A'.
 Alpha  occ. eigenvalues --  -20.47482 -20.46108 -20.38290 -20.37913 -11.28213
 Alpha  occ. eigenvalues --  -11.18911  -1.35322  -1.30068  -1.27452  -1.22641
 Alpha  occ. eigenvalues --   -0.62859  -0.59195  -0.56659  -0.53812  -0.53003
 Alpha  occ. eigenvalues --   -0.48266  -0.46214  -0.45712  -0.36762  -0.35357
 Alpha  occ. eigenvalues --   -0.29595  -0.28908   0.13643
 Alpha virt. eigenvalues --    0.33612   0.37231   0.38250   0.42084   0.42996
 Alpha virt. eigenvalues --    0.49309   0.54134   0.54634   0.58858   0.62704
 Alpha virt. eigenvalues --    0.64681   0.72742   0.77522   0.81702   0.85858

 Mulliken charges and spin densities:
               1          2
     1  O   -0.283324  -0.046597
     2  C    0.306958   0.247408
     3  O   -0.215016  -0.042886
     4  O    0.002597  -0.247978
     5  C   -0.654967   1.295905
     6  O   -0.156249  -0.205852
 Sum of Mulliken charges =  -1.00000   1.00000

 Dipole moment (field-independent basis, Debye):
    X=             -2.1468    Y=             -5.1559    Z=              0.0000  Tot=              5.5850
 Quadrupole moment (field-independent basis, Debye-Ang):
   XX=            -43.8156   YY=            -54.5753   ZZ=            -35.0544
   XY=             -6.6139   XZ=              0.0000   YZ=              0.0000

 D=-376.4551366\CCSD(T)=-376.5163364\RMSD=7.474e-09\PG=CS [SG(C2O4)]\\@
 Normal termination of Gaussian 16 at Tue Feb 20 13:33:58 2024.
