 Gaussian 16, Revision A.03,
 Gaussian 16:  ES64L-G16RevA.03 25-Dec-2016

 --------------------
 #p ROCCSD(T)/cc-pVTZ
 --------------------

 -----------
 CO2_CO2_139
 -----------
 Symbolic Z-matrix:
 Charge = -1 Multiplicity = 2

                         Standard orientation:
 ---------------------------------------------------------------------
 Center     Atomic      Atomic             Coordinates (Angstroms)
 Number     Number       Type             X           Y           Z
 ---------------------------------------------------------------------
      1          8           0        1.233548   -3.235048    0.000000
      2          6           0        0.411183   -2.412683    0.000000
      3          8           0       -0.411183   -1.590317    0.000000
      4          8           0       -0.411183    1.249682   -0.000000
      5          6           0       -0.411183    2.412682   -0.000000
      6          8           0       -0.411183    3.575683   -0.000000
 ---------------------------------------------------------------------

 SCF Done:  E(ROHF) =  -375.219023537     A.U. after   16 cycles
 E2 =    -0.1234173086D+01 EUMP2 =    -0.37645319662233D+03
 CCSD(T)
 CCSD(T)= -0.37649006357D+03

 The electronic state is 2-A".
 Alpha  occ. eigenvalues --  -20.41330 -20.40979 -20.40473 -20.40191 -11.19487
 Alpha  occ. eigenvalues --  -11.18481  -1.30005  -1.29197  -1.24515  -1.23702
 Alpha  occ. eigenvalues --   -0.58692  -0.57495  -0.52166  -0.51110  -0.50478
 Alpha  occ. eigenvalues --   -0.50446  -0.48624  -0.47724  -0.35537  -0.34592
 Alpha  occ. eigenvalues --   -0.32036  -0.31199   0.17630
 Alpha virt. eigenvalues --    0.29074   0.34779   0.36125   0.41435   0.42199
 Alpha virt. eigenvalues --    0.50370   0.54192   0.57104   0.58099   0.58681
 Alpha virt. eigenvalues --    0.60908   0.74977   0.76149   0.83441   0.85008

 Mulliken charges and spin densities:
               1          2
     1  O   -0.425497   0.059576
     2  C    0.255901   0.385822
     3  O   -0.342032   0.066328
     4  O   -0.319208   0.064336
     5  C    0.255740   0.368487
     6  O   -0.424903   0.055452
 Sum of Mulliken charges =  -1.00000   1.00000

 Dipole moment (field-independent basis, Debye):
    X=             -0.2199    Y=              0.1967    Z=             -0.0000  Tot=              0.2950
 Quadrupole moment (field-independent basis, Debye-Ang):
   XX=            -36.4091   YY=            -74.2088   ZZ=            -33.8545
   XY=              9.2308   XZ=             -0.0000   YZ=              0.0000

 31966\MP4SDQ=-376.4386233\CCSD=-376.4323707\CCSD(T)=-376.4900636\RMSD=
 Normal termination of Gaussian 16 at Wed Feb 21 11:07:00 2024.
