 Gaussian 16, Revision A.03,
 Gaussian 16:  ES64L-G16RevA.03 25-Dec-2016

 --------------------
 #p ROCCSD(T)/cc-pVTZ
 --------------------

 -----------
 CO2_CO2_129
 -----------
 Symbolic Z-matrix:
 Charge = -1 Multiplicity = 2

                         Standard orientation:
 ---------------------------------------------------------------------
 Center     Atomic      Atomic             Coordinates (Angstroms)
 Number     Number       Type             X           Y           Z
 ---------------------------------------------------------------------
      1          8           0        0.000000    0.000000    3.686000
      2          6           0        0.000000    0.000000    2.523000
      3          8           0        0.000000    0.000000    1.360000
      4          8           0        0.000000    0.000000   -1.360000
      5          6           0        0.000000    0.000000   -2.523000
      6          8           0        0.000000    0.000000   -3.686000
 ---------------------------------------------------------------------

 SCF Done:  E(ROHF) =  -375.218254452     A.U. after   12 cycles
 E2 =    -0.1234957586D+01 EUMP2 =    -0.37645321203707D+03
 CCSD(T)
 CCSD(T)= -0.37648999011D+03

 Unable to determine electronic state:  an orbital has unidentified symmetry.
 Alpha  occ. eigenvalues --  -20.40860 -20.40860 -20.40541 -20.40540 -11.18881
 Alpha  occ. eigenvalues --  -11.18880  -1.29602  -1.29514  -1.24140  -1.23960
 Alpha  occ. eigenvalues --   -0.58818  -0.57317  -0.52323  -0.50839  -0.50602
 Alpha  occ. eigenvalues --   -0.49779  -0.48268  -0.48095  -0.35430  -0.34488
 Alpha  occ. eigenvalues --   -0.31813  -0.31361   0.17639
 Alpha virt. eigenvalues --    0.29225   0.35127   0.35785   0.41523   0.42112
 Alpha virt. eigenvalues --    0.50497   0.54766   0.57311   0.57874   0.58958
 Alpha virt. eigenvalues --    0.59742   0.74919   0.75422   0.85426   0.86114

 Mulliken charges and spin densities:
               1          2
     1  O   -0.432733   0.057323
     2  C    0.247267   0.376213
     3  O   -0.314533   0.066464
     4  O   -0.314533   0.066464
     5  C    0.247267   0.376213
     6  O   -0.432733   0.057323
 Sum of Mulliken charges =  -1.00000   1.00000

 Dipole moment (field-independent basis, Debye):
    X=             -0.0000    Y=             -0.0000    Z=              0.0000  Tot=              0.0000
 Quadrupole moment (field-independent basis, Debye-Ang):
   XX=            -33.8680   YY=            -31.6598   ZZ=            -81.3123
   XY=              0.0000   XZ=              0.0000   YZ=              0.0000

 92\CCSD(T)=-376.4899901\RMSD=3.427e-09\PG=D*H [C*(O1C1O1.O1C1O1)]\\@
 Normal termination of Gaussian 16 at Wed Feb 21 09:42:17 2024.
