 Gaussian 16, Revision A.03,
 Gaussian 16:  ES64L-G16RevA.03 25-Dec-2016

 --------------------
 #p ROCCSD(T)/cc-pVTZ
 --------------------

 ----------
 CO2_CO2_58
 ----------
 Symbolic Z-matrix:
 Charge = -1 Multiplicity = 2

                         Standard orientation:
 ---------------------------------------------------------------------
 Center     Atomic      Atomic             Coordinates (Angstroms)
 Number     Number       Type             X           Y           Z
 ---------------------------------------------------------------------
      1          8           0        1.233548   -2.695048    0.000000
      2          6           0        0.411183   -1.872683    0.000000
      3          8           0       -0.411183   -1.050317    0.000000
      4          8           0       -0.411183    0.709683   -0.000000
      5          6           0       -0.411183    1.872683   -0.000000
      6          8           0       -0.411183    3.035682   -0.000000
 ---------------------------------------------------------------------

 SCF Done:  E(ROHF) =  -375.134885530     A.U. after   17 cycles
 E2 =    -0.1251081371D+01 EUMP2 =    -0.37638596690084D+03
 CCSD(T)
 CCSD(T)= -0.37642174496D+03

 The electronic state is 2-A".
 Alpha  occ. eigenvalues --  -20.40097 -20.38771 -20.37261 -20.36735 -11.17548
 Alpha  occ. eigenvalues --  -11.14422  -1.29330  -1.26634  -1.23679  -1.20437
 Alpha  occ. eigenvalues --   -0.65241  -0.54731  -0.52173  -0.50240  -0.48133
 Alpha  occ. eigenvalues --   -0.47628  -0.45594  -0.39172  -0.35444  -0.30934
 Alpha  occ. eigenvalues --   -0.30384  -0.25399   0.16537
 Alpha virt. eigenvalues --    0.34066   0.35330   0.38753   0.42291   0.44396
 Alpha virt. eigenvalues --    0.52528   0.55880   0.56954   0.58851   0.60921
 Alpha virt. eigenvalues --    0.66062   0.75582   0.79289   0.86680   0.87548

 Mulliken charges and spin densities:
               1          2
     1  O   -0.465946   0.065975
     2  C    0.225089   0.412648
     3  O   -0.310286   0.067525
     4  O   -0.242550   0.061743
     5  C    0.255135   0.340458
     6  O   -0.461441   0.051650
 Sum of Mulliken charges =  -1.00000   1.00000

 Dipole moment (field-independent basis, Debye):
    X=             -0.5784    Y=              0.7890    Z=             -0.0000  Tot=              0.9783
 Quadrupole moment (field-independent basis, Debye-Ang):
   XX=            -36.7259   YY=            -65.2792   ZZ=            -33.8184
   XY=              8.7770   XZ=             -0.0000   YZ=              0.0000

 9669\MP4SDQ=-376.368486\CCSD=-376.3610121\CCSD(T)=-376.421745\RMSD=7.6
 Normal termination of Gaussian 16 at Mon Feb 19 20:39:01 2024.
