 Gaussian 16, Revision A.03,
 Gaussian 16:  ES64L-G16RevA.03 25-Dec-2016

 --------------------
 #p ROCCSD(T)/cc-pVTZ
 --------------------

 -----------
 CO2_CO2_126
 -----------
 Symbolic Z-matrix:
 Charge = -1 Multiplicity = 2

                         Standard orientation:
 ---------------------------------------------------------------------
 Center     Atomic      Atomic             Coordinates (Angstroms)
 Number     Number       Type             X           Y           Z
 ---------------------------------------------------------------------
      1          8           0        0.000000    0.000000    3.666000
      2          6           0        0.000000    0.000000    2.503000
      3          8           0        0.000000    0.000000    1.340000
      4          8           0        0.000000    0.000000   -1.340000
      5          6           0        0.000000    0.000000   -2.503000
      6          8           0        0.000000    0.000000   -3.666000
 ---------------------------------------------------------------------

 SCF Done:  E(ROHF) =  -375.218008508     A.U. after   12 cycles
 E2 =    -0.1235133931D+01 EUMP2 =    -0.37645314243897D+03
 CCSD(T)
 CCSD(T)= -0.37648993934D+03

 Unable to determine electronic state:  an orbital has unidentified symmetry.
 Alpha  occ. eigenvalues --  -20.40802 -20.40802 -20.40477 -20.40476 -11.18807
 Alpha  occ. eigenvalues --  -11.18807  -1.29548  -1.29450  -1.24088  -1.23888
 Alpha  occ. eigenvalues --   -0.58843  -0.57217  -0.52339  -0.50789  -0.50533
 Alpha  occ. eigenvalues --   -0.49580  -0.48217  -0.48027  -0.35392  -0.34393
 Alpha  occ. eigenvalues --   -0.31773  -0.31279   0.17624
 Alpha virt. eigenvalues --    0.29358   0.35157   0.35847   0.41558   0.42186
 Alpha virt. eigenvalues --    0.50534   0.54888   0.57329   0.57935   0.58973
 Alpha virt. eigenvalues --    0.59816   0.74899   0.75497   0.85950   0.86149

 Mulliken charges and spin densities:
               1          2
     1  O   -0.434048   0.057325
     2  C    0.246265   0.375986
     3  O   -0.312217   0.066690
     4  O   -0.312217   0.066690
     5  C    0.246265   0.375986
     6  O   -0.434048   0.057325
 Sum of Mulliken charges =  -1.00000   1.00000

 Dipole moment (field-independent basis, Debye):
    X=             -0.0000    Y=             -0.0000    Z=             -0.0000  Tot=              0.0000
 Quadrupole moment (field-independent basis, Debye-Ang):
   XX=            -31.6605   YY=            -33.8671   ZZ=            -80.8797
   XY=              0.0000   XZ=              0.0000   YZ=              0.0000

 401\CCSD(T)=-376.4899393\RMSD=3.534e-09\PG=D*H [C*(O1C1O1.O1C1O1)]\\@
 Normal termination of Gaussian 16 at Wed Feb 21 09:17:14 2024.
