 Gaussian 16, Revision A.03,
 Gaussian 16:  ES64L-G16RevA.03 25-Dec-2016

 --------------------
 #p ROCCSD(T)/cc-pVTZ
 --------------------

 ---------
 CO2_CO2_3
 ---------
 Symbolic Z-matrix:
 Charge = -1 Multiplicity = 2

                         Standard orientation:
 ---------------------------------------------------------------------
 Center     Atomic      Atomic             Coordinates (Angstroms)
 Number     Number       Type             X           Y           Z
 ---------------------------------------------------------------------
      1          8           0        0.000000    0.000000    2.846000
      2          6           0        0.000000    0.000000    1.683000
      3          8           0        0.000000    0.000000    0.520000
      4          8           0        0.000000    0.000000   -0.520000
      5          6           0        0.000000    0.000000   -1.683000
      6          8           0        0.000000    0.000000   -2.846000
 ---------------------------------------------------------------------

 SCF Done:  E(ROHF) =  -374.346425103     A.U. after   14 cycles
 E2 =    -0.1346302402D+01 EUMP2 =    -0.37569272750543D+03
 CCSD(T)
 CCSD(T)= -0.37569784357D+03

 Unable to determine electronic state:  an orbital has unidentified symmetry.
 Alpha  occ. eigenvalues --  -20.62217 -20.62042 -20.33533 -20.33533 -11.15682
 Alpha  occ. eigenvalues --  -11.15679  -1.76158  -1.29838  -1.21356  -1.19588
 Alpha  occ. eigenvalues --   -1.06788  -0.80976  -0.79813  -0.49056  -0.48826
 Alpha  occ. eigenvalues --   -0.48653  -0.47199  -0.38556  -0.37660  -0.29847
 Alpha  occ. eigenvalues --   -0.28711   0.09828   0.10631
 Alpha virt. eigenvalues --    0.31502   0.34885   0.37129   0.38933   0.46644
 Alpha virt. eigenvalues --    0.54806   0.54830   0.55967   0.59036   0.61144
 Alpha virt. eigenvalues --    0.62454   0.70226   0.85540   0.86628   0.89002

 Mulliken charges and spin densities:
               1          2
     1  O   -0.532595   0.097464
     2  C   -0.255623   0.391178
     3  O    0.288218   0.011358
     4  O    0.288218   0.011358
     5  C   -0.255623   0.391178
     6  O   -0.532595   0.097464
 Sum of Mulliken charges =  -1.00000   1.00000

 Dipole moment (field-independent basis, Debye):
    X=             -0.0000    Y=             -0.0000    Z=             -0.0000  Tot=              0.0000
 Quadrupole moment (field-independent basis, Debye-Ang):
   XX=            -36.2362   YY=            -33.7653   ZZ=            -81.4322
   XY=              0.0000   XZ=              0.0000   YZ=              0.0000

 57\CCSD(T)=-375.6978436\RMSD=1.836e-09\PG=D*H [C*(O1C1O1.O1C1O1)]\\@
 Normal termination of Gaussian 16 at Mon Feb 19 11:55:20 2024.
