 Gaussian 16, Revision A.03,
 Gaussian 16:  ES64L-G16RevA.03 25-Dec-2016

 --------------------
 #p ROCCSD(T)/cc-pVTZ
 --------------------

 ----------
 CO2_CO2_29
 ----------
 Symbolic Z-matrix:
 Charge = -1 Multiplicity = 2

                         Standard orientation:
 ---------------------------------------------------------------------
 Center     Atomic      Atomic             Coordinates (Angstroms)
 Number     Number       Type             X           Y           Z
 ---------------------------------------------------------------------
      1          8           0       -1.744500   -1.261500    0.000000
      2          6           0       -0.581500   -1.261500    0.000000
      3          8           0        0.581500   -1.261500    0.000000
      4          8           0        0.581500    0.098500    0.000000
      5          6           0        0.581500    1.261500    0.000000
      6          8           0        0.581500    2.424500    0.000000
 ---------------------------------------------------------------------

 SCF Done:  E(ROHF) =  -374.813832563     A.U. after   24 cycles
 E2 =    -0.1279397613D+01 EUMP2 =    -0.37609323017573D+03
 CCSD(T)
 CCSD(T)= -0.37612795177D+03

 The electronic state is 2-A'.
 Alpha  occ. eigenvalues --  -20.43275 -20.40728 -20.34133 -20.33054 -11.18906
 Alpha  occ. eigenvalues --  -11.08515  -1.42064  -1.26385  -1.21777  -1.16761
 Alpha  occ. eigenvalues --   -0.72702  -0.62704  -0.53745  -0.53610  -0.48851
 Alpha  occ. eigenvalues --   -0.45553  -0.42127  -0.41054  -0.34298  -0.30952
 Alpha  occ. eigenvalues --   -0.24637  -0.06956   0.08603
 Alpha virt. eigenvalues --    0.36642   0.40670   0.42764   0.44930   0.46208
 Alpha virt. eigenvalues --    0.51308   0.57379   0.59065   0.60987   0.66383
 Alpha virt. eigenvalues --    0.67416   0.76619   0.81054   0.84449   0.88451

 Mulliken charges and spin densities:
               1          2
     1  O   -0.396992   0.007119
     2  C    0.270453   0.051328
     3  O   -0.107533   0.036000
     4  O   -0.273068   0.022981
     5  C   -0.026976   0.814620
     6  O   -0.465883   0.067952
 Sum of Mulliken charges =  -1.00000   1.00000

 Dipole moment (field-independent basis, Debye):
    X=              0.9041    Y=             -2.6279    Z=              0.0000  Tot=              2.7791
 Quadrupole moment (field-independent basis, Debye-Ang):
   XX=            -40.8886   YY=            -55.4913   ZZ=            -31.7668
   XY=             -4.6406   XZ=              0.0000   YZ=              0.0000

 D=-376.0618566\CCSD(T)=-376.1279518\RMSD=7.223e-09\PG=CS [SG(C2O4)]\\@
 Normal termination of Gaussian 16 at Mon Feb 19 16:17:03 2024.
