 Gaussian 16, Revision A.03,
 Gaussian 16:  ES64L-G16RevA.03 25-Dec-2016

 --------------------
 #p ROCCSD(T)/cc-pVTZ
 --------------------

 -----------
 CO2_CO2_108
 -----------
 Symbolic Z-matrix:
 Charge = -1 Multiplicity = 2

                         Standard orientation:
 ---------------------------------------------------------------------
 Center     Atomic      Atomic             Coordinates (Angstroms)
 Number     Number       Type             X           Y           Z
 ---------------------------------------------------------------------
      1          8           0        0.000000    0.000000    3.546000
      2          6           0        0.000000    0.000000    2.383000
      3          8           0        0.000000    0.000000    1.220000
      4          8           0        0.000000    0.000000   -1.220000
      5          6           0        0.000000    0.000000   -2.383000
      6          8           0        0.000000    0.000000   -3.546000
 ---------------------------------------------------------------------

 SCF Done:  E(ROHF) =  -375.215026953     A.U. after   12 cycles
 E2 =    -0.1236534059D+01 EUMP2 =    -0.37645156101148D+03
 CCSD(T)
 CCSD(T)= -0.37648840808D+03

 Unable to determine electronic state:  an orbital has unidentified symmetry.
 Alpha  occ. eigenvalues --  -20.40415 -20.40415 -20.40028 -20.40027 -11.18303
 Alpha  occ. eigenvalues --  -11.18303  -1.29210  -1.29019  -1.23775  -1.23393
 Alpha  occ. eigenvalues --   -0.59216  -0.56556  -0.52498  -0.50478  -0.50073
 Alpha  occ. eigenvalues --   -0.48031  -0.47899  -0.47571  -0.35174  -0.33730
 Alpha  occ. eigenvalues --   -0.31548  -0.30711   0.17499
 Alpha virt. eigenvalues --    0.30246   0.35310   0.36268   0.41765   0.42680
 Alpha virt. eigenvalues --    0.50605   0.55658   0.57417   0.58335   0.59036
 Alpha virt. eigenvalues --    0.60311   0.74776   0.76077   0.86384   0.86469

 Mulliken charges and spin densities:
               1          2
     1  O   -0.442637   0.057397
     2  C    0.240111   0.374404
     3  O   -0.297474   0.068200
     4  O   -0.297474   0.068200
     5  C    0.240111   0.374404
     6  O   -0.442637   0.057397
 Sum of Mulliken charges =  -1.00000   1.00000

 Dipole moment (field-independent basis, Debye):
    X=             -0.0000    Y=             -0.0000    Z=              0.0000  Tot=              0.0000
 Quadrupole moment (field-independent basis, Debye-Ang):
   XX=            -33.8574   YY=            -31.6637   ZZ=            -78.4147
   XY=              0.0000   XZ=              0.0000   YZ=              0.0000

 CCSD(T)=-376.4884081\RMSD=4.474e-09\PG=D*H [C*(O1C1O1.O1C1O1)]\\@
 Normal termination of Gaussian 16 at Tue Feb 20 16:40:21 2024.
