 Gaussian 16, Revision A.03,
 Gaussian 16:  ES64L-G16RevA.03 25-Dec-2016

 --------------------
 #p ROCCSD(T)/cc-pVTZ
 --------------------

 -----------
 CO2_CO2_142
 -----------
 Symbolic Z-matrix:
 Charge = -1 Multiplicity = 2

                         Standard orientation:
 ---------------------------------------------------------------------
 Center     Atomic      Atomic             Coordinates (Angstroms)
 Number     Number       Type             X           Y           Z
 ---------------------------------------------------------------------
      1          8           0        1.233548   -3.255048    0.000000
      2          6           0        0.411183   -2.432683    0.000000
      3          8           0       -0.411183   -1.610318    0.000000
      4          8           0       -0.411183    1.269683   -0.000000
      5          6           0       -0.411183    2.432683   -0.000000
      6          8           0       -0.411183    3.595683   -0.000000
 ---------------------------------------------------------------------

 SCF Done:  E(ROHF) =  -375.219183289     A.U. after   16 cycles
 E2 =    -0.1234036507D+01 EUMP2 =    -0.37645321979515D+03
 CCSD(T)
 CCSD(T)= -0.37649001982D+03

 The electronic state is 2-A".
 Alpha  occ. eigenvalues --  -20.41373 -20.41029 -20.40538 -20.40259 -11.19539
 Alpha  occ. eigenvalues --  -11.18559  -1.30050  -1.29263  -1.24561  -1.23771
 Alpha  occ. eigenvalues --   -0.58702  -0.57577  -0.52171  -0.51156  -0.50600
 Alpha  occ. eigenvalues --   -0.50511  -0.48669  -0.47801  -0.35577  -0.34673
 Alpha  occ. eigenvalues --   -0.32081  -0.31273   0.17638
 Alpha virt. eigenvalues --    0.28957   0.34750   0.36058   0.41393   0.42143
 Alpha virt. eigenvalues --    0.50271   0.54135   0.57090   0.58033   0.58668
 Alpha virt. eigenvalues --    0.60778   0.74984   0.76090   0.83251   0.84752

 Mulliken charges and spin densities:
               1          2
     1  O   -0.424641   0.059527
     2  C    0.256410   0.385734
     3  O   -0.343067   0.066148
     4  O   -0.321345   0.064228
     5  C    0.256491   0.368839
     6  O   -0.423848   0.055523
 Sum of Mulliken charges =  -1.00000   1.00000

 Dipole moment (field-independent basis, Debye):
    X=             -0.2147    Y=              0.1917    Z=             -0.0000  Tot=              0.2879
 Quadrupole moment (field-independent basis, Debye-Ang):
   XX=            -36.4033   YY=            -74.6359   ZZ=            -33.8544
   XY=              9.2590   XZ=             -0.0000   YZ=              0.0000

 32198\MP4SDQ=-376.4386372\CCSD=-376.4324592\CCSD(T)=-376.4900198\RMSD=
 Normal termination of Gaussian 16 at Wed Feb 21 11:37:10 2024.
