 Gaussian 16, Revision A.03,
 Gaussian 16:  ES64L-G16RevA.03 25-Dec-2016

 --------------------
 #p ROCCSD(T)/cc-pVTZ
 --------------------

 ----------
 CO2_CO2_85
 ----------
 Symbolic Z-matrix:
 Charge = -1 Multiplicity = 2

                         Standard orientation:
 ---------------------------------------------------------------------
 Center     Atomic      Atomic             Coordinates (Angstroms)
 Number     Number       Type             X           Y           Z
 ---------------------------------------------------------------------
      1          8           0        1.233548   -2.875048   -0.000000
      2          6           0        0.411183   -2.052683   -0.000000
      3          8           0       -0.411183   -1.230317   -0.000000
      4          8           0       -0.411183    0.889682    0.000000
      5          6           0       -0.411183    2.052683    0.000000
      6          8           0       -0.411183    3.215683    0.000000
 ---------------------------------------------------------------------

 SCF Done:  E(ROHF) =  -375.199433230     A.U. after   17 cycles
 E2 =    -0.1240123289D+01 EUMP2 =    -0.37643955651919D+03
 CCSD(T)
 CCSD(T)= -0.37647664059D+03

 The electronic state is 2-A".
 Alpha  occ. eigenvalues --  -20.40453 -20.39725 -20.38835 -20.38373 -11.18296
 Alpha  occ. eigenvalues --  -11.16441  -1.29184  -1.27650  -1.23726  -1.21986
 Alpha  occ. eigenvalues --   -0.60329  -0.55600  -0.52549  -0.50276  -0.48884
 Alpha  occ. eigenvalues --   -0.48075  -0.47124  -0.44447  -0.35034  -0.32391
 Alpha  occ. eigenvalues --   -0.31248  -0.28931   0.17205
 Alpha virt. eigenvalues --    0.31874   0.35209   0.37659   0.42214   0.43444
 Alpha virt. eigenvalues --    0.51810   0.55210   0.57097   0.58822   0.59695
 Alpha virt. eigenvalues --    0.64035   0.75111   0.77778   0.85186   0.86596

 Mulliken charges and spin densities:
               1          2
     1  O   -0.446207   0.061747
     2  C    0.248002   0.392099
     3  O   -0.327928   0.070031
     4  O   -0.272194   0.066043
     5  C    0.245853   0.356321
     6  O   -0.447525   0.053759
 Sum of Mulliken charges =  -1.00000   1.00000

 Dipole moment (field-independent basis, Debye):
    X=             -0.3759    Y=              0.4077    Z=              0.0000  Tot=              0.5546
 Quadrupole moment (field-independent basis, Debye-Ang):
   XX=            -36.5695   YY=            -67.5676   ZZ=            -33.8416
   XY=              8.8223   XZ=              0.0000   YZ=             -0.0000

 5565\MP4SDQ=-376.4243418\CCSD=-376.4174391\CCSD(T)=-376.4766406\RMSD=2
 Normal termination of Gaussian 16 at Tue Feb 20 12:49:03 2024.
