 Gaussian 16, Revision A.03,
 Gaussian 16:  ES64L-G16RevA.03 25-Dec-2016

 --------------------
 #p ROCCSD(T)/cc-pVTZ
 --------------------

 -----------
 CO2_CO2_255
 -----------
 Symbolic Z-matrix:
 Charge = -1 Multiplicity = 2

                         Standard orientation:
 ---------------------------------------------------------------------
 Center     Atomic      Atomic             Coordinates (Angstroms)
 Number     Number       Type             X           Y           Z
 ---------------------------------------------------------------------
      1          8           0        0.000000    0.000000    4.526000
      2          6           0        0.000000    0.000000    3.363000
      3          8           0        0.000000    0.000000    2.200000
      4          8           0        0.000000    0.000000   -2.200000
      5          6           0        0.000000    0.000000   -3.363000
      6          8           0        0.000000    0.000000   -4.526000
 ---------------------------------------------------------------------

 SCF Done:  E(ROHF) =  -375.220308295     A.U. after   12 cycles
 E2 =    -0.1232470668D+01 EUMP2 =    -0.37645277896373D+03
 CCSD(T)
 CCSD(T)= -0.37648850050D+03

 Unable to determine electronic state:  an orbital has unidentified symmetry.
 Alpha  occ. eigenvalues --  -20.42503 -20.42503 -20.42276 -20.42276 -11.20765
 Alpha  occ. eigenvalues --  -11.20765  -1.31250  -1.31249  -1.25803  -1.25800
 Alpha  occ. eigenvalues --   -0.59735  -0.59676  -0.53152  -0.53080  -0.52437
 Alpha  occ. eigenvalues --   -0.52413  -0.49871  -0.49868  -0.36890  -0.36704
 Alpha  occ. eigenvalues --   -0.33339  -0.33331   0.17710
 Alpha virt. eigenvalues --    0.25735   0.33775   0.34104   0.40220   0.40234
 Alpha virt. eigenvalues --    0.48932   0.51155   0.56200   0.56222   0.57885
 Alpha virt. eigenvalues --    0.57904   0.74161   0.74240   0.81496   0.84619

 Mulliken charges and spin densities:
               1          2
     1  O   -0.405314   0.058303
     2  C    0.266718   0.378340
     3  O   -0.361405   0.063357
     4  O   -0.361405   0.063357
     5  C    0.266718   0.378340
     6  O   -0.405314   0.058303
 Sum of Mulliken charges =  -1.00000   1.00000

 Dipole moment (field-independent basis, Debye):
    X=             -0.0000    Y=              0.0000    Z=              0.0000  Tot=              0.0000
 Quadrupole moment (field-independent basis, Debye-Ang):
   XX=            -33.8410   YY=            -31.6347   ZZ=           -103.7997
   XY=              0.0000   XZ=              0.0000   YZ=             -0.0000

 \CCSD(T)=-376.4885005\RMSD=2.116e-09\PG=D*H [C*(O1C1O1.O1C1O1)]\\@
 Normal termination of Gaussian 16 at Tue Feb 20 12:59:08 2024.
