 Gaussian 16, Revision A.03,
 Gaussian 16:  ES64L-G16RevA.03 25-Dec-2016

 --------------------
 #p ROCCSD(T)/cc-pVTZ
 --------------------

 ----------
 CO2_CO2_74
 ----------
 Symbolic Z-matrix:
 Charge = -1 Multiplicity = 2

                         Standard orientation:
 ---------------------------------------------------------------------
 Center     Atomic      Atomic             Coordinates (Angstroms)
 Number     Number       Type             X           Y           Z
 ---------------------------------------------------------------------
      1          8           0       -1.744500   -1.561500    0.000000
      2          6           0       -0.581500   -1.561500    0.000000
      3          8           0        0.581500   -1.561500    0.000000
      4          8           0        0.581500    0.398500    0.000000
      5          6           0        0.581500    1.561500    0.000000
      6          8           0        0.581500    2.724500    0.000000
 ---------------------------------------------------------------------

 SCF Done:  E(ROHF) =  -375.209342546     A.U. after   37 cycles
 E2 =    -0.1243955364D+01 EUMP2 =    -0.37645329790952D+03
 CCSD(T)
 CCSD(T)= -0.37649189225D+03

 The electronic state is 2-A'.
 Alpha  occ. eigenvalues --  -20.46599 -20.44681 -20.37995 -20.37280 -11.27160
 Alpha  occ. eigenvalues --  -11.18181  -1.34649  -1.29587  -1.26962  -1.22270
 Alpha  occ. eigenvalues --   -0.62496  -0.60667  -0.55946  -0.53072  -0.52553
 Alpha  occ. eigenvalues --   -0.47179  -0.45932  -0.45482  -0.35982  -0.32906
 Alpha  occ. eigenvalues --   -0.29669  -0.28633   0.13337
 Alpha virt. eigenvalues --    0.34545   0.37929   0.38917   0.41988   0.43242
 Alpha virt. eigenvalues --    0.49802   0.54660   0.55109   0.59102   0.63163
 Alpha virt. eigenvalues --    0.65149   0.73189   0.78098   0.82128   0.87011

 Mulliken charges and spin densities:
               1          2
     1  O   -0.295366  -0.043084
     2  C    0.295752   0.249068
     3  O   -0.209673  -0.040936
     4  O   -0.010797  -0.228659
     5  C   -0.600128   1.251170
     6  O   -0.179787  -0.187559
 Sum of Mulliken charges =  -1.00000   1.00000

 Dipole moment (field-independent basis, Debye):
    X=             -2.1687    Y=             -4.7079    Z=              0.0000  Tot=              5.1834
 Quadrupole moment (field-independent basis, Debye-Ang):
   XX=            -44.0220   YY=            -53.5060   ZZ=            -34.8427
   XY=             -6.5665   XZ=              0.0000   YZ=              0.0000

 D=-376.4302698\CCSD(T)=-376.4918922\RMSD=2.865e-09\PG=CS [SG(C2O4)]\\@
 Normal termination of Gaussian 16 at Tue Feb 20 10:58:22 2024.
