 Gaussian 16, Revision A.03,
 Gaussian 16:  ES64L-G16RevA.03 25-Dec-2016

 --------------------
 #p ROCCSD(T)/cc-pVTZ
 --------------------

 ----------
 CO2_CO2_19
 ----------
 Symbolic Z-matrix:
 Charge = -1 Multiplicity = 2

                         Standard orientation:
 ---------------------------------------------------------------------
 Center     Atomic      Atomic             Coordinates (Angstroms)
 Number     Number       Type             X           Y           Z
 ---------------------------------------------------------------------
      1          8           0        1.233548   -2.435048    0.000000
      2          6           0        0.411183   -1.612683    0.000000
      3          8           0       -0.411183   -0.790317    0.000000
      4          8           0       -0.411183    0.449682   -0.000000
      5          6           0       -0.411183    1.612683   -0.000000
      6          8           0       -0.411183    2.775683   -0.000000
 ---------------------------------------------------------------------

 SCF Done:  E(ROHF) =  -374.728851239     A.U. after   20 cycles
 E2 =    -0.1268742910D+01 EUMP2 =    -0.37599759414873D+03
 CCSD(T)
 CCSD(T)= -0.37604085258D+03

 The electronic state is 2-A".
 Alpha  occ. eigenvalues --  -20.49853 -20.38746 -20.35910 -20.34556 -11.11908
 Alpha  occ. eigenvalues --  -11.10867  -1.46890  -1.24492  -1.21840  -1.18521
 Alpha  occ. eigenvalues --   -0.86036  -0.59915  -0.59135  -0.50504  -0.50012
 Alpha  occ. eigenvalues --   -0.46536  -0.43463  -0.37563  -0.37140  -0.28780
 Alpha  occ. eigenvalues --   -0.27615  -0.01721   0.05761
 Alpha virt. eigenvalues --    0.34568   0.38133   0.42660   0.43674   0.46510
 Alpha virt. eigenvalues --    0.52255   0.56784   0.57345   0.60521   0.63688
 Alpha virt. eigenvalues --    0.68768   0.75778   0.84495   0.87680   0.89586

 Mulliken charges and spin densities:
               1          2
     1  O   -0.473657   0.006393
     2  C    0.090503   0.023007
     3  O   -0.035525   0.005566
     4  O   -0.132478   0.070956
     5  C    0.051421   0.763190
     6  O   -0.500264   0.130889
 Sum of Mulliken charges =  -1.00000   1.00000

 Dipole moment (field-independent basis, Debye):
    X=             -0.6000    Y=             -0.6356    Z=              0.0000  Tot=              0.8741
 Quadrupole moment (field-independent basis, Debye-Ang):
   XX=            -37.1605   YY=            -69.0741   ZZ=            -32.9257
   XY=              8.7551   XZ=             -0.0000   YZ=              0.0000

 5941\MP4SDQ=-375.9812736\CCSD=-375.9748645\CCSD(T)=-376.0408526\RMSD=4
 Normal termination of Gaussian 16 at Mon Feb 19 14:34:49 2024.
