 Gaussian 16, Revision A.03,
 Gaussian 16:  ES64L-G16RevA.03 25-Dec-2016

 --------------------
 #p ROCCSD(T)/cc-pVTZ
 --------------------

 -----------
 CO2_CO2_116
 -----------
 Symbolic Z-matrix:
 Charge = -1 Multiplicity = 2

                         Standard orientation:
 ---------------------------------------------------------------------
 Center     Atomic      Atomic             Coordinates (Angstroms)
 Number     Number       Type             X           Y           Z
 ---------------------------------------------------------------------
      1          8           0       -1.744500   -1.841500    0.000000
      2          6           0       -0.581500   -1.841500    0.000000
      3          8           0        0.581500   -1.841500    0.000000
      4          8           0        0.581500    0.678500    0.000000
      5          6           0        0.581500    1.841500    0.000000
      6          8           0        0.581500    3.004500    0.000000
 ---------------------------------------------------------------------

 SCF Done:  E(ROHF) =  -375.254596888     A.U. after   41 cycles
 E2 =    -0.1236785761D+01 EUMP2 =    -0.37649138264973D+03
 CCSD(T)
 CCSD(T)= -0.37653021163D+03

 The electronic state is 2-A'.
 Alpha  occ. eigenvalues --  -20.48875 -20.48078 -20.38164 -20.38123 -11.29758
 Alpha  occ. eigenvalues --  -11.19041  -1.36637  -1.31351  -1.27422  -1.22571
 Alpha  occ. eigenvalues --   -0.64074  -0.58328  -0.57083  -0.55148  -0.53874
 Alpha  occ. eigenvalues --   -0.49270  -0.46092  -0.45600  -0.38150  -0.37769
 Alpha  occ. eigenvalues --   -0.29351  -0.28795   0.13986
 Alpha virt. eigenvalues --    0.32125   0.36025   0.36938   0.42344   0.43047
 Alpha virt. eigenvalues --    0.48403   0.53431   0.53899   0.58677   0.62277
 Alpha virt. eigenvalues --    0.63546   0.72488   0.76719   0.80970   0.84530

 Mulliken charges and spin densities:
               1          2
     1  O   -0.275094  -0.043120
     2  C    0.332925   0.224535
     3  O   -0.218534  -0.040821
     4  O   -0.018066  -0.249626
     5  C   -0.679879   1.324206
     6  O   -0.141352  -0.215174
 Sum of Mulliken charges =  -1.00000   1.00000

 Dipole moment (field-independent basis, Debye):
    X=             -2.3393    Y=             -6.0260    Z=              0.0000  Tot=              6.4641
 Quadrupole moment (field-independent basis, Debye-Ang):
   XX=            -43.6047   YY=            -57.1170   ZZ=            -35.0696
   XY=             -7.1317   XZ=              0.0000   YZ=              0.0000

 SD=-376.4694898\CCSD(T)=-376.5302116\RMSD=1.764e-09\PG=CS [SG(C2O4)]\\
 Normal termination of Gaussian 16 at Tue Feb 20 18:09:57 2024.
