 Gaussian 16, Revision A.03,
 Gaussian 16:  ES64L-G16RevA.03 25-Dec-2016

 --------------------
 #p ROCCSD(T)/cc-pVTZ
 --------------------

 ---------
 CO2_CO2_7
 ---------
 Symbolic Z-matrix:
 Charge = -1 Multiplicity = 2

                         Standard orientation:
 ---------------------------------------------------------------------
 Center     Atomic      Atomic             Coordinates (Angstroms)
 Number     Number       Type             X           Y           Z
 ---------------------------------------------------------------------
      1          8           0        1.233548   -2.355048   -0.000000
      2          6           0        0.411183   -1.532683   -0.000000
      3          8           0       -0.411183   -0.710317    0.000000
      4          8           0       -0.411183    0.369682    0.000000
      5          6           0       -0.411183    1.532683    0.000000
      6          8           0       -0.411183    2.695683    0.000000
 ---------------------------------------------------------------------

 SCF Done:  E(ROHF) =  -374.539071702     A.U. after   22 cycles
 E2 =    -0.1230636045D+01 EUMP2 =    -0.37576970774708D+03
 CCSD(T)
 CCSD(T)= -0.37583253916D+03

 The electronic state is 2-A".
 Alpha  occ. eigenvalues --  -20.54561 -20.51244 -20.39057 -20.29474 -11.19168
 Alpha  occ. eigenvalues --  -11.05208  -1.66736  -1.27754  -1.22765  -1.15557
 Alpha  occ. eigenvalues --   -0.97182  -0.73386  -0.71145  -0.54214  -0.49674
 Alpha  occ. eigenvalues --   -0.46165  -0.43987  -0.37903  -0.35589  -0.29784
 Alpha  occ. eigenvalues --   -0.26673   0.00348   0.05859
 Alpha virt. eigenvalues --    0.33285   0.36637   0.39988   0.45220   0.50175
 Alpha virt. eigenvalues --    0.53947   0.54680   0.57480   0.58469   0.66530
 Alpha virt. eigenvalues --    0.70835   0.78524   0.84097   0.87413   0.90282

 Mulliken charges and spin densities:
               1          2
     1  O   -0.533186   0.008521
     2  C   -0.267070   0.021941
     3  O    0.000830   0.016444
     4  O    0.339483   0.061062
     5  C   -0.088142   0.748319
     6  O   -0.451915   0.143713
 Sum of Mulliken charges =  -1.00000   1.00000

 Dipole moment (field-independent basis, Debye):
    X=             -3.0734    Y=              2.0311    Z=              0.0000  Tot=              3.6839
 Quadrupole moment (field-independent basis, Debye-Ang):
   XX=            -39.0542   YY=            -68.3732   ZZ=            -33.0632
   XY=              9.7214   XZ=             -0.0000   YZ=             -0.0000

 077\MP4SDQ=-375.7696473\CCSD=-375.7683845\CCSD(T)=-375.8325392\RMSD=6.
 Normal termination of Gaussian 16 at Mon Feb 19 12:38:51 2024.
