 Gaussian 16, Revision A.03,
 Gaussian 16:  ES64L-G16RevA.03 25-Dec-2016

 --------------------
 #p ROCCSD(T)/cc-pVTZ
 --------------------

 ---------
 CO2_CO2_9
 ---------
 Symbolic Z-matrix:
 Charge = -1 Multiplicity = 2

                         Standard orientation:
 ---------------------------------------------------------------------
 Center     Atomic      Atomic             Coordinates (Angstroms)
 Number     Number       Type             X           Y           Z
 ---------------------------------------------------------------------
      1          8           0        0.000000    0.000000    2.886000
      2          6           0        0.000000    0.000000    1.723000
      3          8           0        0.000000    0.000000    0.560000
      4          8           0        0.000000    0.000000   -0.560000
      5          6           0        0.000000    0.000000   -1.723000
      6          8           0        0.000000    0.000000   -2.886000
 ---------------------------------------------------------------------

 SCF Done:  E(ROHF) =  -374.389405977     A.U. after   14 cycles
 E2 =    -0.1366782985D+01 EUMP2 =    -0.37575618896272D+03
 CCSD(T)
 CCSD(T)= -0.37575487362D+03

 Unable to determine electronic state:  partially filled degenerate orbitals.
 Alpha  occ. eigenvalues --  -20.61318 -20.61214 -20.33994 -20.33994 -11.16057
 Alpha  occ. eigenvalues --  -11.16055  -1.66515  -1.30159  -1.21461  -1.19933
 Alpha  occ. eigenvalues --   -1.02862  -0.75867  -0.74743  -0.49692  -0.49428
 Alpha  occ. eigenvalues --   -0.49124  -0.48255  -0.38560  -0.37647  -0.31122
 Alpha  occ. eigenvalues --   -0.30053   0.10658   0.11587
 Alpha virt. eigenvalues --    0.31872   0.33298   0.35682   0.37423   0.46810
 Alpha virt. eigenvalues --    0.48116   0.54905   0.56051   0.58768   0.60781
 Alpha virt. eigenvalues --    0.62086   0.70753   0.85263   0.85886   0.89132

 Mulliken charges and spin densities:
               1          2
     1  O   -0.516855   0.095858
     2  C   -0.229419   0.391082
     3  O    0.246273   0.013060
     4  O    0.246273   0.013060
     5  C   -0.229419   0.391082
     6  O   -0.516855   0.095858
 Sum of Mulliken charges =  -1.00000   1.00000

 Dipole moment (field-independent basis, Debye):
    X=             -0.0000    Y=             -0.0000    Z=              0.0000  Tot=              0.0000
 Quadrupole moment (field-independent basis, Debye-Ang):
   XX=            -33.7892   YY=            -36.2356   ZZ=            -81.8334
   XY=              0.0000   XZ=              0.0000   YZ=              0.0000

 Normal termination of Gaussian 16 at Mon Feb 19 12:52:21 2024.
