 Gaussian 16, Revision A.03,
 Gaussian 16:  ES64L-G16RevA.03 25-Dec-2016

 --------------------
 #p ROCCSD(T)/cc-pVTZ
 --------------------

 ----------
 CO2_CO2_92
 ----------
 Symbolic Z-matrix:
 Charge = -1 Multiplicity = 2

                         Standard orientation:
 ---------------------------------------------------------------------
 Center     Atomic      Atomic             Coordinates (Angstroms)
 Number     Number       Type             X           Y           Z
 ---------------------------------------------------------------------
      1          8           0       -1.744500   -1.681500    0.000000
      2          6           0       -0.581500   -1.681500    0.000000
      3          8           0        0.581500   -1.681500    0.000000
      4          8           0        0.581500    0.518500    0.000000
      5          6           0        0.581500    1.681500    0.000000
      6          8           0        0.581500    2.844500    0.000000
 ---------------------------------------------------------------------

 SCF Done:  E(ROHF) =  -375.240873874     A.U. after   36 cycles
 E2 =    -0.1239995053D+01 EUMP2 =    -0.37648086892630D+03
 CCSD(T)
 CCSD(T)= -0.37651925006D+03

 The electronic state is 2-A'.
 Alpha  occ. eigenvalues --  -20.47647 -20.46360 -20.38301 -20.37979 -11.28402
 Alpha  occ. eigenvalues --  -11.18971  -1.35467  -1.30197  -1.27484  -1.22660
 Alpha  occ. eigenvalues --   -0.62985  -0.58934  -0.56797  -0.53962  -0.53084
 Alpha  occ. eigenvalues --   -0.48452  -0.46221  -0.45720  -0.36919  -0.35715
 Alpha  occ. eigenvalues --   -0.29573  -0.28919   0.13688
 Alpha virt. eigenvalues --    0.33435   0.37094   0.38110   0.42111   0.42983
 Alpha virt. eigenvalues --    0.49208   0.54051   0.54550   0.58828   0.62638
 Alpha virt. eigenvalues --    0.64573   0.72697   0.77421   0.81626   0.85698

 Mulliken charges and spin densities:
               1          2
     1  O   -0.281858  -0.046598
     2  C    0.309725   0.245675
     3  O   -0.215623  -0.042956
     4  O    0.002050  -0.249561
     5  C   -0.660506   1.301084
     6  O   -0.153787  -0.207645
 Sum of Mulliken charges =  -1.00000   1.00000

 Dipole moment (field-independent basis, Debye):
    X=             -2.1582    Y=             -5.2485    Z=              0.0000  Tot=              5.6749
 Quadrupole moment (field-independent basis, Debye-Ang):
   XX=            -43.7836   YY=            -54.8249   ZZ=            -35.0703
   XY=             -6.6507   XZ=              0.0000   YZ=              0.0000

 =-376.4581201\CCSD(T)=-376.5192501\RMSD=4.986e-09\PG=CS [SG(C2O4)]\\@
 Normal termination of Gaussian 16 at Tue Feb 20 14:05:11 2024.
