 Gaussian 16, Revision A.03,
 Gaussian 16:  ES64L-G16RevA.03 25-Dec-2016

 --------------------
 #p ROCCSD(T)/cc-pVTZ
 --------------------

 -----------
 CO2_CO2_210
 -----------
 Symbolic Z-matrix:
 Charge = -1 Multiplicity = 2

                         Standard orientation:
 ---------------------------------------------------------------------
 Center     Atomic      Atomic             Coordinates (Angstroms)
 Number     Number       Type             X           Y           Z
 ---------------------------------------------------------------------
      1          8           0        0.000000    0.000000    4.226000
      2          6           0        0.000000    0.000000    3.063000
      3          8           0        0.000000    0.000000    1.900000
      4          8           0        0.000000    0.000000   -1.900000
      5          6           0        0.000000    0.000000   -3.063000
      6          8           0        0.000000    0.000000   -4.226000
 ---------------------------------------------------------------------

 SCF Done:  E(ROHF) =  -375.219813906     A.U. after   12 cycles
 E2 =    -0.1232798546D+01 EUMP2 =    -0.37645261245217D+03
 CCSD(T)
 CCSD(T)= -0.37648865153D+03

 Unable to determine electronic state:  an orbital has unidentified symmetry.
 Alpha  occ. eigenvalues --  -20.42047 -20.42047 -20.41786 -20.41786 -11.20267
 Alpha  occ. eigenvalues --  -11.20267  -1.30779  -1.30773  -1.25322  -1.25310
 Alpha  occ. eigenvalues --   -0.59300  -0.59118  -0.52720  -0.52453  -0.51972
 Alpha  occ. eigenvalues --   -0.51927  -0.49405  -0.49390  -0.36443  -0.36159
 Alpha  occ. eigenvalues --   -0.32866  -0.32827   0.17745
 Alpha virt. eigenvalues --    0.26655   0.34072   0.34624   0.40645   0.40716
 Alpha virt. eigenvalues --    0.48467   0.52491   0.56596   0.56666   0.58286
 Alpha virt. eigenvalues --    0.58368   0.74597   0.74718   0.78563   0.85625

 Mulliken charges and spin densities:
               1          2
     1  O   -0.409761   0.057867
     2  C    0.263256   0.378327
     3  O   -0.353495   0.063806
     4  O   -0.353495   0.063806
     5  C    0.263256   0.378327
     6  O   -0.409761   0.057867
 Sum of Mulliken charges =  -1.00000   1.00000

 Dipole moment (field-independent basis, Debye):
    X=             -0.0000    Y=              0.0000    Z=              0.0000  Tot=              0.0000
 Quadrupole moment (field-independent basis, Debye-Ang):
   XX=            -33.8531   YY=            -31.6420   ZZ=            -94.8759
   XY=              0.0000   XZ=              0.0000   YZ=             -0.0000

 17\CCSD(T)=-376.4886515\RMSD=2.273e-09\PG=D*H [C*(O1C1O1.O1C1O1)]\\@
 Normal termination of Gaussian 16 at Tue Feb 20 18:06:24 2024.
