 Gaussian 16, Revision A.03,
 Gaussian 16:  ES64L-G16RevA.03 25-Dec-2016

 --------------------
 #p ROCCSD(T)/cc-pVTZ
 --------------------

 ----------
 CO2_CO2_81
 ----------
 Symbolic Z-matrix:
 Charge = -1 Multiplicity = 2

                         Standard orientation:
 ---------------------------------------------------------------------
 Center     Atomic      Atomic             Coordinates (Angstroms)
 Number     Number       Type             X           Y           Z
 ---------------------------------------------------------------------
      1          8           0        0.000000    0.000000    3.366000
      2          6           0        0.000000    0.000000    2.203000
      3          8           0        0.000000    0.000000    1.040000
      4          8           0        0.000000    0.000000   -1.040000
      5          6           0        0.000000    0.000000   -2.203000
      6          8           0        0.000000    0.000000   -3.366000
 ---------------------------------------------------------------------

 SCF Done:  E(ROHF) =  -375.197602134     A.U. after   12 cycles
 E2 =    -0.1240625644D+01 EUMP2 =    -0.37643822777845D+03
 CCSD(T)
 CCSD(T)= -0.37647473845D+03

 Unable to determine electronic state:  an orbital has unidentified symmetry.
 Alpha  occ. eigenvalues --  -20.39686 -20.39686 -20.39018 -20.39018 -11.17271
 Alpha  occ. eigenvalues --  -11.17270  -1.28700  -1.28171  -1.23378  -1.22352
 Alpha  occ. eigenvalues --   -0.61229  -0.55386  -0.52780  -0.50015  -0.49168
 Alpha  occ. eigenvalues --   -0.47419  -0.46654  -0.43797  -0.34992  -0.32322
 Alpha  occ. eigenvalues --   -0.31356  -0.29490   0.17156
 Alpha virt. eigenvalues --    0.31968   0.35546   0.37056   0.42034   0.43655
 Alpha virt. eigenvalues --    0.50682   0.56724   0.57470   0.59070   0.59076
 Alpha virt. eigenvalues --    0.61262   0.74712   0.77397   0.86824   0.87214

 Mulliken charges and spin densities:
               1          2
     1  O   -0.458522   0.057786
     2  C    0.235270   0.372190
     3  O   -0.276748   0.070024
     4  O   -0.276748   0.070024
     5  C    0.235270   0.372190
     6  O   -0.458522   0.057786
 Sum of Mulliken charges =  -1.00000   1.00000

 Dipole moment (field-independent basis, Debye):
    X=             -0.0000    Y=             -0.0000    Z=              0.0000  Tot=              0.0000
 Quadrupole moment (field-independent basis, Debye-Ang):
   XX=            -31.6581   YY=            -33.8245   ZZ=            -75.2254
   XY=              0.0000   XZ=              0.0000   YZ=              0.0000

 126\CCSD(T)=-376.4747384\RMSD=7.706e-09\PG=D*H [C*(O1C1O1.O1C1O1)]\\@
 Normal termination of Gaussian 16 at Tue Feb 20 12:05:49 2024.
