 Gaussian 16, Revision A.03,
 Gaussian 16:  ES64L-G16RevA.03 25-Dec-2016

 --------------------
 #p ROCCSD(T)/cc-pVTZ
 --------------------

 ----------
 CO2_CO2_72
 ----------
 Symbolic Z-matrix:
 Charge = -1 Multiplicity = 2

                         Standard orientation:
 ---------------------------------------------------------------------
 Center     Atomic      Atomic             Coordinates (Angstroms)
 Number     Number       Type             X           Y           Z
 ---------------------------------------------------------------------
      1          8           0        0.000000    0.000000    3.306000
      2          6           0        0.000000    0.000000    2.143000
      3          8           0        0.000000    0.000000    0.980000
      4          8           0        0.000000    0.000000   -0.980000
      5          6           0        0.000000    0.000000   -2.143000
      6          8           0        0.000000    0.000000   -3.306000
 ---------------------------------------------------------------------

 SCF Done:  E(ROHF) =  -375.183311256     A.U. after   12 cycles
 E2 =    -0.1243023469D+01 EUMP2 =    -0.37642633472444D+03
 CCSD(T)
 CCSD(T)= -0.37646251361D+03

 Unable to determine electronic state:  an orbital has unidentified symmetry.
 Alpha  occ. eigenvalues --  -20.39390 -20.39390 -20.38546 -20.38545 -11.16818
 Alpha  occ. eigenvalues --  -11.16818  -1.28575  -1.27816  -1.23309  -1.21885
 Alpha  occ. eigenvalues --   -0.62621  -0.54960  -0.52800  -0.49891  -0.48791
 Alpha  occ. eigenvalues --   -0.47289  -0.46263  -0.41508  -0.35022  -0.31693
 Alpha  occ. eigenvalues --   -0.31383  -0.28936   0.16975
 Alpha virt. eigenvalues --    0.32686   0.35647   0.37366   0.42086   0.44067
 Alpha virt. eigenvalues --    0.50716   0.57037   0.57474   0.59082   0.59372
 Alpha virt. eigenvalues --    0.61649   0.74764   0.77976   0.87077   0.87326

 Mulliken charges and spin densities:
               1          2
     1  O   -0.465153   0.058039
     2  C    0.235844   0.371963
     3  O   -0.270691   0.069997
     4  O   -0.270691   0.069997
     5  C    0.235844   0.371963
     6  O   -0.465153   0.058039
 Sum of Mulliken charges =  -1.00000   1.00000

 Dipole moment (field-independent basis, Debye):
    X=             -0.0000    Y=             -0.0000    Z=             -0.0000  Tot=              0.0000
 Quadrupole moment (field-independent basis, Debye-Ang):
   XX=            -33.8084   YY=            -31.6506   ZZ=            -74.3284
   XY=              0.0000   XZ=              0.0000   YZ=              0.0000

 115\CCSD(T)=-376.4625136\RMSD=9.754e-09\PG=D*H [C*(O1C1O1.O1C1O1)]\\@
 Normal termination of Gaussian 16 at Tue Feb 20 10:32:29 2024.
