 Gaussian 16, Revision A.03,
 Gaussian 16:  ES64L-G16RevA.03 25-Dec-2016

 --------------------
 #p ROCCSD(T)/cc-pVTZ
 --------------------

 -----------
 CO2_CO2_172
 -----------
 Symbolic Z-matrix:
 Charge = -1 Multiplicity = 2

                         Standard orientation:
 ---------------------------------------------------------------------
 Center     Atomic      Atomic             Coordinates (Angstroms)
 Number     Number       Type             X           Y           Z
 ---------------------------------------------------------------------
      1          8           0        1.233548   -3.455048    0.000000
      2          6           0        0.411183   -2.632683    0.000000
      3          8           0       -0.411183   -1.810317    0.000000
      4          8           0       -0.411183    1.469682    0.000000
      5          6           0       -0.411183    2.632682    0.000000
      6          8           0       -0.411183    3.795683    0.000000
 ---------------------------------------------------------------------

 SCF Done:  E(ROHF) =  -375.219994922     A.U. after   15 cycles
 E2 =    -0.1233079251D+01 EUMP2 =    -0.37645307417289D+03
 CCSD(T)
 CCSD(T)= -0.37648890301D+03

 The electronic state is 2-A".
 Alpha  occ. eigenvalues --  -20.41775 -20.41473 -20.41101 -20.40842 -11.20002
 Alpha  occ. eigenvalues --  -11.19222  -1.30469  -1.29834  -1.24996  -1.24365
 Alpha  occ. eigenvalues --   -0.58935  -0.58267  -0.52354  -0.51588  -0.51540
 Alpha  occ. eigenvalues --   -0.51072  -0.49088  -0.48424  -0.35974  -0.35354
 Alpha  occ. eigenvalues --   -0.32510  -0.31894   0.17682
 Alpha virt. eigenvalues --    0.27933   0.34422   0.35471   0.40997   0.41627
 Alpha virt. eigenvalues --    0.49143   0.53597   0.56889   0.57478   0.58492
 Alpha virt. eigenvalues --    0.59734   0.74938   0.75561   0.80189   0.84629

 Mulliken charges and spin densities:
               1          2
     1  O   -0.417130   0.059246
     2  C    0.261261   0.385059
     3  O   -0.353095   0.064888
     4  O   -0.338641   0.063479
     5  C    0.262546   0.371161
     6  O   -0.414941   0.056166
 Sum of Mulliken charges =  -1.00000   1.00000

 Dipole moment (field-independent basis, Debye):
    X=             -0.1734    Y=              0.1615    Z=              0.0000  Tot=              0.2370
 Quadrupole moment (field-independent basis, Debye-Ang):
   XX=            -36.3573   YY=            -79.1764   ZZ=            -33.8505
   XY=              9.5586   XZ=             -0.0000   YZ=             -0.0000

 742\MP4SDQ=-376.4383375\CCSD=-376.433561\CCSD(T)=-376.488903\RMSD=8.67
 Normal termination of Gaussian 16 at Tue Feb 20 12:34:10 2024.
