 Gaussian 16, Revision A.03,
 Gaussian 16:  ES64L-G16RevA.03 25-Dec-2016

 --------------------
 #p ROCCSD(T)/cc-pVTZ
 --------------------

 ----------
 CO2_CO2_45
 ----------
 Symbolic Z-matrix:
 Charge = -1 Multiplicity = 2

                         Standard orientation:
 ---------------------------------------------------------------------
 Center     Atomic      Atomic             Coordinates (Angstroms)
 Number     Number       Type             X           Y           Z
 ---------------------------------------------------------------------
      1          8           0        0.000000    0.000000    3.126000
      2          6           0        0.000000    0.000000    1.963000
      3          8           0        0.000000    0.000000    0.800000
      4          8           0        0.000000    0.000000   -0.800000
      5          6           0        0.000000    0.000000   -1.963000
      6          8           0        0.000000    0.000000   -3.126000
 ---------------------------------------------------------------------

 SCF Done:  E(ROHF) =  -375.066941728     A.U. after   13 cycles
 E2 =    -0.1258307964D+01 EUMP2 =    -0.37632524969254D+03
 CCSD(T)
 CCSD(T)= -0.37635888807D+03

 Unable to determine electronic state:  an orbital has unidentified symmetry.
 Alpha  occ. eigenvalues --  -20.38277 -20.38277 -20.36727 -20.36724 -11.14908
 Alpha  occ. eigenvalues --  -11.14908  -1.29244  -1.26470  -1.23494  -1.19954
 Alpha  occ. eigenvalues --   -0.70434  -0.53582  -0.52409  -0.50005  -0.47409
 Alpha  occ. eigenvalues --   -0.47354  -0.44727  -0.35778  -0.32142  -0.29531
 Alpha  occ. eigenvalues --   -0.29115  -0.26591   0.16037
 Alpha virt. eigenvalues --    0.35478   0.35924   0.38516   0.41909   0.45650
 Alpha virt. eigenvalues --    0.50359   0.57509   0.57971   0.59217   0.60470
 Alpha virt. eigenvalues --    0.63112   0.74930   0.80361   0.87036   0.88841

 Mulliken charges and spin densities:
               1          2
     1  O   -0.487858   0.059592
     2  C    0.230213   0.376195
     3  O   -0.242355   0.064213
     4  O   -0.242355   0.064213
     5  C    0.230213   0.376195
     6  O   -0.487858   0.059592
 Sum of Mulliken charges =  -1.00000   1.00000

 Dipole moment (field-independent basis, Debye):
    X=             -0.0000    Y=              0.0000    Z=              0.0000  Tot=              0.0000
 Quadrupole moment (field-independent basis, Debye-Ang):
   XX=            -31.5930   YY=            -33.7478   ZZ=            -72.2815
   XY=              0.0000   XZ=              0.0000   YZ=              0.0000

 83\CCSD(T)=-376.3588881\RMSD=8.149e-09\PG=D*H [C*(O1C1O1.O1C1O1)]\\@
 Normal termination of Gaussian 16 at Mon Feb 19 18:30:28 2024.
