 Gaussian 16, Revision A.03,
 Gaussian 16:  ES64L-G16RevA.03 25-Dec-2016

 --------------------
 #p ROCCSD(T)/cc-pVTZ
 --------------------

 -----------
 CO2_CO2_228
 -----------
 Symbolic Z-matrix:
 Charge = -1 Multiplicity = 2

                         Standard orientation:
 ---------------------------------------------------------------------
 Center     Atomic      Atomic             Coordinates (Angstroms)
 Number     Number       Type             X           Y           Z
 ---------------------------------------------------------------------
      1          8           0        0.000000    0.000000    4.346000
      2          6           0        0.000000    0.000000    3.183000
      3          8           0        0.000000    0.000000    2.020000
      4          8           0        0.000000    0.000000   -2.020000
      5          6           0        0.000000    0.000000   -3.183000
      6          8           0        0.000000    0.000000   -4.346000
 ---------------------------------------------------------------------

 SCF Done:  E(ROHF) =  -375.220007638     A.U. after   12 cycles
 E2 =    -0.1232629288D+01 EUMP2 =    -0.37645263692585D+03
 CCSD(T)
 CCSD(T)= -0.37648853712D+03

 Unable to determine electronic state:  an orbital has unidentified symmetry.
 Alpha  occ. eigenvalues --  -20.42242 -20.42242 -20.41993 -20.41993 -11.20481
 Alpha  occ. eigenvalues --  -11.20481  -1.30979  -1.30976  -1.25527  -1.25520
 Alpha  occ. eigenvalues --   -0.59479  -0.59363  -0.52895  -0.52734  -0.52169
 Alpha  occ. eigenvalues --   -0.52135  -0.49603  -0.49594  -0.36632  -0.36396
 Alpha  occ. eigenvalues --   -0.33066  -0.33044   0.17733
 Alpha virt. eigenvalues --    0.26259   0.33929   0.34412   0.40468   0.40507
 Alpha virt. eigenvalues --    0.48570   0.51968   0.56432   0.56475   0.58121
 Alpha virt. eigenvalues --    0.58167   0.74447   0.74463   0.79857   0.85329

 Mulliken charges and spin densities:
               1          2
     1  O   -0.407606   0.058045
     2  C    0.264771   0.378334
     3  O   -0.357165   0.063621
     4  O   -0.357165   0.063621
     5  C    0.264771   0.378334
     6  O   -0.407606   0.058045
 Sum of Mulliken charges =  -1.00000   1.00000

 Dipole moment (field-independent basis, Debye):
    X=             -0.0000    Y=             -0.0000    Z=             -0.0000  Tot=              0.0000
 Quadrupole moment (field-independent basis, Debye-Ang):
   XX=            -33.8478   YY=            -31.6388   ZZ=            -98.3331
   XY=              0.0000   XZ=              0.0000   YZ=             -0.0000

 5308\CCSD(T)=-376.4885371\RMSD=2.203e-09\PG=D*H [C*(O1C1O1.O1C1O1)]\\@
 Normal termination of Gaussian 16 at Tue Feb 20 09:25:50 2024.
