 Gaussian 16, Revision A.03,
 Gaussian 16:  ES64L-G16RevA.03 25-Dec-2016

 --------------------
 #p ROCCSD(T)/cc-pVTZ
 --------------------

 -----------
 CO2_CO2_163
 -----------
 Symbolic Z-matrix:
 Charge = -1 Multiplicity = 2

                         Standard orientation:
 ---------------------------------------------------------------------
 Center     Atomic      Atomic             Coordinates (Angstroms)
 Number     Number       Type             X           Y           Z
 ---------------------------------------------------------------------
      1          8           0        1.233548   -3.395048    0.000000
      2          6           0        0.411183   -2.572683    0.000000
      3          8           0       -0.411183   -1.750317    0.000000
      4          8           0       -0.411183    1.409682   -0.000000
      5          6           0       -0.411183    2.572683   -0.000000
      6          8           0       -0.411183    3.735683   -0.000000
 ---------------------------------------------------------------------

 SCF Done:  E(ROHF) =  -375.219839360     A.U. after   15 cycles
 E2 =    -0.1233304524D+01 EUMP2 =    -0.37645314388408D+03
 CCSD(T)
 CCSD(T)= -0.37648929736D+03

 The electronic state is 2-A".
 Alpha  occ. eigenvalues --  -20.41660 -20.41347 -20.40947 -20.40683 -11.19872
 Alpha  occ. eigenvalues --  -11.19043  -1.30348  -1.29677  -1.24871  -1.24202
 Alpha  occ. eigenvalues --   -0.58847  -0.58083  -0.52279  -0.51464  -0.51303
 Alpha  occ. eigenvalues --   -0.50918  -0.48968  -0.48259  -0.35857  -0.35172
 Alpha  occ. eigenvalues --   -0.32386  -0.31726   0.17675
 Alpha virt. eigenvalues --    0.28216   0.34525   0.35632   0.41110   0.41773
 Alpha virt. eigenvalues --    0.49482   0.53757   0.56960   0.57628   0.58553
 Alpha virt. eigenvalues --    0.60002   0.74978   0.75720   0.80845   0.84521

 Mulliken charges and spin densities:
               1          2
     1  O   -0.419185   0.059297
     2  C    0.259917   0.385244
     3  O   -0.350240   0.065174
     4  O   -0.334236   0.063647
     5  C    0.261032   0.370651
     6  O   -0.417287   0.055985
 Sum of Mulliken charges =  -1.00000   1.00000

 Dipole moment (field-independent basis, Debye):
    X=             -0.1841    Y=              0.1675    Z=             -0.0000  Tot=              0.2490
 Quadrupole moment (field-independent basis, Debye-Ang):
   XX=            -36.3692   YY=            -77.7643   ZZ=            -33.8520
   XY=              9.4657   XZ=             -0.0000   YZ=              0.0000

 31439\MP4SDQ=-376.4384607\CCSD=-376.4331504\CCSD(T)=-376.4892974\RMSD=
 Normal termination of Gaussian 16 at Tue Feb 20 11:08:29 2024.
