 Gaussian 16, Revision A.03,
 Gaussian 16:  ES64L-G16RevA.03 25-Dec-2016

 --------------------
 #p ROCCSD(T)/cc-pVTZ
 --------------------

 -----------
 CO2_CO2_291
 -----------
 Symbolic Z-matrix:
 Charge = -1 Multiplicity = 2

                         Standard orientation:
 ---------------------------------------------------------------------
 Center     Atomic      Atomic             Coordinates (Angstroms)
 Number     Number       Type             X           Y           Z
 ---------------------------------------------------------------------
      1          8           0        0.000000    0.000000    4.766000
      2          6           0        0.000000    0.000000    3.603000
      3          8           0        0.000000    0.000000    2.440000
      4          8           0        0.000000    0.000000   -2.440000
      5          6           0        0.000000    0.000000   -3.603000
      6          8           0        0.000000    0.000000   -4.766000
 ---------------------------------------------------------------------

 SCF Done:  E(ROHF) =  -375.220696834     A.U. after   12 cycles
 E2 =    -0.1232379679D+01 EUMP2 =    -0.37645307651300D+03
 CCSD(T)
 CCSD(T)= -0.37648859769D+03

 Unable to determine electronic state:  an orbital has unidentified symmetry.
 Alpha  occ. eigenvalues --  -20.42806 -20.42806 -20.42608 -20.42607 -11.21092
 Alpha  occ. eigenvalues --  -11.21092  -1.31566  -1.31565  -1.26125  -1.26123
 Alpha  occ. eigenvalues --   -0.60048  -0.60020  -0.53471  -0.53448  -0.52750
 Alpha  occ. eigenvalues --   -0.52732  -0.50185  -0.50184  -0.37194  -0.37051
 Alpha  occ. eigenvalues --   -0.33660  -0.33658   0.17677
 Alpha virt. eigenvalues --    0.25136   0.33586   0.33739   0.39921   0.39924
 Alpha virt. eigenvalues --    0.49278   0.50240   0.55920   0.55930   0.57600
 Alpha virt. eigenvalues --    0.57606   0.73875   0.73929   0.82479   0.83574

 Mulliken charges and spin densities:
               1          2
     1  O   -0.403061   0.058611
     2  C    0.268801   0.378377
     3  O   -0.365740   0.063012
     4  O   -0.365740   0.063012
     5  C    0.268801   0.378377
     6  O   -0.403061   0.058611
 Sum of Mulliken charges =  -1.00000   1.00000

 Dipole moment (field-independent basis, Debye):
    X=             -0.0000    Y=              0.0000    Z=              0.0000  Tot=              0.0000
 Quadrupole moment (field-independent basis, Debye-Ang):
   XX=            -31.6303   YY=            -33.8343   ZZ=           -111.6020
   XY=              0.0000   XZ=              0.0000   YZ=             -0.0000

 6944\CCSD(T)=-376.4885977\RMSD=2.017e-09\PG=D*H [C*(O1C1O1.O1C1O1)]\\@
 Normal termination of Gaussian 16 at Tue Feb 20 17:42:58 2024.
