 Gaussian 16, Revision A.03,
 Gaussian 16:  ES64L-G16RevA.03 25-Dec-2016

 --------------------
 #p ROCCSD(T)/cc-pVTZ
 --------------------

 -----------
 CO2_CO2_216
 -----------
 Symbolic Z-matrix:
 Charge = -1 Multiplicity = 2

                         Standard orientation:
 ---------------------------------------------------------------------
 Center     Atomic      Atomic             Coordinates (Angstroms)
 Number     Number       Type             X           Y           Z
 ---------------------------------------------------------------------
      1          8           0        0.000000    0.000000    4.266000
      2          6           0        0.000000    0.000000    3.103000
      3          8           0        0.000000    0.000000    1.940000
      4          8           0        0.000000    0.000000   -1.940000
      5          6           0        0.000000    0.000000   -3.103000
      6          8           0        0.000000    0.000000   -4.266000
 ---------------------------------------------------------------------

 SCF Done:  E(ROHF) =  -375.219877492     A.U. after   12 cycles
 E2 =    -0.1232735603D+01 EUMP2 =    -0.37645261309465D+03
 CCSD(T)
 CCSD(T)= -0.37648860388D+03

 Unable to determine electronic state:  an orbital has unidentified symmetry.
 Alpha  occ. eigenvalues --  -20.42114 -20.42114 -20.41857 -20.41857 -11.20341
 Alpha  occ. eigenvalues --  -11.20341  -1.30847  -1.30843  -1.25392  -1.25382
 Alpha  occ. eigenvalues --   -0.59360  -0.59204  -0.52778  -0.52552  -0.52039
 Alpha  occ. eigenvalues --   -0.51998  -0.49473  -0.49460  -0.36507  -0.36241
 Alpha  occ. eigenvalues --   -0.32935  -0.32902   0.17742
 Alpha virt. eigenvalues --    0.26518   0.34019   0.34553   0.40585   0.40644
 Alpha virt. eigenvalues --    0.48477   0.52322   0.56541   0.56600   0.58230
 Alpha virt. eigenvalues --    0.58298   0.74554   0.74618   0.78983   0.85543

 Mulliken charges and spin densities:
               1          2
     1  O   -0.408964   0.057926
     2  C    0.263786   0.378332
     3  O   -0.354822   0.063742
     4  O   -0.354822   0.063742
     5  C    0.263786   0.378332
     6  O   -0.408964   0.057926
 Sum of Mulliken charges =  -1.00000   1.00000

 Dipole moment (field-independent basis, Debye):
    X=             -0.0000    Y=             -0.0000    Z=              0.0000  Tot=              0.0000
 Quadrupole moment (field-independent basis, Debye-Ang):
   XX=            -31.6409   YY=            -33.8513   ZZ=            -96.0114
   XY=              0.0000   XZ=              0.0000   YZ=             -0.0000

 5634\CCSD(T)=-376.4886039\RMSD=2.248e-09\PG=D*H [C*(O1C1O1.O1C1O1)]\\@
 Normal termination of Gaussian 16 at Tue Feb 20 18:51:51 2024.
