 Gaussian 16, Revision A.03,
 Gaussian 16:  ES64L-G16RevA.03 25-Dec-2016

 --------------------
 #p ROCCSD(T)/cc-pVTZ
 --------------------

 ----------
 CO2_CO2_78
 ----------
 Symbolic Z-matrix:
 Charge = -1 Multiplicity = 2

                         Standard orientation:
 ---------------------------------------------------------------------
 Center     Atomic      Atomic             Coordinates (Angstroms)
 Number     Number       Type             X           Y           Z
 ---------------------------------------------------------------------
      1          8           0        0.000000    0.000000    3.346000
      2          6           0        0.000000    0.000000    2.183000
      3          8           0        0.000000    0.000000    1.020000
      4          8           0        0.000000    0.000000   -1.020000
      5          6           0        0.000000    0.000000   -2.183000
      6          8           0        0.000000    0.000000   -3.346000
 ---------------------------------------------------------------------

 SCF Done:  E(ROHF) =  -375.193574314     A.U. after   12 cycles
 E2 =    -0.1241341574D+01 EUMP2 =    -0.37643491588811D+03
 CCSD(T)
 CCSD(T)= -0.37647133338D+03

 Unable to determine electronic state:  an orbital has unidentified symmetry.
 Alpha  occ. eigenvalues --  -20.39591 -20.39591 -20.38870 -20.38869 -11.17127
 Alpha  occ. eigenvalues --  -11.17127  -1.28653  -1.28057  -1.23349  -1.22205
 Alpha  occ. eigenvalues --   -0.61640  -0.55246  -0.52793  -0.49970  -0.49047
 Alpha  occ. eigenvalues --   -0.47372  -0.46529  -0.43098  -0.34995  -0.32123
 Alpha  occ. eigenvalues --   -0.31357  -0.29316   0.17101
 Alpha virt. eigenvalues --    0.32198   0.35579   0.37156   0.42055   0.43787
 Alpha virt. eigenvalues --    0.50698   0.56830   0.57471   0.59073   0.59171
 Alpha virt. eigenvalues --    0.61386   0.74726   0.77581   0.86898   0.87258

 Mulliken charges and spin densities:
               1          2
     1  O   -0.460644   0.057861
     2  C    0.235383   0.372065
     3  O   -0.274740   0.070074
     4  O   -0.274740   0.070074
     5  C    0.235383   0.372065
     6  O   -0.460644   0.057861
 Sum of Mulliken charges =  -1.00000   1.00000

 Dipole moment (field-independent basis, Debye):
    X=             -0.0000    Y=              0.0000    Z=              0.0000  Tot=              0.0000
 Quadrupole moment (field-independent basis, Debye-Ang):
   XX=            -31.6561   YY=            -33.8194   ZZ=            -74.9162
   XY=              0.0000   XZ=              0.0000   YZ=              0.0000

 252\CCSD(T)=-376.4713334\RMSD=8.309e-09\PG=D*H [C*(O1C1O1.O1C1O1)]\\@
 Normal termination of Gaussian 16 at Tue Feb 20 11:34:44 2024.
