 Gaussian 16, Revision A.03,
 Gaussian 16:  ES64L-G16RevA.03 25-Dec-2016

 --------------------
 #p ROCCSD(T)/cc-pVTZ
 --------------------

 -----------
 CO2_CO2_178
 -----------
 Symbolic Z-matrix:
 Charge = -1 Multiplicity = 2

                         Standard orientation:
 ---------------------------------------------------------------------
 Center     Atomic      Atomic             Coordinates (Angstroms)
 Number     Number       Type             X           Y           Z
 ---------------------------------------------------------------------
      1          8           0        1.233548   -3.495048    0.000000
      2          6           0        0.411183   -2.672683    0.000000
      3          8           0       -0.411183   -1.850317   -0.000000
      4          8           0       -0.411183    1.509683   -0.000000
      5          6           0       -0.411183    2.672683   -0.000000
      6          8           0       -0.411183    3.835682   -0.000000
 ---------------------------------------------------------------------

 SCF Done:  E(ROHF) =  -375.220080932     A.U. after   15 cycles
 E2 =    -0.1232950198D+01 EUMP2 =    -0.37645303113043D+03
 CCSD(T)
 CCSD(T)= -0.37648865996D+03

 The electronic state is 2-A".
 Alpha  occ. eigenvalues --  -20.41850 -20.41553 -20.41197 -20.40942 -11.20085
 Alpha  occ. eigenvalues --  -11.19334  -1.30547  -1.29933  -1.25077  -1.24467
 Alpha  occ. eigenvalues --   -0.58999  -0.58381  -0.52411  -0.51681  -0.51668
 Alpha  occ. eigenvalues --   -0.51170  -0.49166  -0.48527  -0.36051  -0.35467
 Alpha  occ. eigenvalues --   -0.32591  -0.31998   0.17684
 Alpha virt. eigenvalues --    0.27755   0.34355   0.35370   0.40923   0.41535
 Alpha virt. eigenvalues --    0.48937   0.53486   0.56838   0.57385   0.58448
 Alpha virt. eigenvalues --    0.59573   0.74898   0.75452   0.79947   0.84694

 Mulliken charges and spin densities:
               1          2
     1  O   -0.415858   0.059226
     2  C    0.262081   0.384939
     3  O   -0.354884   0.064730
     4  O   -0.341228   0.063386
     5  C    0.263422   0.371437
     6  O   -0.413533   0.056282
 Sum of Mulliken charges =  -1.00000   1.00000

 Dipole moment (field-independent basis, Debye):
    X=             -0.1669    Y=              0.1586    Z=             -0.0000  Tot=              0.2303
 Quadrupole moment (field-independent basis, Debye-Ang):
   XX=            -36.3502   YY=            -80.1406   ZZ=            -33.8494
   XY=              9.6217   XZ=              0.0000   YZ=              0.0000

 30311\MP4SDQ=-376.4382577\CCSD=-376.433851\CCSD(T)=-376.48866\RMSD=8.2
 Normal termination of Gaussian 16 at Tue Feb 20 13:32:30 2024.
