 Gaussian 16, Revision A.03,
 Gaussian 16:  ES64L-G16RevA.03 25-Dec-2016

 --------------------
 #p ROCCSD(T)/cc-pVTZ
 --------------------

 -----------
 CO2_CO2_294
 -----------
 Symbolic Z-matrix:
 Charge = -1 Multiplicity = 2

                         Standard orientation:
 ---------------------------------------------------------------------
 Center     Atomic      Atomic             Coordinates (Angstroms)
 Number     Number       Type             X           Y           Z
 ---------------------------------------------------------------------
      1          8           0        0.000000    0.000000    4.786000
      2          6           0        0.000000    0.000000    3.623000
      3          8           0        0.000000    0.000000    2.460000
      4          8           0        0.000000    0.000000   -2.460000
      5          6           0        0.000000    0.000000   -3.623000
      6          8           0        0.000000    0.000000   -4.786000
 ---------------------------------------------------------------------

 SCF Done:  E(ROHF) =  -375.220727124     A.U. after   12 cycles
 E2 =    -0.1232376111D+01 EUMP2 =    -0.37645310323475D+03
 CCSD(T)
 CCSD(T)= -0.37648860913D+03

 Unable to determine electronic state:  an orbital has unidentified symmetry.
 Alpha  occ. eigenvalues --  -20.42829 -20.42829 -20.42633 -20.42633 -11.21117
 Alpha  occ. eigenvalues --  -11.21117  -1.31590  -1.31589  -1.26149  -1.26148
 Alpha  occ. eigenvalues --   -0.60072  -0.60046  -0.53496  -0.53476  -0.52774
 Alpha  occ. eigenvalues --   -0.52757  -0.50209  -0.50208  -0.37217  -0.37077
 Alpha  occ. eigenvalues --   -0.33685  -0.33683   0.17675
 Alpha virt. eigenvalues --    0.25091   0.33569   0.33712   0.39898   0.39900
 Alpha virt. eigenvalues --    0.49292   0.50179   0.55898   0.55908   0.57578
 Alpha virt. eigenvalues --    0.57583   0.73853   0.73904   0.82513   0.83502

 Mulliken charges and spin densities:
               1          2
     1  O   -0.402897   0.058635
     2  C    0.268950   0.378381
     3  O   -0.366053   0.062984
     4  O   -0.366053   0.062984
     5  C    0.268950   0.378381
     6  O   -0.402897   0.058635
 Sum of Mulliken charges =  -1.00000   1.00000

 Dipole moment (field-independent basis, Debye):
    X=             -0.0000    Y=             -0.0000    Z=             -0.0000  Tot=              0.0000
 Quadrupole moment (field-independent basis, Debye-Ang):
   XX=            -33.8338   YY=            -31.6300   ZZ=           -112.2786
   XY=              0.0000   XZ=              0.0000   YZ=             -0.0000

 7087\CCSD(T)=-376.4886091\RMSD=2.009e-09\PG=D*H [C*(O1C1O1.O1C1O1)]\\@
 Normal termination of Gaussian 16 at Tue Feb 20 18:07:46 2024.
