 Gaussian 16, Revision A.03,
 Gaussian 16:  ES64L-G16RevA.03 25-Dec-2016

 --------------------
 #p ROCCSD(T)/cc-pVTZ
 --------------------

 ----------
 CO2_CO2_63
 ----------
 Symbolic Z-matrix:
 Charge = -1 Multiplicity = 2

                         Standard orientation:
 ---------------------------------------------------------------------
 Center     Atomic      Atomic             Coordinates (Angstroms)
 Number     Number       Type             X           Y           Z
 ---------------------------------------------------------------------
      1          8           0        0.000000    0.000000    3.246000
      2          6           0        0.000000    0.000000    2.083000
      3          8           0        0.000000    0.000000    0.920000
      4          8           0        0.000000    0.000000   -0.920000
      5          6           0        0.000000    0.000000   -2.083000
      6          8           0        0.000000    0.000000   -3.246000
 ---------------------------------------------------------------------

 SCF Done:  E(ROHF) =  -375.160392319     A.U. after   13 cycles
 E2 =    -0.1246371784D+01 EUMP2 =    -0.37640676410353D+03
 CCSD(T)
 CCSD(T)= -0.37644241808D+03

 Unable to determine electronic state:  an orbital has unidentified symmetry.
 Alpha  occ. eigenvalues --  -20.39062 -20.39062 -20.37991 -20.37991 -11.16289
 Alpha  occ. eigenvalues --  -11.16288  -1.28533  -1.27418  -1.23303  -1.21337
 Alpha  occ. eigenvalues --   -0.64548  -0.54518  -0.52750  -0.49812  -0.48366
 Alpha  occ. eigenvalues --   -0.47205  -0.45817  -0.38533  -0.35137  -0.31496
 Alpha  occ. eigenvalues --   -0.30960  -0.28281   0.16740
 Alpha virt. eigenvalues --    0.33500   0.35751   0.37706   0.42098   0.44533
 Alpha virt. eigenvalues --    0.50684   0.57345   0.57479   0.59104   0.59698
 Alpha virt. eigenvalues --    0.62081   0.74837   0.78645   0.87349   0.87457

 Mulliken charges and spin densities:
               1          2
     1  O   -0.472544   0.058393
     2  C    0.236416   0.372323
     3  O   -0.263873   0.069284
     4  O   -0.263873   0.069284
     5  C    0.236416   0.372323
     6  O   -0.472544   0.058393
 Sum of Mulliken charges =  -1.00000   1.00000

 Dipole moment (field-independent basis, Debye):
    X=             -0.0000    Y=             -0.0000    Z=              0.0000  Tot=              0.0000
 Quadrupole moment (field-independent basis, Debye-Ang):
   XX=            -31.6383   YY=            -33.7897   ZZ=            -73.5285
   XY=              0.0000   XZ=              0.0000   YZ=              0.0000

 219\CCSD(T)=-376.4424181\RMSD=5.511e-09\PG=D*H [C*(O1C1O1.O1C1O1)]\\@
 Normal termination of Gaussian 16 at Mon Feb 19 21:26:08 2024.
