 Gaussian 16, Revision A.03,
 Gaussian 16:  ES64L-G16RevA.03 25-Dec-2016

 --------------------
 #p ROCCSD(T)/cc-pVTZ
 --------------------

 ----------
 CO2_CO2_16
 ----------
 Symbolic Z-matrix:
 Charge = -1 Multiplicity = 2

                         Standard orientation:
 ---------------------------------------------------------------------
 Center     Atomic      Atomic             Coordinates (Angstroms)
 Number     Number       Type             X           Y           Z
 ---------------------------------------------------------------------
      1          8           0        1.233548   -2.415048    0.000000
      2          6           0        0.411183   -1.592683    0.000000
      3          8           0       -0.411183   -0.770317    0.000000
      4          8           0       -0.411183    0.429682   -0.000000
      5          6           0       -0.411183    1.592682   -0.000000
      6          8           0       -0.411183    2.755683   -0.000000
 ---------------------------------------------------------------------

 SCF Done:  E(ROHF) =  -374.680043654     A.U. after   21 cycles
 E2 =    -0.1258663866D+01 EUMP2 =    -0.37593870751932D+03
 CCSD(T)
 CCSD(T)= -0.37598888116D+03

 The electronic state is 2-A".
 Alpha  occ. eigenvalues --  -20.51210 -20.42177 -20.35984 -20.33647 -11.13244
 Alpha  occ. eigenvalues --  -11.09215  -1.51329  -1.25142  -1.21314  -1.18428
 Alpha  occ. eigenvalues --   -0.88877  -0.63107  -0.61712  -0.51475  -0.48412
 Alpha  occ. eigenvalues --   -0.47296  -0.44014  -0.37612  -0.36516  -0.28685
 Alpha  occ. eigenvalues --   -0.28415   0.00985   0.03920
 Alpha virt. eigenvalues --    0.34327   0.37382   0.42537   0.43627   0.47836
 Alpha virt. eigenvalues --    0.52752   0.55949   0.57257   0.59813   0.64652
 Alpha virt. eigenvalues --    0.69457   0.76214   0.84657   0.87751   0.90226

 Mulliken charges and spin densities:
               1          2
     1  O   -0.490529   0.006240
     2  C   -0.003734   0.020246
     3  O   -0.035640   0.007397
     4  O   -0.025978   0.068797
     5  C    0.039158   0.762224
     6  O   -0.483277   0.135096
 Sum of Mulliken charges =  -1.00000   1.00000

 Dipole moment (field-independent basis, Debye):
    X=             -1.1004    Y=              0.5158    Z=             -0.0000  Tot=              1.2153
 Quadrupole moment (field-independent basis, Debye-Ang):
   XX=            -37.5766   YY=            -69.7943   ZZ=            -32.8472
   XY=              8.9902   XZ=             -0.0000   YZ=              0.0000

 7075\MP4SDQ=-375.92786\CCSD=-375.9230858\CCSD(T)=-375.9888812\RMSD=3.5
 Normal termination of Gaussian 16 at Mon Feb 19 14:06:34 2024.
