 Gaussian 16, Revision A.03,
 Gaussian 16:  ES64L-G16RevA.03 25-Dec-2016

 --------------------
 #p ROCCSD(T)/cc-pVTZ
 --------------------

 -----------
 CO2_CO2_267
 -----------
 Symbolic Z-matrix:
 Charge = -1 Multiplicity = 2

                         Standard orientation:
 ---------------------------------------------------------------------
 Center     Atomic      Atomic             Coordinates (Angstroms)
 Number     Number       Type             X           Y           Z
 ---------------------------------------------------------------------
      1          8           0        0.000000    0.000000    4.606000
      2          6           0        0.000000    0.000000    3.443000
      3          8           0        0.000000    0.000000    2.280000
      4          8           0        0.000000    0.000000   -2.280000
      5          6           0        0.000000    0.000000   -3.443000
      6          8           0        0.000000    0.000000   -4.606000
 ---------------------------------------------------------------------

 SCF Done:  E(ROHF) =  -375.220441575     A.U. after   12 cycles
 E2 =    -0.1232428475D+01 EUMP2 =    -0.37645287005042D+03
 CCSD(T)
 CCSD(T)= -0.37648852091D+03

 Unable to determine electronic state:  an orbital has unidentified symmetry.
 Alpha  occ. eigenvalues --  -20.42609 -20.42609 -20.42392 -20.42392 -11.20880
 Alpha  occ. eigenvalues --  -11.20880  -1.31361  -1.31360  -1.25916  -1.25914
 Alpha  occ. eigenvalues --   -0.59844  -0.59798  -0.53262  -0.53212  -0.52547
 Alpha  occ. eigenvalues --   -0.52525  -0.49981  -0.49979  -0.36996  -0.36827
 Alpha  occ. eigenvalues --   -0.33452  -0.33446   0.17699
 Alpha virt. eigenvalues --    0.25524   0.33713   0.33975   0.40116   0.40124
 Alpha virt. eigenvalues --    0.49082   0.50817   0.56103   0.56119   0.57787
 Alpha virt. eigenvalues --    0.57799   0.74059   0.74135   0.81965   0.84250

 Mulliken charges and spin densities:
               1          2
     1  O   -0.404494   0.058411
     2  C    0.267476   0.378349
     3  O   -0.362982   0.063240
     4  O   -0.362982   0.063240
     5  C    0.267476   0.378349
     6  O   -0.404494   0.058411
 Sum of Mulliken charges =  -1.00000   1.00000

 Dipole moment (field-independent basis, Debye):
    X=             -0.0000    Y=             -0.0000    Z=             -0.0000  Tot=              0.0000
 Quadrupole moment (field-independent basis, Debye-Ang):
   XX=            -31.6331   YY=            -33.8385   ZZ=           -106.3355
   XY=              0.0000   XZ=              0.0000   YZ=             -0.0000

 5899\CCSD(T)=-376.4885209\RMSD=2.081e-09\PG=D*H [C*(O1C1O1.O1C1O1)]\\@
 Normal termination of Gaussian 16 at Tue Feb 20 14:34:49 2024.
