 Gaussian 16, Revision A.03,
 Gaussian 16:  ES64L-G16RevA.03 25-Dec-2016

 --------------------
 #p ROCCSD(T)/cc-pVTZ
 --------------------

 ----------
 CO2_CO2_61
 ----------
 Symbolic Z-matrix:
 Charge = -1 Multiplicity = 2

                         Standard orientation:
 ---------------------------------------------------------------------
 Center     Atomic      Atomic             Coordinates (Angstroms)
 Number     Number       Type             X           Y           Z
 ---------------------------------------------------------------------
      1          8           0        1.233548   -2.715048    0.000000
      2          6           0        0.411183   -1.892683    0.000000
      3          8           0       -0.411183   -1.070317    0.000000
      4          8           0       -0.411183    0.729682   -0.000000
      5          6           0       -0.411183    1.892682   -0.000000
      6          8           0       -0.411183    3.055683   -0.000000
 ---------------------------------------------------------------------

 SCF Done:  E(ROHF) =  -375.147031167     A.U. after   17 cycles
 E2 =    -0.1249196970D+01 EUMP2 =    -0.37639622813694D+03
 CCSD(T)
 CCSD(T)= -0.37643224800D+03

 The electronic state is 2-A".
 Alpha  occ. eigenvalues --  -20.40111 -20.38861 -20.37496 -20.36944 -11.17618
 Alpha  occ. eigenvalues --  -11.14724  -1.29226  -1.26732  -1.23674  -1.20650
 Alpha  occ. eigenvalues --   -0.64427  -0.54790  -0.52292  -0.50193  -0.48064
 Alpha  occ. eigenvalues --   -0.47791  -0.45773  -0.39881  -0.35344  -0.30971
 Alpha  occ. eigenvalues --   -0.30651  -0.26034   0.16643
 Alpha virt. eigenvalues --    0.33785   0.35334   0.38616   0.42318   0.44268
 Alpha virt. eigenvalues --    0.52467   0.55786   0.56976   0.58855   0.60762
 Alpha virt. eigenvalues --    0.65814   0.75526   0.79084   0.86638   0.87306

 Mulliken charges and spin densities:
               1          2
     1  O   -0.463102   0.065178
     2  C    0.229785   0.408506
     3  O   -0.313485   0.068244
     4  O   -0.247121   0.062753
     5  C    0.253878   0.343274
     6  O   -0.459956   0.052044
 Sum of Mulliken charges =  -1.00000   1.00000

 Dipole moment (field-independent basis, Debye):
    X=             -0.5455    Y=              0.7180    Z=             -0.0000  Tot=              0.9017
 Quadrupole moment (field-independent basis, Debye-Ang):
   XX=            -36.7023   YY=            -65.4846   ZZ=            -33.8218
   XY=              8.7714   XZ=             -0.0000   YZ=              0.0000

 2281\MP4SDQ=-376.3791577\CCSD=-376.3717836\CCSD(T)=-376.432248\RMSD=7.
 Normal termination of Gaussian 16 at Mon Feb 19 21:09:32 2024.
