 Gaussian 16, Revision A.03,
 Gaussian 16:  ES64L-G16RevA.03 25-Dec-2016

 --------------------
 #p ROCCSD(T)/cc-pVTZ
 --------------------

 -----------
 CO2_CO2_148
 -----------
 Symbolic Z-matrix:
 Charge = -1 Multiplicity = 2

                         Standard orientation:
 ---------------------------------------------------------------------
 Center     Atomic      Atomic             Coordinates (Angstroms)
 Number     Number       Type             X           Y           Z
 ---------------------------------------------------------------------
      1          8           0        1.233548   -3.295048   -0.000000
      2          6           0        0.411183   -2.472682   -0.000000
      3          8           0       -0.411183   -1.650317   -0.000000
      4          8           0       -0.411183    1.309683    0.000000
      5          6           0       -0.411183    2.472682    0.000000
      6          8           0       -0.411183    3.635682    0.000000
 ---------------------------------------------------------------------

 SCF Done:  E(ROHF) =  -375.219437994     A.U. after   16 cycles
 E2 =    -0.1233790924D+01 EUMP2 =    -0.37645322891707D+03
 CCSD(T)
 CCSD(T)= -0.37648987517D+03

 The electronic state is 2-A".
 Alpha  occ. eigenvalues --  -20.41458 -20.41124 -20.40662 -20.40389 -11.19639
 Alpha  occ. eigenvalues --  -11.18708  -1.30137  -1.29389  -1.24652  -1.23902
 Alpha  occ. eigenvalues --   -0.58731  -0.57734  -0.52190  -0.51247  -0.50825
 Alpha  occ. eigenvalues --   -0.50635  -0.48757  -0.47944  -0.35657  -0.34828
 Alpha  occ. eigenvalues --   -0.32170  -0.31414   0.17652
 Alpha virt. eigenvalues --    0.28733   0.34689   0.35928   0.41310   0.42032
 Alpha virt. eigenvalues --    0.50059   0.54024   0.57059   0.57909   0.58639
 Alpha virt. eigenvalues --    0.60533   0.74992   0.75979   0.82612   0.84484

 Mulliken charges and spin densities:
               1          2
     1  O   -0.422988   0.059442
     2  C    0.257437   0.385580
     3  O   -0.345151   0.065821
     4  O   -0.325399   0.064032
     5  C    0.257927   0.369464
     6  O   -0.421825   0.055661
 Sum of Mulliken charges =  -1.00000   1.00000

 Dipole moment (field-independent basis, Debye):
    X=             -0.2051    Y=              0.1831    Z=              0.0000  Tot=              0.2749
 Quadrupole moment (field-independent basis, Debye-Ang):
   XX=            -36.3925   YY=            -75.5052   ZZ=            -33.8539
   XY=              9.3165   XZ=              0.0000   YZ=             -0.0000

 289\MP4SDQ=-376.438623\CCSD=-376.4326281\CCSD(T)=-376.4898752\RMSD=4.3
 Normal termination of Gaussian 16 at Tue Feb 20 09:26:44 2024.
