 Gaussian 16, Revision A.03,
 Gaussian 16:  ES64L-G16RevA.03 25-Dec-2016

 --------------------
 #p ROCCSD(T)/cc-pVTZ
 --------------------

 -----------
 CO2_CO2_120
 -----------
 Symbolic Z-matrix:
 Charge = -1 Multiplicity = 2

                         Standard orientation:
 ---------------------------------------------------------------------
 Center     Atomic      Atomic             Coordinates (Angstroms)
 Number     Number       Type             X           Y           Z
 ---------------------------------------------------------------------
      1          8           0        0.000000    0.000000    3.626000
      2          6           0        0.000000    0.000000    2.463000
      3          8           0        0.000000    0.000000    1.300000
      4          8           0        0.000000    0.000000   -1.300000
      5          6           0        0.000000    0.000000   -2.463000
      6          8           0        0.000000    0.000000   -3.626000
 ---------------------------------------------------------------------

 SCF Done:  E(ROHF) =  -375.217352503     A.U. after   12 cycles
 E2 =    -0.1235529016D+01 EUMP2 =    -0.37645288151887D+03
 CCSD(T)
 CCSD(T)= -0.37648970868D+03

 Unable to determine electronic state:  an orbital has unidentified symmetry.
 Alpha  occ. eigenvalues --  -20.40680 -20.40680 -20.40340 -20.40340 -11.18651
 Alpha  occ. eigenvalues --  -11.18651  -1.29438  -1.29316  -1.23984  -1.23736
 Alpha  occ. eigenvalues --   -0.58920  -0.57008  -0.52380  -0.50687  -0.50389
 Alpha  occ. eigenvalues --   -0.49136  -0.48113  -0.47885  -0.35315  -0.34190
 Alpha  occ. eigenvalues --   -0.31694  -0.31106   0.17589
 Alpha virt. eigenvalues --    0.29636   0.35213   0.35979   0.41627   0.42340
 Alpha virt. eigenvalues --    0.50582   0.55140   0.57364   0.58061   0.58999
 Alpha virt. eigenvalues --    0.59971   0.74859   0.75664   0.86224   0.86464

 Mulliken charges and spin densities:
               1          2
     1  O   -0.436778   0.057336
     2  C    0.244217   0.375495
     3  O   -0.307440   0.067169
     4  O   -0.307440   0.067169
     5  C    0.244217   0.375495
     6  O   -0.436778   0.057336
 Sum of Mulliken charges =  -1.00000   1.00000

 Dipole moment (field-independent basis, Debye):
    X=             -0.0000    Y=             -0.0000    Z=             -0.0000  Tot=              0.0000
 Quadrupole moment (field-independent basis, Debye-Ang):
   XX=            -31.6618   YY=            -33.8648   ZZ=            -80.0323
   XY=              0.0000   XZ=              0.0000   YZ=              0.0000

 115\CCSD(T)=-376.4897087\RMSD=3.783e-09\PG=D*H [C*(O1C1O1.O1C1O1)]\\@
 Normal termination of Gaussian 16 at Tue Feb 20 18:40:02 2024.
