 Gaussian 16, Revision A.03,
 Gaussian 16:  ES64L-G16RevA.03 25-Dec-2016

 --------------------
 #p ROCCSD(T)/cc-pVTZ
 --------------------

 ----------
 CO2_CO2_32
 ----------
 Symbolic Z-matrix:
 Charge = -1 Multiplicity = 2

                         Standard orientation:
 ---------------------------------------------------------------------
 Center     Atomic      Atomic             Coordinates (Angstroms)
 Number     Number       Type             X           Y           Z
 ---------------------------------------------------------------------
      1          8           0       -1.744500   -1.281500    0.000000
      2          6           0       -0.581500   -1.281500    0.000000
      3          8           0        0.581500   -1.281500    0.000000
      4          8           0        0.581500    0.118500    0.000000
      5          6           0        0.581500    1.281500    0.000000
      6          8           0        0.581500    2.444500    0.000000
 ---------------------------------------------------------------------

 SCF Done:  E(ROHF) =  -374.867188783     A.U. after   28 cycles
 E2 =    -0.1272847522D+01 EUMP2 =    -0.37614003630472D+03
 CCSD(T)
 CCSD(T)= -0.37617455360D+03

 The electronic state is 2-A'.
 Alpha  occ. eigenvalues --  -20.42168 -20.41471 -20.33010 -20.32759 -11.19888
 Alpha  occ. eigenvalues --  -11.08067  -1.39564  -1.27009  -1.21500  -1.16491
 Alpha  occ. eigenvalues --   -0.71056  -0.61560  -0.54019  -0.52636  -0.48568
 Alpha  occ. eigenvalues --   -0.45217  -0.42027  -0.41440  -0.34112  -0.30556
 Alpha  occ. eigenvalues --   -0.24377  -0.09746   0.09317
 Alpha virt. eigenvalues --    0.36763   0.40665   0.41901   0.45048   0.46562
 Alpha virt. eigenvalues --    0.51319   0.57379   0.58835   0.60749   0.66523
 Alpha virt. eigenvalues --    0.67453   0.76572   0.81200   0.84650   0.88588

 Mulliken charges and spin densities:
               1          2
     1  O   -0.396596   0.008463
     2  C    0.328062   0.055676
     3  O   -0.142869   0.032607
     4  O   -0.292575   0.023344
     5  C   -0.023807   0.811393
     6  O   -0.472215   0.068517
 Sum of Mulliken charges =  -1.00000   1.00000

 Dipole moment (field-independent basis, Debye):
    X=              0.6158    Y=             -2.9903    Z=              0.0000  Tot=              3.0531
 Quadrupole moment (field-independent basis, Debye-Ang):
   XX=            -40.8138   YY=            -55.0313   ZZ=            -31.7589
   XY=             -4.3684   XZ=              0.0000   YZ=              0.0000

 =-376.1103507\CCSD(T)=-376.1745536\RMSD=3.034e-09\PG=CS [SG(C2O4)]\\@
 Normal termination of Gaussian 16 at Mon Feb 19 16:44:59 2024.
