 Gaussian 16, Revision A.03,
 Gaussian 16:  ES64L-G16RevA.03 25-Dec-2016

 --------------------
 #p ROCCSD(T)/cc-pVTZ
 --------------------

 -----------
 CO2_CO2_189
 -----------
 Symbolic Z-matrix:
 Charge = -1 Multiplicity = 2

                         Standard orientation:
 ---------------------------------------------------------------------
 Center     Atomic      Atomic             Coordinates (Angstroms)
 Number     Number       Type             X           Y           Z
 ---------------------------------------------------------------------
      1          8           0        0.000000    0.000000    4.086000
      2          6           0        0.000000    0.000000    2.923000
      3          8           0        0.000000    0.000000    1.760000
      4          8           0        0.000000    0.000000   -1.760000
      5          6           0        0.000000    0.000000   -2.923000
      6          8           0        0.000000    0.000000   -4.086000
 ---------------------------------------------------------------------

 SCF Done:  E(ROHF) =  -375.219602096     A.U. after   12 cycles
 E2 =    -0.1233080203D+01 EUMP2 =    -0.37645268229980D+03
 CCSD(T)
 CCSD(T)= -0.37648890613D+03

 Unable to determine electronic state:  an orbital has unidentified symmetry.
 Alpha  occ. eigenvalues --  -20.41795 -20.41795 -20.41521 -20.41520 -11.19987
 Alpha  occ. eigenvalues --  -11.19987  -1.30520  -1.30510  -1.25058  -1.25035
 Alpha  occ. eigenvalues --   -0.59094  -0.58781  -0.52528  -0.52046  -0.51718
 Alpha  occ. eigenvalues --   -0.51654  -0.49152  -0.49123  -0.36204  -0.35840
 Alpha  occ. eigenvalues --   -0.32615  -0.32539   0.17752
 Alpha virt. eigenvalues --    0.27179   0.34309   0.34874   0.40860   0.40996
 Alpha virt. eigenvalues --    0.48697   0.53037   0.56794   0.56916   0.58482
 Alpha virt. eigenvalues --    0.58637   0.74738   0.75108   0.77558   0.85800

 Mulliken charges and spin densities:
               1          2
     1  O   -0.413386   0.057664
     2  C    0.261064   0.378256
     3  O   -0.347677   0.064080
     4  O   -0.347677   0.064080
     5  C    0.261064   0.378256
     6  O   -0.413386   0.057664
 Sum of Mulliken charges =  -1.00000   1.00000

 Dipole moment (field-independent basis, Debye):
    X=             -0.0000    Y=              0.0000    Z=             -0.0000  Tot=              0.0000
 Quadrupole moment (field-independent basis, Debye-Ang):
   XX=            -33.8599   YY=            -31.6461   ZZ=            -91.0378
   XY=              0.0000   XZ=              0.0000   YZ=             -0.0000

 7662\CCSD(T)=-376.4889061\RMSD=2.379e-09\PG=D*H [C*(O1C1O1.O1C1O1)]\\@
 Normal termination of Gaussian 16 at Tue Feb 20 15:09:36 2024.
