 Gaussian 16, Revision A.03,
 Gaussian 16:  ES64L-G16RevA.03 25-Dec-2016

 --------------------
 #p ROCCSD(T)/cc-pVTZ
 --------------------

 -----------
 CO2_CO2_111
 -----------
 Symbolic Z-matrix:
 Charge = -1 Multiplicity = 2

                         Standard orientation:
 ---------------------------------------------------------------------
 Center     Atomic      Atomic             Coordinates (Angstroms)
 Number     Number       Type             X           Y           Z
 ---------------------------------------------------------------------
      1          8           0        0.000000    0.000000    3.566000
      2          6           0        0.000000    0.000000    2.403000
      3          8           0        0.000000    0.000000    1.240000
      4          8           0        0.000000    0.000000   -1.240000
      5          6           0        0.000000    0.000000   -2.403000
      6          8           0        0.000000    0.000000   -3.566000
 ---------------------------------------------------------------------

 SCF Done:  E(ROHF) =  -375.215775001     A.U. after   12 cycles
 E2 =    -0.1236251166D+01 EUMP2 =    -0.37645202616721D+03
 CCSD(T)
 CCSD(T)= -0.37648887448D+03

 Unable to determine electronic state:  an orbital has unidentified symmetry.
 Alpha  occ. eigenvalues --  -20.40484 -20.40484 -20.40112 -20.40111 -11.18395
 Alpha  occ. eigenvalues --  -11.18395  -1.29268  -1.29097  -1.23827  -1.23484
 Alpha  occ. eigenvalues --   -0.59120  -0.56673  -0.52465  -0.50531  -0.50156
 Alpha  occ. eigenvalues --   -0.48339  -0.47953  -0.47654  -0.35208  -0.33853
 Alpha  occ. eigenvalues --   -0.31583  -0.30817   0.17524
 Alpha virt. eigenvalues --    0.30086   0.35287   0.36192   0.41731   0.42590
 Alpha virt. eigenvalues --    0.50604   0.55529   0.57406   0.58264   0.59029
 Alpha virt. eigenvalues --    0.60222   0.74796   0.75964   0.86343   0.86441

 Mulliken charges and spin densities:
               1          2
     1  O   -0.441121   0.057376
     2  C    0.241114   0.374686
     3  O   -0.299993   0.067938
     4  O   -0.299993   0.067938
     5  C    0.241114   0.374686
     6  O   -0.441121   0.057376
 Sum of Mulliken charges =  -1.00000   1.00000

 Dipole moment (field-independent basis, Debye):
    X=             -0.0000    Y=              0.0000    Z=             -0.0000  Tot=              0.0000
 Quadrupole moment (field-independent basis, Debye-Ang):
   XX=            -31.6633   YY=            -33.8596   ZZ=            -78.8089
   XY=              0.0000   XZ=              0.0000   YZ=              0.0000

 68\CCSD(T)=-376.4888745\RMSD=4.270e-09\PG=D*H [C*(O1C1O1.O1C1O1)]\\@
 Normal termination of Gaussian 16 at Tue Feb 20 17:12:27 2024.
