 Gaussian 16, Revision A.03,
 Gaussian 16:  ES64L-G16RevA.03 25-Dec-2016

 --------------------
 #p ROCCSD(T)/cc-pVTZ
 --------------------

 -----------
 CO2_CO2_249
 -----------
 Symbolic Z-matrix:
 Charge = -1 Multiplicity = 2

                         Standard orientation:
 ---------------------------------------------------------------------
 Center     Atomic      Atomic             Coordinates (Angstroms)
 Number     Number       Type             X           Y           Z
 ---------------------------------------------------------------------
      1          8           0        0.000000    0.000000    4.486000
      2          6           0        0.000000    0.000000    3.323000
      3          8           0        0.000000    0.000000    2.160000
      4          8           0        0.000000    0.000000   -2.160000
      5          6           0        0.000000    0.000000   -3.323000
      6          8           0        0.000000    0.000000   -4.486000
 ---------------------------------------------------------------------

 SCF Done:  E(ROHF) =  -375.220241159     A.U. after   12 cycles
 E2 =    -0.1232497565D+01 EUMP2 =    -0.37645273872399D+03
 CCSD(T)
 CCSD(T)= -0.37648849739D+03

 Unable to determine electronic state:  an orbital has unidentified symmetry.
 Alpha  occ. eigenvalues --  -20.42448 -20.42448 -20.42216 -20.42216 -11.20705
 Alpha  occ. eigenvalues --  -11.20705  -1.31193  -1.31191  -1.25745  -1.25741
 Alpha  occ. eigenvalues --   -0.59680  -0.59611  -0.53096  -0.53009  -0.52380
 Alpha  occ. eigenvalues --   -0.52354  -0.49814  -0.49810  -0.36835  -0.36640
 Alpha  occ. eigenvalues --   -0.33281  -0.33270   0.17716
 Alpha virt. eigenvalues --    0.25845   0.33806   0.34171   0.40273   0.40291
 Alpha virt. eigenvalues --    0.48849   0.51332   0.56250   0.56275   0.57936
 Alpha virt. eigenvalues --    0.57959   0.74217   0.74291   0.81198   0.84798

 Mulliken charges and spin densities:
               1          2
     1  O   -0.405759   0.058247
     2  C    0.266315   0.378337
     3  O   -0.360555   0.063415
     4  O   -0.360555   0.063415
     5  C    0.266315   0.378337
     6  O   -0.405759   0.058247
 Sum of Mulliken charges =  -1.00000   1.00000

 Dipole moment (field-independent basis, Debye):
    X=             -0.0000    Y=              0.0000    Z=              0.0000  Tot=              0.0000
 Quadrupole moment (field-independent basis, Debye-Ang):
   XX=            -33.8424   YY=            -31.6355   ZZ=           -102.5562
   XY=              0.0000   XZ=              0.0000   YZ=             -0.0000

 5375\CCSD(T)=-376.4884974\RMSD=2.134e-09\PG=D*H [C*(O1C1O1.O1C1O1)]\\@
 Normal termination of Gaussian 16 at Tue Feb 20 12:12:48 2024.
