 Gaussian 16, Revision A.03,
 Gaussian 16:  ES64L-G16RevA.03 25-Dec-2016

 --------------------
 #p ROCCSD(T)/cc-pVTZ
 --------------------

 -----------
 CO2_CO2_156
 -----------
 Symbolic Z-matrix:
 Charge = -1 Multiplicity = 2

                         Standard orientation:
 ---------------------------------------------------------------------
 Center     Atomic      Atomic             Coordinates (Angstroms)
 Number     Number       Type             X           Y           Z
 ---------------------------------------------------------------------
      1          8           0        0.000000    0.000000    3.866000
      2          6           0        0.000000    0.000000    2.703000
      3          8           0        0.000000    0.000000    1.540000
      4          8           0        0.000000    0.000000   -1.540000
      5          6           0        0.000000    0.000000   -2.703000
      6          8           0        0.000000    0.000000   -3.866000
 ---------------------------------------------------------------------

 SCF Done:  E(ROHF) =  -375.219239780     A.U. after   12 cycles
 E2 =    -0.1233820314D+01 EUMP2 =    -0.37645306009338D+03
 CCSD(T)
 CCSD(T)= -0.37648960574D+03

 Unable to determine electronic state:  an orbital has unidentified symmetry.
 Alpha  occ. eigenvalues --  -20.41330 -20.41330 -20.41037 -20.41036 -11.19451
 Alpha  occ. eigenvalues --  -11.19451  -1.30052  -1.30020  -1.24584  -1.24514
 Alpha  occ. eigenvalues --   -0.58828  -0.58091  -0.52313  -0.51265  -0.51139
 Alpha  occ. eigenvalues --   -0.51104  -0.48697  -0.48621  -0.35789  -0.35204
 Alpha  occ. eigenvalues --   -0.32183  -0.31978   0.17725
 Alpha virt. eigenvalues --    0.28179   0.34787   0.35311   0.41216   0.41538
 Alpha virt. eigenvalues --    0.49777   0.53851   0.57101   0.57388   0.58775
 Alpha virt. eigenvalues --    0.59167   0.74987   0.75106   0.79724   0.85909

 Mulliken charges and spin densities:
               1          2
     1  O   -0.422362   0.057406
     2  C    0.255178   0.377655
     3  O   -0.332816   0.064938
     4  O   -0.332816   0.064938
     5  C    0.255178   0.377655
     6  O   -0.422362   0.057406
 Sum of Mulliken charges =  -1.00000   1.00000

 Dipole moment (field-independent basis, Debye):
    X=             -0.0000    Y=             -0.0000    Z=             -0.0000  Tot=              0.0000
 Quadrupole moment (field-independent basis, Debye-Ang):
   XX=            -31.6534   YY=            -33.8689   ZZ=            -85.4492
   XY=              0.0000   XZ=              0.0000   YZ=              0.0000

 54\CCSD(T)=-376.4896057\RMSD=2.719e-09\PG=D*H [C*(O1C1O1.O1C1O1)]\\@
 Normal termination of Gaussian 16 at Tue Feb 20 10:07:16 2024.
