 Gaussian 16, Revision A.03,
 Gaussian 16:  ES64L-G16RevA.03 25-Dec-2016

 --------------------
 #p ROCCSD(T)/cc-pVTZ
 --------------------

 -----------
 CO2_CO2_127
 -----------
 Symbolic Z-matrix:
 Charge = -1 Multiplicity = 2

                         Standard orientation:
 ---------------------------------------------------------------------
 Center     Atomic      Atomic             Coordinates (Angstroms)
 Number     Number       Type             X           Y           Z
 ---------------------------------------------------------------------
      1          8           0        1.233548   -3.155048   -0.000000
      2          6           0        0.411183   -2.332683   -0.000000
      3          8           0       -0.411183   -1.510317    0.000000
      4          8           0       -0.411183    1.169682    0.000000
      5          6           0       -0.411183    2.332682    0.000000
      6          8           0       -0.411183    3.495683    0.000000
 ---------------------------------------------------------------------

 SCF Done:  E(ROHF) =  -375.218046198     A.U. after   16 cycles
 E2 =    -0.1234831574D+01 EUMP2 =    -0.37645287777138D+03
 CCSD(T)
 CCSD(T)= -0.37648995529D+03

 The electronic state is 2-A".
 Alpha  occ. eigenvalues --  -20.41151 -20.40770 -20.40192 -20.39896 -11.19269
 Alpha  occ. eigenvalues --  -11.18141  -1.29822  -1.28918  -1.24326  -1.23408
 Alpha  occ. eigenvalues --   -0.58702  -0.57140  -0.52179  -0.50923  -0.50171
 Alpha  occ. eigenvalues --   -0.49932  -0.48435  -0.47373  -0.35382  -0.34235
 Alpha  occ. eigenvalues --   -0.31855  -0.30872   0.17585
 Alpha virt. eigenvalues --    0.29573   0.34884   0.36410   0.41609   0.42436
 Alpha virt. eigenvalues --    0.50720   0.54424   0.57144   0.58381   0.58726
 Alpha virt. eigenvalues --    0.61480   0.74948   0.76410   0.83690   0.85917

 Mulliken charges and spin densities:
               1          2
     1  O   -0.429132   0.059819
     2  C    0.254008   0.386249
     3  O   -0.338056   0.067145
     4  O   -0.309988   0.064825
     5  C    0.252553   0.366810
     6  O   -0.429386   0.055152
 Sum of Mulliken charges =  -1.00000   1.00000

 Dipole moment (field-independent basis, Debye):
    X=             -0.2428    Y=              0.2211    Z=              0.0000  Tot=              0.3284
 Quadrupole moment (field-independent basis, Debye-Ang):
   XX=            -36.4350   YY=            -72.5539   ZZ=            -33.8544
   XY=              9.1219   XZ=              0.0000   YZ=             -0.0000

 28778\MP4SDQ=-376.4383194\CCSD=-376.4318474\CCSD(T)=-376.4899553\RMSD=
 Normal termination of Gaussian 16 at Wed Feb 21 09:28:48 2024.
