 Gaussian 16, Revision A.03,
 Gaussian 16:  ES64L-G16RevA.03 25-Dec-2016

 --------------------
 #p ROCCSD(T)/cc-pVTZ
 --------------------

 -----------
 CO2_CO2_297
 -----------
 Symbolic Z-matrix:
 Charge = -1 Multiplicity = 2

                         Standard orientation:
 ---------------------------------------------------------------------
 Center     Atomic      Atomic             Coordinates (Angstroms)
 Number     Number       Type             X           Y           Z
 ---------------------------------------------------------------------
      1          8           0        0.000000    0.000000    4.806000
      2          6           0        0.000000    0.000000    3.643000
      3          8           0        0.000000    0.000000    2.480000
      4          8           0        0.000000    0.000000   -2.480000
      5          6           0        0.000000    0.000000   -3.643000
      6          8           0        0.000000    0.000000   -4.806000
 ---------------------------------------------------------------------

 SCF Done:  E(ROHF) =  -375.220756982     A.U. after   12 cycles
 E2 =    -0.1232372994D+01 EUMP2 =    -0.37645312997580D+03
 CCSD(T)
 CCSD(T)= -0.37648862077D+03

 Unable to determine electronic state:  an orbital has unidentified symmetry.
 Alpha  occ. eigenvalues --  -20.42852 -20.42852 -20.42658 -20.42658 -11.21142
 Alpha  occ. eigenvalues --  -11.21142  -1.31614  -1.31613  -1.26174  -1.26172
 Alpha  occ. eigenvalues --   -0.60096  -0.60072  -0.53521  -0.53502  -0.52798
 Alpha  occ. eigenvalues --   -0.52781  -0.50233  -0.50232  -0.37241  -0.37103
 Alpha  occ. eigenvalues --   -0.33710  -0.33708   0.17672
 Alpha virt. eigenvalues --    0.25045   0.33553   0.33685   0.39875   0.39877
 Alpha virt. eigenvalues --    0.49304   0.50119   0.55877   0.55885   0.57556
 Alpha virt. eigenvalues --    0.57560   0.73832   0.73879   0.82542   0.83433

 Mulliken charges and spin densities:
               1          2
     1  O   -0.402736   0.058658
     2  C    0.269095   0.378385
     3  O   -0.366359   0.062957
     4  O   -0.366359   0.062957
     5  C    0.269095   0.378385
     6  O   -0.402736   0.058658
 Sum of Mulliken charges =  -1.00000   1.00000

 Dipole moment (field-independent basis, Debye):
    X=             -0.0000    Y=             -0.0000    Z=              0.0000  Tot=              0.0000
 Quadrupole moment (field-independent basis, Debye-Ang):
   XX=            -33.8334   YY=            -31.6297   ZZ=           -112.9592
   XY=              0.0000   XZ=              0.0000   YZ=             -0.0000

 Normal termination of Gaussian 16 at Tue Feb 20 18:31:11 2024.
