 Gaussian 16, Revision A.03,
 Gaussian 16:  ES64L-G16RevA.03 25-Dec-2016

 --------------------
 #p ROCCSD(T)/cc-pVTZ
 --------------------

 ---------
 CO2_CO2_6
 ---------
 Symbolic Z-matrix:
 Charge = -1 Multiplicity = 2

                         Standard orientation:
 ---------------------------------------------------------------------
 Center     Atomic      Atomic             Coordinates (Angstroms)
 Number     Number       Type             X           Y           Z
 ---------------------------------------------------------------------
      1          8           0        0.000000    0.000000    2.866000
      2          6           0        0.000000    0.000000    1.703000
      3          8           0        0.000000    0.000000    0.540000
      4          8           0        0.000000    0.000000   -0.540000
      5          6           0        0.000000    0.000000   -1.703000
      6          8           0        0.000000    0.000000   -2.866000
 ---------------------------------------------------------------------

 SCF Done:  E(ROHF) =  -374.373831040     A.U. after   14 cycles
 E2 =    -0.1356338717D+01 EUMP2 =    -0.37573016975700D+03
 CCSD(T)
 CCSD(T)= -0.37573215805D+03

 Unable to determine electronic state:  partially filled degenerate orbitals.
 Alpha  occ. eigenvalues --  -20.61693 -20.61560 -20.33770 -20.33770 -11.15873
 Alpha  occ. eigenvalues --  -11.15871  -1.71056  -1.29976  -1.21403  -1.19762
 Alpha  occ. eigenvalues --   -1.04848  -0.78253  -0.77110  -0.49246  -0.49176
 Alpha  occ. eigenvalues --   -0.48981  -0.47728  -0.38560  -0.37656  -0.30513
 Alpha  occ. eigenvalues --   -0.29413   0.10265   0.11135
 Alpha virt. eigenvalues --    0.31698   0.34247   0.36373   0.38144   0.46728
 Alpha virt. eigenvalues --    0.51439   0.54870   0.56012   0.58904   0.60956
 Alpha virt. eigenvalues --    0.62263   0.70514   0.85710   0.85978   0.89112

 Mulliken charges and spin densities:
               1          2
     1  O   -0.524291   0.096620
     2  C   -0.241853   0.391258
     3  O    0.266145   0.012122
     4  O    0.266145   0.012122
     5  C   -0.241853   0.391258
     6  O   -0.524291   0.096620
 Sum of Mulliken charges =  -1.00000   1.00000

 Dipole moment (field-independent basis, Debye):
    X=             -0.0000    Y=             -0.0000    Z=              0.0000  Tot=              0.0000
 Quadrupole moment (field-independent basis, Debye-Ang):
   XX=            -33.7765   YY=            -36.2352   ZZ=            -81.6236
   XY=              0.0000   XZ=              0.0000   YZ=              0.0000

 \CCSD(T)=-375.7321581\RMSD=2.057e-09\PG=D*H [C*(O1C1O1.O1C1O1)]\\@
 Normal termination of Gaussian 16 at Mon Feb 19 12:24:33 2024.
