 Gaussian 16, Revision A.03,
 Gaussian 16:  ES64L-G16RevA.03 25-Dec-2016

 --------------------
 #p ROCCSD(T)/cc-pVTZ
 --------------------

 -----------
 CO2_CO2_270
 -----------
 Symbolic Z-matrix:
 Charge = -1 Multiplicity = 2

                         Standard orientation:
 ---------------------------------------------------------------------
 Center     Atomic      Atomic             Coordinates (Angstroms)
 Number     Number       Type             X           Y           Z
 ---------------------------------------------------------------------
      1          8           0        0.000000    0.000000    4.626000
      2          6           0        0.000000    0.000000    3.463000
      3          8           0        0.000000    0.000000    2.300000
      4          8           0        0.000000    0.000000   -2.300000
      5          6           0        0.000000    0.000000   -3.463000
      6          8           0        0.000000    0.000000   -4.626000
 ---------------------------------------------------------------------

 SCF Done:  E(ROHF) =  -375.220474492     A.U. after   12 cycles
 E2 =    -0.1232420046D+01 EUMP2 =    -0.37645289453815D+03
 CCSD(T)
 CCSD(T)= -0.37648852839D+03

 Unable to determine electronic state:  an orbital has unidentified symmetry.
 Alpha  occ. eigenvalues --  -20.42635 -20.42635 -20.42420 -20.42420 -11.20908
 Alpha  occ. eigenvalues --  -11.20908  -1.31388  -1.31387  -1.25943  -1.25941
 Alpha  occ. eigenvalues --   -0.59870  -0.59828  -0.53289  -0.53244  -0.52573
 Alpha  occ. eigenvalues --   -0.52552  -0.50008  -0.50006  -0.37022  -0.36856
 Alpha  occ. eigenvalues --   -0.33479  -0.33474   0.17696
 Alpha virt. eigenvalues --    0.25474   0.33698   0.33944   0.40091   0.40098
 Alpha virt. eigenvalues --    0.49114   0.50738   0.56080   0.56095   0.57763
 Alpha virt. eigenvalues --    0.57774   0.74034   0.74109   0.82057   0.84158

 Mulliken charges and spin densities:
               1          2
     1  O   -0.404302   0.058437
     2  C    0.267655   0.378352
     3  O   -0.363353   0.063211
     4  O   -0.363353   0.063211
     5  C    0.267655   0.378352
     6  O   -0.404302   0.058437
 Sum of Mulliken charges =  -1.00000   1.00000

 Dipole moment (field-independent basis, Debye):
    X=             -0.0000    Y=             -0.0000    Z=             -0.0000  Tot=              0.0000
 Quadrupole moment (field-independent basis, Debye-Ang):
   XX=            -33.8379   YY=            -31.6327   ZZ=           -106.9796
   XY=              0.0000   XZ=              0.0000   YZ=             -0.0000

 014\CCSD(T)=-376.4885284\RMSD=2.073e-09\PG=D*H [C*(O1C1O1.O1C1O1)]\\@
 Normal termination of Gaussian 16 at Tue Feb 20 14:57:17 2024.
