 Gaussian 16, Revision A.03,
 Gaussian 16:  ES64L-G16RevA.03 25-Dec-2016

 --------------------
 #p ROCCSD(T)/cc-pVTZ
 --------------------

 -----------
 CO2_CO2_225
 -----------
 Symbolic Z-matrix:
 Charge = -1 Multiplicity = 2

                         Standard orientation:
 ---------------------------------------------------------------------
 Center     Atomic      Atomic             Coordinates (Angstroms)
 Number     Number       Type             X           Y           Z
 ---------------------------------------------------------------------
      1          8           0        0.000000    0.000000    4.326000
      2          6           0        0.000000    0.000000    3.163000
      3          8           0        0.000000    0.000000    2.000000
      4          8           0        0.000000    0.000000   -2.000000
      5          6           0        0.000000    0.000000   -3.163000
      6          8           0        0.000000    0.000000   -4.326000
 ---------------------------------------------------------------------

 SCF Done:  E(ROHF) =  -375.219974789     A.U. after   12 cycles
 E2 =    -0.1232653553D+01 EUMP2 =    -0.37645262834211D+03
 CCSD(T)
 CCSD(T)= -0.37648855046D+03

 Unable to determine electronic state:  an orbital has unidentified symmetry.
 Alpha  occ. eigenvalues --  -20.42210 -20.42210 -20.41960 -20.41960 -11.20447
 Alpha  occ. eigenvalues --  -11.20446  -1.30947  -1.30944  -1.25494  -1.25486
 Alpha  occ. eigenvalues --   -0.59449  -0.59324  -0.52866  -0.52691  -0.52137
 Alpha  occ. eigenvalues --   -0.52102  -0.49571  -0.49561  -0.36601  -0.36358
 Alpha  occ. eigenvalues --   -0.33034  -0.33009   0.17736
 Alpha virt. eigenvalues --    0.26322   0.33950   0.34447   0.40497   0.40540
 Alpha virt. eigenvalues --    0.48539   0.52058   0.56459   0.56506   0.58148
 Alpha virt. eigenvalues --    0.58199   0.74486   0.74486   0.79640   0.85389

 Mulliken charges and spin densities:
               1          2
     1  O   -0.407919   0.058015
     2  C    0.264532   0.378334
     3  O   -0.356613   0.063650
     4  O   -0.356613   0.063650
     5  C    0.264532   0.378334
     6  O   -0.407919   0.058015
 Sum of Mulliken charges =  -1.00000   1.00000

 Dipole moment (field-independent basis, Debye):
    X=             -0.0000    Y=              0.0000    Z=              0.0000  Tot=              0.0000
 Quadrupole moment (field-independent basis, Debye-Ang):
   XX=            -31.6393   YY=            -33.8486   ZZ=            -97.7464
   XY=              0.0000   XZ=              0.0000   YZ=             -0.0000

 62\CCSD(T)=-376.4885505\RMSD=2.214e-09\PG=D*H [C*(O1C1O1.O1C1O1)]\\@
 Normal termination of Gaussian 16 at Tue Feb 20 09:01:17 2024.
