 Gaussian 16, Revision A.03,
 Gaussian 16:  ES64L-G16RevA.03 25-Dec-2016

 --------------------
 #p ROCCSD(T)/cc-pVTZ
 --------------------

 ----------
 CO2_CO2_17
 ----------
 Symbolic Z-matrix:
 Charge = -1 Multiplicity = 2

                         Standard orientation:
 ---------------------------------------------------------------------
 Center     Atomic      Atomic             Coordinates (Angstroms)
 Number     Number       Type             X           Y           Z
 ---------------------------------------------------------------------
      1          8           0       -1.744500   -1.181500    0.000000
      2          6           0       -0.581500   -1.181500    0.000000
      3          8           0        0.581500   -1.181500    0.000000
      4          8           0        0.581500    0.018500    0.000000
      5          6           0        0.581500    1.181500    0.000000
      6          8           0        0.581500    2.344500    0.000000
 ---------------------------------------------------------------------

 SCF Done:  E(ROHF) =  -374.518049715     A.U. after   25 cycles
 E2 =    -0.1348560054D+01 EUMP2 =    -0.37586660976868D+03
 CCSD(T)
 CCSD(T)= -0.37588179147D+03

 The electronic state is 2-A".
 Alpha  occ. eigenvalues --  -20.49632 -20.46200 -20.39936 -20.33670 -11.19529
 Alpha  occ. eigenvalues --  -11.11444  -1.58642  -1.27535  -1.22426  -1.19969
 Alpha  occ. eigenvalues --   -0.82412  -0.69686  -0.65867  -0.54484  -0.48692
 Alpha  occ. eigenvalues --   -0.46996  -0.46837  -0.38450  -0.36845  -0.31268
 Alpha  occ. eigenvalues --   -0.29775   0.05836   0.11837
 Alpha virt. eigenvalues --    0.33145   0.35260   0.38228   0.42997   0.48704
 Alpha virt. eigenvalues --    0.51920   0.56163   0.57282   0.62671   0.64326
 Alpha virt. eigenvalues --    0.67278   0.77063   0.79308   0.82628   0.85606

 Mulliken charges and spin densities:
               1          2
     1  O   -0.436779   0.100929
     2  C   -0.245495   0.492545
     3  O    0.025346   0.006036
     4  O    0.044388   0.016014
     5  C   -0.069174   0.336364
     6  O   -0.318286   0.048113
 Sum of Mulliken charges =  -1.00000   1.00000

 Dipole moment (field-independent basis, Debye):
    X=              2.4539    Y=              0.6057    Z=              0.0000  Tot=              2.5276
 Quadrupole moment (field-independent basis, Debye-Ang):
   XX=            -43.1116   YY=            -54.6557   ZZ=            -34.8323
   XY=             -7.7422   XZ=              0.0000   YZ=              0.0000

 =-375.8023615\CCSD(T)=-375.8817915\RMSD=2.757e-09\PG=CS [SG(C2O4)]\\@
 Normal termination of Gaussian 16 at Mon Feb 19 14:19:50 2024.
