 Gaussian 16, Revision A.03,
 Gaussian 16:  ES64L-G16RevA.03 25-Dec-2016

 --------------------
 #p ROCCSD(T)/cc-pVTZ
 --------------------

 ---------
 CO2_CO2_4
 ---------
 Symbolic Z-matrix:
 Charge = -1 Multiplicity = 2

                         Standard orientation:
 ---------------------------------------------------------------------
 Center     Atomic      Atomic             Coordinates (Angstroms)
 Number     Number       Type             X           Y           Z
 ---------------------------------------------------------------------
      1          8           0        1.233548   -2.335048    0.000000
      2          6           0        0.411183   -1.512682    0.000000
      3          8           0       -0.411183   -0.690317    0.000000
      4          8           0       -0.411183    0.349683   -0.000000
      5          6           0       -0.411183    1.512682   -0.000000
      6          8           0       -0.411183    2.675682   -0.000000
 ---------------------------------------------------------------------

 SCF Done:  E(ROHF) =  -374.484819379     A.U. after   22 cycles
 E2 =    -0.1229724214D+01 EUMP2 =    -0.37571454359263D+03
 CCSD(T)
 CCSD(T)= -0.37577774783D+03

 The electronic state is 2-A".
 Alpha  occ. eigenvalues --  -20.55263 -20.52951 -20.39257 -20.29362 -11.19870
 Alpha  occ. eigenvalues --  -11.05426  -1.72122  -1.28040  -1.22946  -1.15533
 Alpha  occ. eigenvalues --   -0.99579  -0.76505  -0.74190  -0.54375  -0.49858
 Alpha  occ. eigenvalues --   -0.46057  -0.43931  -0.37714  -0.35623  -0.29442
 Alpha  occ. eigenvalues --   -0.26459   0.00299   0.06426
 Alpha virt. eigenvalues --    0.33182   0.36760   0.39767   0.45207   0.50353
 Alpha virt. eigenvalues --    0.53791   0.55057   0.57767   0.58782   0.66597
 Alpha virt. eigenvalues --    0.70929   0.79097   0.83994   0.86790   0.89904

 Mulliken charges and spin densities:
               1          2
     1  O   -0.530428   0.010480
     2  C   -0.336811   0.026805
     3  O    0.036984   0.020381
     4  O    0.420632   0.056606
     5  C   -0.136737   0.741605
     6  O   -0.453640   0.144122
 Sum of Mulliken charges =  -1.00000   1.00000

 Dipole moment (field-independent basis, Debye):
    X=             -3.5828    Y=              1.8641    Z=             -0.0000  Tot=              4.0387
 Quadrupole moment (field-independent basis, Debye-Ang):
   XX=            -39.3445   YY=            -67.2284   ZZ=            -33.2769
   XY=              9.8318   XZ=             -0.0000   YZ=              0.0000

 436\MP4SDQ=-375.7143912\CCSD=-375.7134093\CCSD(T)=-375.7777478\RMSD=5.
 Normal termination of Gaussian 16 at Mon Feb 19 12:11:12 2024.
