 Gaussian 16, Revision A.03,
 Gaussian 16:  ES64L-G16RevA.03 25-Dec-2016

 --------------------
 #p ROCCSD(T)/cc-pVTZ
 --------------------

 -----------
 CO2_CO2_288
 -----------
 Symbolic Z-matrix:
 Charge = -1 Multiplicity = 2

                         Standard orientation:
 ---------------------------------------------------------------------
 Center     Atomic      Atomic             Coordinates (Angstroms)
 Number     Number       Type             X           Y           Z
 ---------------------------------------------------------------------
      1          8           0        0.000000    0.000000    4.746000
      2          6           0        0.000000    0.000000    3.583000
      3          8           0        0.000000    0.000000    2.420000
      4          8           0        0.000000    0.000000   -2.420000
      5          6           0        0.000000    0.000000   -3.583000
      6          8           0        0.000000    0.000000   -4.746000
 ---------------------------------------------------------------------

 SCF Done:  E(ROHF) =  -375.220666130     A.U. after   12 cycles
 E2 =    -0.1232383727D+01 EUMP2 =    -0.37645304985757D+03
 CCSD(T)
 CCSD(T)= -0.37648858651D+03

 Unable to determine electronic state:  an orbital has unidentified symmetry.
 Alpha  occ. eigenvalues --  -20.42782 -20.42782 -20.42582 -20.42582 -11.21067
 Alpha  occ. eigenvalues --  -11.21067  -1.31541  -1.31541  -1.26100  -1.26098
 Alpha  occ. eigenvalues --   -0.60023  -0.59994  -0.53446  -0.53421  -0.52726
 Alpha  occ. eigenvalues --   -0.52708  -0.50160  -0.50159  -0.37170  -0.37024
 Alpha  occ. eigenvalues --   -0.33635  -0.33633   0.17680
 Alpha virt. eigenvalues --    0.25183   0.33602   0.33767   0.39944   0.39948
 Alpha virt. eigenvalues --    0.49262   0.50304   0.55942   0.55953   0.57623
 Alpha virt. eigenvalues --    0.57629   0.73897   0.73954   0.82440   0.83650

 Mulliken charges and spin densities:
               1          2
     1  O   -0.403228   0.058588
     2  C    0.268648   0.378373
     3  O   -0.365420   0.063040
     4  O   -0.365420   0.063040
     5  C    0.268648   0.378373
     6  O   -0.403228   0.058588
 Sum of Mulliken charges =  -1.00000   1.00000

 Dipole moment (field-independent basis, Debye):
    X=             -0.0000    Y=             -0.0000    Z=              0.0000  Tot=              0.0000
 Quadrupole moment (field-independent basis, Debye-Ang):
   XX=            -33.8348   YY=            -31.6306   ZZ=           -110.9295
   XY=              0.0000   XZ=              0.0000   YZ=             -0.0000

 6803\CCSD(T)=-376.4885865\RMSD=2.025e-09\PG=D*H [C*(O1C1O1.O1C1O1)]\\@
 Normal termination of Gaussian 16 at Tue Feb 20 17:19:40 2024.
