 Gaussian 16, Revision A.03,
 Gaussian 16:  ES64L-G16RevA.03 25-Dec-2016

 --------------------
 #p ROCCSD(T)/cc-pVTZ
 --------------------

 ----------
 CO2_CO2_33
 ----------
 Symbolic Z-matrix:
 Charge = -1 Multiplicity = 2

                         Standard orientation:
 ---------------------------------------------------------------------
 Center     Atomic      Atomic             Coordinates (Angstroms)
 Number     Number       Type             X           Y           Z
 ---------------------------------------------------------------------
      1          8           0        0.000000    0.000000    3.046000
      2          6           0        0.000000    0.000000    1.883000
      3          8           0        0.000000    0.000000    0.720000
      4          8           0        0.000000    0.000000   -0.720000
      5          6           0        0.000000    0.000000   -1.883000
      6          8           0        0.000000    0.000000   -3.046000
 ---------------------------------------------------------------------

 SCF Done:  E(ROHF) =  -374.940312553     A.U. after   13 cycles
 E2 =    -0.1274452277D+01 EUMP2 =    -0.37621476482980D+03
 CCSD(T)
 CCSD(T)= -0.37624580322D+03

 Unable to determine electronic state:  an orbital has unidentified symmetry.
 Alpha  occ. eigenvalues --  -20.37618 -20.37618 -20.36186 -20.36178 -11.13654
 Alpha  occ. eigenvalues --  -11.13654  -1.31578  -1.25717  -1.23561  -1.18876
 Alpha  occ. eigenvalues --   -0.76147  -0.52900  -0.51997  -0.50859  -0.48325
 Alpha  occ. eigenvalues --   -0.46547  -0.43834  -0.36652  -0.33020  -0.27616
 Alpha  occ. eigenvalues --   -0.25169  -0.20129   0.15292
 Alpha virt. eigenvalues --    0.35949   0.37070   0.39257   0.41494   0.46505
 Alpha virt. eigenvalues --    0.50007   0.57563   0.58411   0.59370   0.61114
 Alpha virt. eigenvalues --    0.63954   0.74759   0.81924   0.86658   0.90505

 Mulliken charges and spin densities:
               1          2
     1  O   -0.493898   0.061103
     2  C    0.212865   0.382801
     3  O   -0.218967   0.056096
     4  O   -0.218967   0.056096
     5  C    0.212865   0.382801
     6  O   -0.493898   0.061103
 Sum of Mulliken charges =  -1.00000   1.00000

 Dipole moment (field-independent basis, Debye):
    X=             -0.0000    Y=             -0.0000    Z=              0.0000  Tot=              0.0000
 Quadrupole moment (field-independent basis, Debye-Ang):
   XX=            -31.5491   YY=            -33.7322   ZZ=            -71.8482
   XY=              0.0000   XZ=              0.0000   YZ=              0.0000

 02\CCSD(T)=-376.2458032\RMSD=6.889e-09\PG=D*H [C*(O1C1O1.O1C1O1)]\\@
 Normal termination of Gaussian 16 at Mon Feb 19 16:49:11 2024.
