 Gaussian 16, Revision A.03,
 Gaussian 16:  ES64L-G16RevA.03 25-Dec-2016

 --------------------
 #p ROCCSD(T)/cc-pVTZ
 --------------------

 -----------
 CO2_CO2_243
 -----------
 Symbolic Z-matrix:
 Charge = -1 Multiplicity = 2

                         Standard orientation:
 ---------------------------------------------------------------------
 Center     Atomic      Atomic             Coordinates (Angstroms)
 Number     Number       Type             X           Y           Z
 ---------------------------------------------------------------------
      1          8           0        0.000000    0.000000    4.446000
      2          6           0        0.000000    0.000000    3.283000
      3          8           0        0.000000    0.000000    2.120000
      4          8           0        0.000000    0.000000   -2.120000
      5          6           0        0.000000    0.000000   -3.283000
      6          8           0        0.000000    0.000000   -4.446000
 ---------------------------------------------------------------------

 SCF Done:  E(ROHF) =  -375.220174030     A.U. after   12 cycles
 E2 =    -0.1232528889D+01 EUMP2 =    -0.37645270291891D+03
 CCSD(T)
 CCSD(T)= -0.37648850006D+03

 Unable to determine electronic state:  an orbital has unidentified symmetry.
 Alpha  occ. eigenvalues --  -20.42391 -20.42391 -20.42154 -20.42154 -11.20643
 Alpha  occ. eigenvalues --  -11.20643  -1.31134  -1.31132  -1.25685  -1.25680
 Alpha  occ. eigenvalues --   -0.59623  -0.59544  -0.53039  -0.52936  -0.52322
 Alpha  occ. eigenvalues --   -0.52294  -0.49756  -0.49751  -0.36779  -0.36573
 Alpha  occ. eigenvalues --   -0.33221  -0.33208   0.17721
 Alpha virt. eigenvalues --    0.25959   0.33839   0.34239   0.40328   0.40350
 Alpha virt. eigenvalues --    0.48764   0.51513   0.56301   0.56330   0.57988
 Alpha virt. eigenvalues --    0.58016   0.74276   0.74342   0.80858   0.84967

 Mulliken charges and spin densities:
               1          2
     1  O   -0.406236   0.058191
     2  C    0.265895   0.378335
     3  O   -0.359659   0.063474
     4  O   -0.359659   0.063474
     5  C    0.265895   0.378335
     6  O   -0.406236   0.058191
 Sum of Mulliken charges =  -1.00000   1.00000

 Dipole moment (field-independent basis, Debye):
    X=             -0.0000    Y=             -0.0000    Z=              0.0000  Tot=              0.0000
 Quadrupole moment (field-independent basis, Debye-Ang):
   XX=            -31.6364   YY=            -33.8439   ZZ=           -101.3291
   XY=              0.0000   XZ=              0.0000   YZ=             -0.0000

 85\CCSD(T)=-376.4885001\RMSD=2.153e-09\PG=D*H [C*(O1C1O1.O1C1O1)]\\@
 Normal termination of Gaussian 16 at Tue Feb 20 11:24:38 2024.
