 Gaussian 16, Revision A.03,
 Gaussian 16:  ES64L-G16RevA.03 25-Dec-2016

 --------------------
 #p ROCCSD(T)/cc-pVTZ
 --------------------

 -----------
 CO2_CO2_145
 -----------
 Symbolic Z-matrix:
 Charge = -1 Multiplicity = 2

                         Standard orientation:
 ---------------------------------------------------------------------
 Center     Atomic      Atomic             Coordinates (Angstroms)
 Number     Number       Type             X           Y           Z
 ---------------------------------------------------------------------
      1          8           0        1.233548   -3.275048   -0.000000
      2          6           0        0.411183   -2.452683   -0.000000
      3          8           0       -0.411183   -1.630317   -0.000000
      4          8           0       -0.411183    1.289683    0.000000
      5          6           0       -0.411183    2.452683    0.000000
      6          8           0       -0.411183    3.615682    0.000000
 ---------------------------------------------------------------------

 SCF Done:  E(ROHF) =  -375.219320167     A.U. after   16 cycles
 E2 =    -0.1233909437D+01 EUMP2 =    -0.37645322960383D+03
 CCSD(T)
 CCSD(T)= -0.37648995554D+03

 The electronic state is 2-A".
 Alpha  occ. eigenvalues --  -20.41416 -20.41077 -20.40601 -20.40325 -11.19589
 Alpha  occ. eigenvalues --  -11.18635  -1.30094  -1.29326  -1.24607  -1.23837
 Alpha  occ. eigenvalues --   -0.58715  -0.57657  -0.52179  -0.51202  -0.50715
 Alpha  occ. eigenvalues --   -0.50574  -0.48713  -0.47874  -0.35617  -0.34752
 Alpha  occ. eigenvalues --   -0.32126  -0.31345   0.17646
 Alpha virt. eigenvalues --    0.28844   0.34720   0.35992   0.41351   0.42087
 Alpha virt. eigenvalues --    0.50167   0.54079   0.57075   0.57970   0.58654
 Alpha virt. eigenvalues --    0.60653   0.74989   0.76034   0.82967   0.84577

 Mulliken charges and spin densities:
               1          2
     1  O   -0.423805   0.059482
     2  C    0.256923   0.385655
     3  O   -0.344109   0.065980
     4  O   -0.323408   0.064127
     5  C    0.257222   0.369163
     6  O   -0.422822   0.055593
 Sum of Mulliken charges =  -1.00000   1.00000

 Dipole moment (field-independent basis, Debye):
    X=             -0.2098    Y=              0.1872    Z=              0.0000  Tot=              0.2812
 Quadrupole moment (field-independent basis, Debye-Ang):
   XX=            -36.3978   YY=            -75.0680   ZZ=            -33.8542
   XY=              9.2876   XZ=              0.0000   YZ=             -0.0000

 32296\MP4SDQ=-376.4386361\CCSD=-376.4325443\CCSD(T)=-376.4899555\RMSD=
 Normal termination of Gaussian 16 at Tue Feb 20 09:10:35 2024.
