 Gaussian 16, Revision A.03,
 Gaussian 16:  ES64L-G16RevA.03 25-Dec-2016

 --------------------
 #p ROCCSD(T)/cc-pVTZ
 --------------------

 -----------
 CO2_CO2_300
 -----------
 Symbolic Z-matrix:
 Charge = -1 Multiplicity = 2

                         Standard orientation:
 ---------------------------------------------------------------------
 Center     Atomic      Atomic             Coordinates (Angstroms)
 Number     Number       Type             X           Y           Z
 ---------------------------------------------------------------------
      1          8           0        0.000000    0.000000    4.826000
      2          6           0        0.000000    0.000000    3.663000
      3          8           0        0.000000    0.000000    2.500000
      4          8           0        0.000000    0.000000   -2.500000
      5          6           0        0.000000    0.000000   -3.663000
      6          8           0        0.000000    0.000000   -4.826000
 ---------------------------------------------------------------------

 SCF Done:  E(ROHF) =  -375.220786394     A.U. after   12 cycles
 E2 =    -0.1232370299D+01 EUMP2 =    -0.37645315669372D+03
 CCSD(T)
 CCSD(T)= -0.37648863256D+03

 Unable to determine electronic state:  an orbital has unidentified symmetry.
 Alpha  occ. eigenvalues --  -20.42874 -20.42874 -20.42683 -20.42683 -11.21166
 Alpha  occ. eigenvalues --  -11.21166  -1.31637  -1.31637  -1.26198  -1.26196
 Alpha  occ. eigenvalues --   -0.60120  -0.60097  -0.53546  -0.53529  -0.52822
 Alpha  occ. eigenvalues --   -0.52805  -0.50256  -0.50256  -0.37263  -0.37129
 Alpha  occ. eigenvalues --   -0.33734  -0.33732   0.17669
 Alpha virt. eigenvalues --    0.25001   0.33536   0.33659   0.39852   0.39854
 Alpha virt. eigenvalues --    0.49314   0.50063   0.55855   0.55864   0.57534
 Alpha virt. eigenvalues --    0.57538   0.73810   0.73855   0.82566   0.83368

 Mulliken charges and spin densities:
               1          2
     1  O   -0.402577   0.058681
     2  C    0.269237   0.378389
     3  O   -0.366660   0.062930
     4  O   -0.366660   0.062930
     5  C    0.269237   0.378389
     6  O   -0.402577   0.058681
 Sum of Mulliken charges =  -1.00000   1.00000

 Dipole moment (field-independent basis, Debye):
    X=             -0.0000    Y=             -0.0000    Z=              0.0000  Tot=              0.0000
 Quadrupole moment (field-independent basis, Debye-Ang):
   XX=            -33.8329   YY=            -31.6294   ZZ=           -113.6438
   XY=              0.0000   XZ=              0.0000   YZ=             -0.0000

 74\CCSD(T)=-376.4886326\RMSD=1.994e-09\PG=D*H [C*(O1C1O1.O1C1O1)]\\@
 Normal termination of Gaussian 16 at Tue Feb 20 18:53:46 2024.
