 Gaussian 16, Revision A.03,
 Gaussian 16:  ES64L-G16RevA.03 25-Dec-2016

 --------------------
 #p ROCCSD(T)/cc-pVTZ
 --------------------

 -----------
 CO2_CO2_133
 -----------
 Symbolic Z-matrix:
 Charge = -1 Multiplicity = 2

                         Standard orientation:
 ---------------------------------------------------------------------
 Center     Atomic      Atomic             Coordinates (Angstroms)
 Number     Number       Type             X           Y           Z
 ---------------------------------------------------------------------
      1          8           0        1.233548   -3.195048   -0.000000
      2          6           0        0.411183   -2.372683   -0.000000
      3          8           0       -0.411183   -1.550317   -0.000000
      4          8           0       -0.411183    1.209683    0.000000
      5          6           0       -0.411183    2.372683    0.000000
      6          8           0       -0.411183    3.535682    0.000000
 ---------------------------------------------------------------------

 SCF Done:  E(ROHF) =  -375.218615067     A.U. after   16 cycles
 E2 =    -0.1234477417D+01 EUMP2 =    -0.37645309248353D+03
 CCSD(T)
 CCSD(T)= -0.37649007547D+03

 The electronic state is 2-A".
 Alpha  occ. eigenvalues --  -20.41242 -20.40877 -20.40337 -20.40048 -11.19381
 Alpha  occ. eigenvalues --  -11.18317  -1.29914  -1.29062  -1.24421  -1.23559
 Alpha  occ. eigenvalues --   -0.58686  -0.57323  -0.52166  -0.51017  -0.50313
 Alpha  occ. eigenvalues --   -0.50218  -0.48531  -0.47558  -0.35459  -0.34420
 Alpha  occ. eigenvalues --   -0.31946  -0.31042   0.17610
 Alpha virt. eigenvalues --    0.29317   0.34833   0.36264   0.41521   0.42316
 Alpha virt. eigenvalues --    0.50554   0.54307   0.57127   0.58236   0.58705
 Alpha virt. eigenvalues --    0.61184   0.74963   0.76274   0.83615   0.85562

 Mulliken charges and spin densities:
               1          2
     1  O   -0.427269   0.059686
     2  C    0.254920   0.386012
     3  O   -0.339997   0.066717
     4  O   -0.314733   0.064570
     5  C    0.254172   0.367710
     6  O   -0.427093   0.055305
 Sum of Mulliken charges =  -1.00000   1.00000

 Dipole moment (field-independent basis, Debye):
    X=             -0.2308    Y=              0.2079    Z=              0.0000  Tot=              0.3106
 Quadrupole moment (field-independent basis, Debye-Ang):
   XX=            -36.4214   YY=            -73.3704   ZZ=            -33.8546
   XY=              9.1755   XZ=             -0.0000   YZ=             -0.0000

 925\MP4SDQ=-376.4385318\CCSD=-376.4321554\CCSD(T)=-376.4900755\RMSD=5.
 Normal termination of Gaussian 16 at Wed Feb 21 10:18:23 2024.
