 Gaussian 16, Revision A.03,
 Gaussian 16:  ES64L-G16RevA.03 25-Dec-2016

 --------------------
 #p ROCCSD(T)/cc-pVTZ
 --------------------

 ----------
 CO2_CO2_65
 ----------
 Symbolic Z-matrix:
 Charge = -1 Multiplicity = 2

                         Standard orientation:
 ---------------------------------------------------------------------
 Center     Atomic      Atomic             Coordinates (Angstroms)
 Number     Number       Type             X           Y           Z
 ---------------------------------------------------------------------
      1          8           0       -1.744500   -1.501500    0.000000
      2          6           0       -0.581500   -1.501500    0.000000
      3          8           0        0.581500   -1.501500    0.000000
      4          8           0        0.581500    0.338500    0.000000
      5          6           0        0.581500    1.501500    0.000000
      6          8           0        0.581500    2.664500    0.000000
 ---------------------------------------------------------------------

 SCF Done:  E(ROHF) =  -375.179204429     A.U. after   39 cycles
 E2 =    -0.1246507989D+01 EUMP2 =    -0.37642571241788D+03
 CCSD(T)
 CCSD(T)= -0.37646504484D+03

 The electronic state is 2-A'.
 Alpha  occ. eigenvalues --  -20.45985 -20.43664 -20.37468 -20.36537 -11.26379
 Alpha  occ. eigenvalues --  -11.17120  -1.34341  -1.29446  -1.26271  -1.21652
 Alpha  occ. eigenvalues --   -0.63142  -0.61024  -0.55550  -0.52644  -0.52096
 Alpha  occ. eigenvalues --   -0.46629  -0.45367  -0.45081  -0.35531  -0.30694
 Alpha  occ. eigenvalues --   -0.29569  -0.28164   0.13020
 Alpha virt. eigenvalues --    0.35136   0.38370   0.39325   0.41980   0.43648
 Alpha virt. eigenvalues --    0.50086   0.55111   0.55495   0.59350   0.63605
 Alpha virt. eigenvalues --    0.65421   0.73684   0.78566   0.82462   0.88006

 Mulliken charges and spin densities:
               1          2
     1  O   -0.309140  -0.036337
     2  C    0.295307   0.239399
     3  O   -0.204340  -0.037380
     4  O   -0.039083  -0.202184
     5  C   -0.530173   1.197891
     6  O   -0.212572  -0.161390
 Sum of Mulliken charges =  -1.00000   1.00000

 Dipole moment (field-independent basis, Debye):
    X=             -2.2524    Y=             -4.4457    Z=              0.0000  Tot=              4.9837
 Quadrupole moment (field-independent basis, Debye-Ang):
   XX=            -44.1603   YY=            -53.0693   ZZ=            -34.5264
   XY=             -6.6562   XZ=              0.0000   YZ=              0.0000

 D=-376.4031161\CCSD(T)=-376.4650448\RMSD=4.219e-09\PG=CS [SG(C2O4)]\\@
 Normal termination of Gaussian 16 at Tue Feb 20 09:24:25 2024.
