 Gaussian 16, Revision A.03,
 Gaussian 16:  ES64L-G16RevA.03 25-Dec-2016

 --------------------
 #p ROCCSD(T)/cc-pVTZ
 --------------------

 ----------
 CO2_CO2_24
 ----------
 Symbolic Z-matrix:
 Charge = -1 Multiplicity = 2

                         Standard orientation:
 ---------------------------------------------------------------------
 Center     Atomic      Atomic             Coordinates (Angstroms)
 Number     Number       Type             X           Y           Z
 ---------------------------------------------------------------------
      1          8           0        0.000000    0.000000    2.986000
      2          6           0        0.000000    0.000000    1.823000
      3          8           0        0.000000    0.000000    0.660000
      4          8           0        0.000000    0.000000   -0.660000
      5          6           0        0.000000    0.000000   -1.823000
      6          8           0        0.000000    0.000000   -2.986000
 ---------------------------------------------------------------------

 SCF Done:  E(ROHF) =  -374.790193215     A.U. after   14 cycles
 E2 =    -0.1297001946D+01 EUMP2 =    -0.37608719516090D+03
 CCSD(T)
 CCSD(T)= -0.37611491689D+03

 Unable to determine electronic state:  an orbital has unidentified symmetry.
 Alpha  occ. eigenvalues --  -20.37010 -20.37010 -20.36770 -20.36751 -11.12582
 Alpha  occ. eigenvalues --  -11.12582  -1.35956  -1.25113  -1.23367  -1.18242
 Alpha  occ. eigenvalues --   -0.81480  -0.52692  -0.52352  -0.51594  -0.50290
 Alpha  occ. eigenvalues --   -0.45902  -0.43108  -0.37556  -0.33906  -0.26526
 Alpha  occ. eigenvalues --   -0.24103  -0.10638   0.14456
 Alpha virt. eigenvalues --    0.35763   0.38264   0.40140   0.40867   0.47074
 Alpha virt. eigenvalues --    0.49593   0.57604   0.58757   0.59512   0.61684
 Alpha virt. eigenvalues --    0.64656   0.74150   0.83434   0.86355   0.92422

 Mulliken charges and spin densities:
               1          2
     1  O   -0.487800   0.063249
     2  C    0.180388   0.390869
     3  O   -0.192588   0.045882
     4  O   -0.192588   0.045882
     5  C    0.180388   0.390869
     6  O   -0.487800   0.063249
 Sum of Mulliken charges =  -1.00000   1.00000

 Dipole moment (field-independent basis, Debye):
    X=             -0.0000    Y=             -0.0000    Z=             -0.0000  Tot=              0.0000
 Quadrupole moment (field-independent basis, Debye-Ang):
   XX=            -33.7763   YY=            -31.5480   ZZ=            -72.0131
   XY=             -0.0000   XZ=              0.0000   YZ=              0.0000

 034\CCSD(T)=-376.1149169\RMSD=9.139e-10\PG=D*H [C*(O1C1O1.O1C1O1)]\\@
 Normal termination of Gaussian 16 at Mon Feb 19 15:26:22 2024.
