 Gaussian 16, Revision A.03,
 Gaussian 16:  ES64L-G16RevA.03 25-Dec-2016

 --------------------
 #p ROCCSD(T)/cc-pVTZ
 --------------------

 ----------
 CO2_CO2_86
 ----------
 Symbolic Z-matrix:
 Charge = -1 Multiplicity = 2

                         Standard orientation:
 ---------------------------------------------------------------------
 Center     Atomic      Atomic             Coordinates (Angstroms)
 Number     Number       Type             X           Y           Z
 ---------------------------------------------------------------------
      1          8           0       -1.744500   -1.641500    0.000000
      2          6           0       -0.581500   -1.641500    0.000000
      3          8           0        0.581500   -1.641500    0.000000
      4          8           0        0.581500    0.478500    0.000000
      5          6           0        0.581500    1.641500    0.000000
      6          8           0        0.581500    2.804500    0.000000
 ---------------------------------------------------------------------

 SCF Done:  E(ROHF) =  -375.233395238     A.U. after   42 cycles
 E2 =    -0.1241145512D+01 EUMP2 =    -0.37647454074965D+03
 CCSD(T)
 CCSD(T)= -0.37651288695D+03

 The electronic state is 2-A'.
 Alpha  occ. eigenvalues --  -20.47315 -20.45846 -20.38268 -20.37830 -11.28019
 Alpha  occ. eigenvalues --  -11.18830  -1.35179  -1.29948  -1.27403  -1.22608
 Alpha  occ. eigenvalues --   -0.62740  -0.59478  -0.56517  -0.53662  -0.52923
 Alpha  occ. eigenvalues --   -0.48062  -0.46196  -0.45695  -0.36604  -0.34963
 Alpha  occ. eigenvalues --   -0.29616  -0.28886   0.13595
 Alpha virt. eigenvalues --    0.33792   0.37369   0.38387   0.42060   0.43018
 Alpha virt. eigenvalues --    0.49410   0.54222   0.54720   0.58893   0.62777
 Alpha virt. eigenvalues --    0.64783   0.72799   0.77626   0.81779   0.86041

 Mulliken charges and spin densities:
               1          2
     1  O   -0.285025  -0.046418
     2  C    0.304266   0.248804
     3  O   -0.214273  -0.042732
     4  O    0.002291  -0.245786
     5  C   -0.648060   1.289773
     6  O   -0.159198  -0.203641
 Sum of Mulliken charges =  -1.00000   1.00000

 Dipole moment (field-independent basis, Debye):
    X=             -2.1398    Y=             -5.0643    Z=              0.0000  Tot=              5.4978
 Quadrupole moment (field-independent basis, Debye-Ang):
   XX=            -43.8505   YY=            -54.3361   ZZ=            -35.0320
   XY=             -6.5851   XZ=              0.0000   YZ=              0.0000

 D=-376.4516125\CCSD(T)=-376.512887\RMSD=1.542e-09\PG=CS [SG(C2O4)]\\@
 Normal termination of Gaussian 16 at Tue Feb 20 13:03:52 2024.
