 Gaussian 16, Revision A.03,
 Gaussian 16:  ES64L-G16RevA.03 25-Dec-2016

 --------------------
 #p ROCCSD(T)/cc-pVTZ
 --------------------

 -----------
 CO2_CO2_110
 -----------
 Symbolic Z-matrix:
 Charge = -1 Multiplicity = 2

                         Standard orientation:
 ---------------------------------------------------------------------
 Center     Atomic      Atomic             Coordinates (Angstroms)
 Number     Number       Type             X           Y           Z
 ---------------------------------------------------------------------
      1          8           0       -1.744500   -1.801500    0.000000
      2          6           0       -0.581500   -1.801500    0.000000
      3          8           0        0.581500   -1.801500    0.000000
      4          8           0        0.581500    0.638500    0.000000
      5          6           0        0.581500    1.801500    0.000000
      6          8           0        0.581500    2.964500    0.000000
 ---------------------------------------------------------------------

 SCF Done:  E(ROHF) =  -375.252793448     A.U. after   41 cycles
 E2 =    -0.1237409390D+01 EUMP2 =    -0.37649020283794D+03
 CCSD(T)
 CCSD(T)= -0.37652890892D+03

 The electronic state is 2-A'.
 Alpha  occ. eigenvalues --  -20.48581 -20.47691 -20.38216 -20.38130 -11.29440
 Alpha  occ. eigenvalues --  -11.19059  -1.36348  -1.31057  -1.27464  -1.22614
 Alpha  occ. eigenvalues --   -0.63800  -0.58175  -0.57213  -0.54857  -0.53655
 Alpha  occ. eigenvalues --   -0.49167  -0.46141  -0.45646  -0.37851  -0.37352
 Alpha  occ. eigenvalues --   -0.29410  -0.28845   0.13917
 Alpha virt. eigenvalues --    0.32436   0.36287   0.37234   0.42286   0.43017
 Alpha virt. eigenvalues --    0.48599   0.53599   0.54063   0.58711   0.62346
 Alpha virt. eigenvalues --    0.63822   0.72559   0.76868   0.81153   0.84747

 Mulliken charges and spin densities:
               1          2
     1  O   -0.276264  -0.044286
     2  C    0.327017   0.230543
     3  O   -0.217802  -0.041771
     4  O   -0.011972  -0.250700
     5  C   -0.677032   1.320054
     6  O   -0.143947  -0.213841
 Sum of Mulliken charges =  -1.00000   1.00000

 Dipole moment (field-independent basis, Debye):
    X=             -2.2865    Y=             -5.8271    Z=              0.0000  Tot=              6.2597
 Quadrupole moment (field-independent basis, Debye-Ang):
   XX=            -43.6406   YY=            -56.5036   ZZ=            -35.0812
   XY=             -6.9920   XZ=              0.0000   YZ=              0.0000

 SD=-376.4681073\CCSD(T)=-376.5289089\RMSD=6.781e-09\PG=CS [SG(C2O4)]\\
 Normal termination of Gaussian 16 at Tue Feb 20 17:07:57 2024.
