 Gaussian 16, Revision A.03,
 Gaussian 16:  ES64L-G16RevA.03 25-Dec-2016

 --------------------
 #p ROCCSD(T)/cc-pVTZ
 --------------------

 ----------
 CO2_CO2_98
 ----------
 Symbolic Z-matrix:
 Charge = -1 Multiplicity = 2

                         Standard orientation:
 ---------------------------------------------------------------------
 Center     Atomic      Atomic             Coordinates (Angstroms)
 Number     Number       Type             X           Y           Z
 ---------------------------------------------------------------------
      1          8           0       -1.744500   -1.721500    0.000000
      2          6           0       -0.581500   -1.721500    0.000000
      3          8           0        0.581500   -1.721500    0.000000
      4          8           0        0.581500    0.558500    0.000000
      5          6           0        0.581500    1.721500    0.000000
      6          8           0        0.581500    2.884500    0.000000
 ---------------------------------------------------------------------

 SCF Done:  E(ROHF) =  -375.246279635     A.U. after   37 cycles
 E2 =    -0.1239000659D+01 EUMP2 =    -0.37648528029416D+03
 CCSD(T)
 CCSD(T)= -0.37652374671D+03

 The electronic state is 2-A'.
 Alpha  occ. eigenvalues --  -20.47967 -20.46835 -20.38295 -20.38070 -11.28764
 Alpha  occ. eigenvalues --  -11.19041  -1.35760  -1.30473  -1.27508  -1.22669
 Alpha  occ. eigenvalues --   -0.63251  -0.58497  -0.57046  -0.54263  -0.53256
 Alpha  occ. eigenvalues --   -0.48769  -0.46213  -0.45714  -0.37234  -0.36344
 Alpha  occ. eigenvalues --   -0.29523  -0.28916   0.13770
 Alpha virt. eigenvalues --    0.33091   0.36822   0.37823   0.42167   0.42977
 Alpha virt. eigenvalues --    0.49004   0.53898   0.54387   0.58780   0.62523
 Alpha virt. eigenvalues --    0.64341   0.72638   0.77226   0.81477   0.85437

 Mulliken charges and spin densities:
               1          2
     1  O   -0.279488  -0.046177
     2  C    0.315377   0.241397
     3  O   -0.216524  -0.042863
     4  O   -0.001063  -0.251234
     5  C   -0.668448   1.309223
     6  O   -0.149854  -0.210345
 Sum of Mulliken charges =  -1.00000   1.00000

 Dipole moment (field-independent basis, Debye):
    X=             -2.1917    Y=             -5.4372    Z=              0.0000  Tot=              5.8623
 Quadrupole moment (field-independent basis, Debye-Ang):
   XX=            -43.7277   YY=            -55.3526   ZZ=            -35.0868
   XY=             -6.7448   XZ=              0.0000   YZ=              0.0000

 D=-376.4627425\CCSD(T)=-376.5237467\RMSD=2.727e-09\PG=CS [SG(C2O4)]\\@
 Normal termination of Gaussian 16 at Tue Feb 20 15:05:12 2024.
