 Gaussian 16, Revision A.03,
 Gaussian 16:  ES64L-G16RevA.03 25-Dec-2016

 --------------------
 #p ROCCSD(T)/cc-pVTZ
 --------------------

 ----------
 CO2_CO2_55
 ----------
 Symbolic Z-matrix:
 Charge = -1 Multiplicity = 2

                         Standard orientation:
 ---------------------------------------------------------------------
 Center     Atomic      Atomic             Coordinates (Angstroms)
 Number     Number       Type             X           Y           Z
 ---------------------------------------------------------------------
      1          8           0        1.233548   -2.675048    0.000000
      2          6           0        0.411183   -1.852683    0.000000
      3          8           0       -0.411183   -1.030318    0.000000
      4          8           0       -0.411183    0.689683   -0.000000
      5          6           0       -0.411183    1.852683   -0.000000
      6          8           0       -0.411183    3.015682   -0.000000
 ---------------------------------------------------------------------

 SCF Done:  E(ROHF) =  -375.120822040     A.U. after   17 cycles
 E2 =    -0.1253224622D+01 EUMP2 =    -0.37637404666169D+03
 CCSD(T)
 CCSD(T)= -0.37640955681D+03

 The electronic state is 2-A".
 Alpha  occ. eigenvalues --  -20.40098 -20.38700 -20.36999 -20.36522 -11.17491
 Alpha  occ. eigenvalues --  -11.14088  -1.29481  -1.26556  -1.23673  -1.20212
 Alpha  occ. eigenvalues --   -0.66137  -0.54691  -0.52026  -0.50311  -0.48229
 Alpha  occ. eigenvalues --   -0.47457  -0.45412  -0.38459  -0.35564  -0.30893
 Alpha  occ. eigenvalues --   -0.30106  -0.24655   0.16420
 Alpha virt. eigenvalues --    0.34358   0.35319   0.38895   0.42247   0.44533
 Alpha virt. eigenvalues --    0.52585   0.55981   0.56930   0.58841   0.61087
 Alpha virt. eigenvalues --    0.66320   0.75635   0.79505   0.86692   0.87822

 Mulliken charges and spin densities:
               1          2
     1  O   -0.469030   0.066932
     2  C    0.219432   0.417679
     3  O   -0.306666   0.066644
     4  O   -0.237331   0.060514
     5  C    0.256365   0.337063
     6  O   -0.462770   0.051168
 Sum of Mulliken charges =  -1.00000   1.00000

 Dipole moment (field-independent basis, Debye):
    X=             -0.6159    Y=              0.8740    Z=             -0.0000  Tot=              1.0692
 Quadrupole moment (field-independent basis, Debye-Ang):
   XX=            -36.7523   YY=            -65.0891   ZZ=            -33.8147
   XY=              8.7866   XZ=             -0.0000   YZ=              0.0000

 67\MP4SDQ=-376.3560948\CCSD=-376.3485128\CCSD(T)=-376.4095568\RMSD=7.6
 Normal termination of Gaussian 16 at Mon Feb 19 20:11:09 2024.
