 Gaussian 16, Revision A.03,
 Gaussian 16:  ES64L-G16RevA.03 25-Dec-2016

 --------------------
 #p ROCCSD(T)/cc-pVTZ
 --------------------

 -----------
 CO2_CO2_171
 -----------
 Symbolic Z-matrix:
 Charge = -1 Multiplicity = 2

                         Standard orientation:
 ---------------------------------------------------------------------
 Center     Atomic      Atomic             Coordinates (Angstroms)
 Number     Number       Type             X           Y           Z
 ---------------------------------------------------------------------
      1          8           0        0.000000    0.000000    3.966000
      2          6           0        0.000000    0.000000    2.803000
      3          8           0        0.000000    0.000000    1.640000
      4          8           0        0.000000    0.000000   -1.640000
      5          6           0        0.000000    0.000000   -2.803000
      6          8           0        0.000000    0.000000   -3.966000
 ---------------------------------------------------------------------

 SCF Done:  E(ROHF) =  -375.219426755     A.U. after   12 cycles
 E2 =    -0.1233423811D+01 EUMP2 =    -0.37645285056609D+03
 CCSD(T)
 CCSD(T)= -0.37648924819D+03

 Unable to determine electronic state:  an orbital has unidentified symmetry.
 Alpha  occ. eigenvalues --  -20.41553 -20.41553 -20.41269 -20.41268 -11.19712
 Alpha  occ. eigenvalues --  -11.19712  -1.30275  -1.30256  -1.24809  -1.24767
 Alpha  occ. eigenvalues --   -0.58932  -0.58434  -0.52390  -0.51594  -0.51480
 Alpha  occ. eigenvalues --   -0.51389  -0.48913  -0.48864  -0.35983  -0.35519
 Alpha  occ. eigenvalues --   -0.32385  -0.32253   0.17745
 Alpha virt. eigenvalues --    0.27693   0.34565   0.35101   0.41052   0.41274
 Alpha virt. eigenvalues --    0.49225   0.53467   0.56964   0.57160   0.58647
 Alpha virt. eigenvalues --    0.58907   0.74859   0.75214   0.78021   0.85863

 Mulliken charges and spin densities:
               1          2
     1  O   -0.417757   0.057509
     2  C    0.258371   0.378042
     3  O   -0.340614   0.064448
     4  O   -0.340614   0.064448
     5  C    0.258371   0.378042
     6  O   -0.417757   0.057509
 Sum of Mulliken charges =  -1.00000   1.00000

 Dipole moment (field-independent basis, Debye):
    X=             -0.0000    Y=             -0.0000    Z=             -0.0000  Tot=              0.0000
 Quadrupole moment (field-independent basis, Debye-Ang):
   XX=            -31.6500   YY=            -33.8655   ZZ=            -87.9206
   XY=              0.0000   XZ=              0.0000   YZ=              0.0000

 231\CCSD(T)=-376.4892482\RMSD=2.520e-09\PG=D*H [C*(O1C1O1.O1C1O1)]\\@
 Normal termination of Gaussian 16 at Tue Feb 20 12:19:27 2024.
