 Gaussian 16, Revision A.03,
 Gaussian 16:  ES64L-G16RevA.03 25-Dec-2016

 --------------------
 #p ROCCSD(T)/cc-pVTZ
 --------------------

 -----------
 CO2_CO2_118
 -----------
 Symbolic Z-matrix:
 Charge = -1 Multiplicity = 2

                         Standard orientation:
 ---------------------------------------------------------------------
 Center     Atomic      Atomic             Coordinates (Angstroms)
 Number     Number       Type             X           Y           Z
 ---------------------------------------------------------------------
      1          8           0        1.233548   -3.095048    0.000000
      2          6           0        0.411183   -2.272683    0.000000
      3          8           0       -0.411183   -1.450317    0.000000
      4          8           0       -0.411183    1.109682   -0.000000
      5          6           0       -0.411183    2.272683   -0.000000
      6          8           0       -0.411183    3.435683   -0.000000
 ---------------------------------------------------------------------

 SCF Done:  E(ROHF) =  -375.216735568     A.U. after   16 cycles
 E2 =    -0.1235479910D+01 EUMP2 =    -0.37645221547768D+03
 CCSD(T)
 CCSD(T)= -0.37648939815D+03

 The electronic state is 2-A".
 Alpha  occ. eigenvalues --  -20.41011 -20.40595 -20.39958 -20.39644 -11.19091
 Alpha  occ. eigenvalues --  -11.17854  -1.29680  -1.28688  -1.24183  -1.23162
 Alpha  occ. eigenvalues --   -0.58781  -0.56846  -0.52226  -0.50778  -0.49942
 Alpha  occ. eigenvalues --   -0.49458  -0.48282  -0.47043  -0.35272  -0.33928
 Alpha  occ. eigenvalues --   -0.31719  -0.30584   0.17538
 Alpha virt. eigenvalues --    0.29985   0.34954   0.36642   0.41743   0.42626
 Alpha virt. eigenvalues --    0.50942   0.54599   0.57157   0.58617   0.58752
 Alpha virt. eigenvalues --    0.61960   0.74932   0.76637   0.83809   0.86159

 Mulliken charges and spin densities:
               1          2
     1  O   -0.432116   0.060063
     2  C    0.252835   0.386729
     3  O   -0.335422   0.067843
     4  O   -0.302406   0.065232
     5  C    0.250103   0.365224
     6  O   -0.432993   0.054909
 Sum of Mulliken charges =  -1.00000   1.00000

 Dipole moment (field-independent basis, Debye):
    X=             -0.2631    Y=              0.2455    Z=             -0.0000  Tot=              0.3599
 Quadrupole moment (field-independent basis, Debye-Ang):
   XX=            -36.4575   YY=            -71.3723   ZZ=            -33.8535
   XY=              9.0452   XZ=             -0.0000   YZ=              0.0000

 22155\MP4SDQ=-376.4376347\CCSD=-376.4310526\CCSD(T)=-376.4893981\RMSD=
 Normal termination of Gaussian 16 at Tue Feb 20 18:26:19 2024.
