 Gaussian 16, Revision A.03,
 Gaussian 16:  ES64L-G16RevA.03 25-Dec-2016

 --------------------
 #p ROCCSD(T)/cc-pVTZ
 --------------------

 ----------
 CO2_CO2_34
 ----------
 Symbolic Z-matrix:
 Charge = -1 Multiplicity = 2

                         Standard orientation:
 ---------------------------------------------------------------------
 Center     Atomic      Atomic             Coordinates (Angstroms)
 Number     Number       Type             X           Y           Z
 ---------------------------------------------------------------------
      1          8           0        1.233548   -2.535048    0.000000
      2          6           0        0.411183   -1.712683    0.000000
      3          8           0       -0.411183   -0.890317    0.000000
      4          8           0       -0.411183    0.549683   -0.000000
      5          6           0       -0.411183    1.712683   -0.000000
      6          8           0       -0.411183    2.875682   -0.000000
 ---------------------------------------------------------------------

 SCF Done:  E(ROHF) =  -374.941633888     A.U. after   21 cycles
 E2 =    -0.1279167570D+01 EUMP2 =    -0.37622080145856D+03
 CCSD(T)
 CCSD(T)= -0.37625497642D+03

 The electronic state is 2-A".
 Alpha  occ. eigenvalues --  -20.41341 -20.40173 -20.34985 -20.33503 -11.18432
 Alpha  occ. eigenvalues --  -11.09676  -1.33683  -1.27611  -1.22273  -1.18038
 Alpha  occ. eigenvalues --   -0.75046  -0.55626  -0.52350  -0.51147  -0.48982
 Alpha  occ. eigenvalues --   -0.46107  -0.44117  -0.36998  -0.34675  -0.30054
 Alpha  occ. eigenvalues --   -0.27886  -0.14289   0.15008
 Alpha virt. eigenvalues --    0.34729   0.36673   0.39780   0.41189   0.46034
 Alpha virt. eigenvalues --    0.52921   0.56449   0.56855   0.58289   0.62682
 Alpha virt. eigenvalues --    0.68868   0.75719   0.81396   0.86294   0.90464

 Mulliken charges and spin densities:
               1          2
     1  O   -0.502320   0.085968
     2  C    0.115057   0.518688
     3  O   -0.266746   0.053990
     4  O   -0.167189   0.040176
     5  C    0.275854   0.261196
     6  O   -0.454656   0.039983
 Sum of Mulliken charges =  -1.00000   1.00000

 Dipole moment (field-independent basis, Debye):
    X=             -1.1661    Y=              2.4536    Z=             -0.0000  Tot=              2.7166
 Quadrupole moment (field-independent basis, Debye-Ang):
   XX=            -37.1391   YY=            -64.3661   ZZ=            -33.7752
   XY=              9.0719   XZ=             -0.0000   YZ=              0.0000

 8015\MP4SDQ=-376.1973573\CCSD=-376.1893177\CCSD(T)=-376.2549764\RMSD=6
 Normal termination of Gaussian 16 at Mon Feb 19 17:00:20 2024.
