 Gaussian 16, Revision A.03,
 Gaussian 16:  ES64L-G16RevA.03 25-Dec-2016

 --------------------
 #p ROCCSD(T)/cc-pVTZ
 --------------------

 ----------
 CO2_CO2_18
 ----------
 Symbolic Z-matrix:
 Charge = -1 Multiplicity = 2

                         Standard orientation:
 ---------------------------------------------------------------------
 Center     Atomic      Atomic             Coordinates (Angstroms)
 Number     Number       Type             X           Y           Z
 ---------------------------------------------------------------------
      1          8           0        0.000000    0.000000    2.946000
      2          6           0        0.000000    0.000000    1.783000
      3          8           0        0.000000    0.000000    0.620000
      4          8           0        0.000000    0.000000   -0.620000
      5          6           0        0.000000    0.000000   -1.783000
      6          8           0        0.000000    0.000000   -2.946000
 ---------------------------------------------------------------------

 SCF Done:  E(ROHF) =  -374.659210965     A.U. after   14 cycles
 E2 =    -0.1323241194D+01 EUMP2 =    -0.37598245215960D+03
 CCSD(T)
 CCSD(T)= -0.37600546622D+03

 Unable to determine electronic state:  an orbital has unidentified symmetry.
 Alpha  occ. eigenvalues --  -20.38636 -20.38600 -20.36567 -20.36567 -11.12180
 Alpha  occ. eigenvalues --  -11.12179  -1.41498  -1.24832  -1.23127  -1.18330
 Alpha  occ. eigenvalues --   -0.85799  -0.55475  -0.53245  -0.52021  -0.51339
 Alpha  occ. eigenvalues --   -0.45596  -0.42744  -0.38240  -0.34535  -0.26170
 Alpha  occ. eigenvalues --   -0.23733  -0.03201   0.13556
 Alpha virt. eigenvalues --    0.35254   0.38748   0.40093   0.41216   0.47185
 Alpha virt. eigenvalues --    0.49030   0.57536   0.58954   0.59512   0.62039
 Alpha virt. eigenvalues --    0.65043   0.73079   0.84592   0.86127   0.93247

 Mulliken charges and spin densities:
               1          2
     1  O   -0.462737   0.066205
     2  C    0.121883   0.397367
     3  O   -0.159146   0.036428
     4  O   -0.159146   0.036428
     5  C    0.121883   0.397367
     6  O   -0.462737   0.066205
 Sum of Mulliken charges =  -1.00000   1.00000

 Dipole moment (field-independent basis, Debye):
    X=             -0.0000    Y=             -0.0000    Z=             -0.0000  Tot=              0.0000
 Quadrupole moment (field-independent basis, Debye-Ang):
   XX=            -31.6806   YY=            -33.9454   ZZ=            -72.7522
   XY=              0.0000   XZ=              0.0000   YZ=              0.0000

 4\CCSD(T)=-376.0054662\RMSD=8.070e-09\PG=D*H [C*(O1C1O1.O1C1O1)]\\@
 Normal termination of Gaussian 16 at Mon Feb 19 14:23:54 2024.
