 Gaussian 16, Revision A.03,
 Gaussian 16:  ES64L-G16RevA.03 25-Dec-2016

 --------------------
 #p ROCCSD(T)/cc-pVTZ
 --------------------

 ----------
 CO2_CO2_64
 ----------
 Symbolic Z-matrix:
 Charge = -1 Multiplicity = 2

                         Standard orientation:
 ---------------------------------------------------------------------
 Center     Atomic      Atomic             Coordinates (Angstroms)
 Number     Number       Type             X           Y           Z
 ---------------------------------------------------------------------
      1          8           0        1.233548   -2.735048    0.000000
      2          6           0        0.411183   -1.912683    0.000000
      3          8           0       -0.411183   -1.090317    0.000000
      4          8           0       -0.411183    0.749682   -0.000000
      5          6           0       -0.411183    1.912683   -0.000000
      6          8           0       -0.411183    3.075683   -0.000000
 ---------------------------------------------------------------------

 SCF Done:  E(ROHF) =  -375.157505684     A.U. after   17 cycles
 E2 =    -0.1247536254D+01 EUMP2 =    -0.37640504193726D+03
 CCSD(T)
 CCSD(T)= -0.37644127354D+03

 The electronic state is 2-A".
 Alpha  occ. eigenvalues --  -20.40137 -20.38963 -20.37710 -20.37148 -11.17695
 Alpha  occ. eigenvalues --  -11.14999  -1.29159  -1.26840  -1.23665  -1.20850
 Alpha  occ. eigenvalues --   -0.63691  -0.54863  -0.52386  -0.50165  -0.48017
 Alpha  occ. eigenvalues --   -0.47948  -0.45948  -0.40572  -0.35261  -0.31006
 Alpha  occ. eigenvalues --   -0.30906  -0.26579   0.16739
 Alpha virt. eigenvalues --    0.33514   0.35331   0.38483   0.42333   0.44147
 Alpha virt. eigenvalues --    0.52401   0.55697   0.56995   0.58856   0.60611
 Alpha virt. eigenvalues --    0.65574   0.75469   0.78890   0.86552   0.87109

 Mulliken charges and spin densities:
               1          2
     1  O   -0.460464   0.064505
     2  C    0.233711   0.405062
     3  O   -0.316302   0.068818
     4  O   -0.251161   0.063579
     5  C    0.252596   0.345663
     6  O   -0.458380   0.052372
 Sum of Mulliken charges =  -1.00000   1.00000

 Dipole moment (field-independent basis, Debye):
    X=             -0.5162    Y=              0.6580    Z=             -0.0000  Tot=              0.8363
 Quadrupole moment (field-independent basis, Debye-Ang):
   XX=            -36.6810   YY=            -65.7041   ZZ=            -33.8250
   XY=              8.7693   XZ=             -0.0000   YZ=              0.0000

 0419\MP4SDQ=-376.3883293\CCSD=-376.3810417\CCSD(T)=-376.4412735\RMSD=6
 Normal termination of Gaussian 16 at Tue Feb 20 09:10:57 2024.
