 Gaussian 16, Revision A.03,
 Gaussian 16:  ES64L-G16RevA.03 25-Dec-2016

 --------------------
 #p ROCCSD(T)/cc-pVTZ
 --------------------

 ----------
 CO2_CO2_70
 ----------
 Symbolic Z-matrix:
 Charge = -1 Multiplicity = 2

                         Standard orientation:
 ---------------------------------------------------------------------
 Center     Atomic      Atomic             Coordinates (Angstroms)
 Number     Number       Type             X           Y           Z
 ---------------------------------------------------------------------
      1          8           0        1.233548   -2.775048    0.000000
      2          6           0        0.411183   -1.952682    0.000000
      3          8           0       -0.411183   -1.130317    0.000000
      4          8           0       -0.411183    0.789683   -0.000000
      5          6           0       -0.411183    1.952682   -0.000000
      6          8           0       -0.411183    3.115682   -0.000000
 ---------------------------------------------------------------------

 SCF Done:  E(ROHF) =  -375.174290940     A.U. after   17 cycles
 E2 =    -0.1244770008D+01 EUMP2 =    -0.37641906094879D+03
 CCSD(T)
 CCSD(T)= -0.37645563839D+03

 The electronic state is 2-A".
 Alpha  occ. eigenvalues --  -20.40210 -20.39184 -20.38088 -20.37535 -11.17864
 Alpha  occ. eigenvalues --  -11.15484  -1.29099  -1.27073  -1.23655  -1.21220
 Alpha  occ. eigenvalues --   -0.62434  -0.55044  -0.52510  -0.50154  -0.48243
 Alpha  occ. eigenvalues --   -0.47974  -0.46291  -0.41871  -0.35141  -0.31382
 Alpha  occ. eigenvalues --   -0.31071  -0.27463   0.16905
 Alpha virt. eigenvalues --    0.33002   0.35310   0.38229   0.42333   0.43923
 Alpha virt. eigenvalues --    0.52252   0.55536   0.57029   0.58851   0.60325
 Alpha virt. eigenvalues --    0.65113   0.75356   0.78530   0.86223   0.86878

 Mulliken charges and spin densities:
               1          2
     1  O   -0.455717   0.063437
     2  C    0.239770   0.399745
     3  O   -0.320926   0.069599
     4  O   -0.258055   0.064784
     5  C    0.250082   0.349544
     6  O   -0.455155   0.052892
 Sum of Mulliken charges =  -1.00000   1.00000

 Dipole moment (field-independent basis, Debye):
    X=             -0.4664    Y=              0.5621    Z=             -0.0000  Tot=              0.7304
 Quadrupole moment (field-independent basis, Debye-Ang):
   XX=            -36.6436   YY=            -66.1816   ZZ=            -33.8306
   XY=              8.7736   XZ=             -0.0000   YZ=              0.0000

 09\MP4SDQ=-376.4029324\CCSD=-376.3957888\CCSD(T)=-376.4556384\RMSD=4.7
 Normal termination of Gaussian 16 at Tue Feb 20 10:14:07 2024.
