 Gaussian 16, Revision A.03,
 Gaussian 16:  ES64L-G16RevA.03 25-Dec-2016

 --------------------
 #p ROCCSD(T)/cc-pVTZ
 --------------------

 -----------
 CO2_CO2_154
 -----------
 Symbolic Z-matrix:
 Charge = -1 Multiplicity = 2

                         Standard orientation:
 ---------------------------------------------------------------------
 Center     Atomic      Atomic             Coordinates (Angstroms)
 Number     Number       Type             X           Y           Z
 ---------------------------------------------------------------------
      1          8           0        1.233548   -3.335048    0.000000
      2          6           0        0.411183   -2.512683    0.000000
      3          8           0       -0.411183   -1.690318    0.000000
      4          8           0       -0.411183    1.349683    0.000000
      5          6           0       -0.411183    2.512683    0.000000
      6          8           0       -0.411183    3.675682    0.000000
 ---------------------------------------------------------------------

 SCF Done:  E(ROHF) =  -375.219629123     A.U. after   15 cycles
 E2 =    -0.1233576818D+01 EUMP2 =    -0.37645320594107D+03
 CCSD(T)
 CCSD(T)= -0.37648967150D+03

 The electronic state is 2-A".
 Alpha  occ. eigenvalues --  -20.41540 -20.41215 -20.40781 -20.40511 -11.19735
 Alpha  occ. eigenvalues --  -11.18848  -1.30223  -1.29508  -1.24741  -1.24027
 Alpha  occ. eigenvalues --   -0.58772  -0.57881  -0.52219  -0.51335  -0.51030
 Alpha  occ. eigenvalues --   -0.50752  -0.48843  -0.48077  -0.35737  -0.34972
 Alpha  occ. eigenvalues --   -0.32257  -0.31545   0.17663
 Alpha virt. eigenvalues --    0.28518   0.34626   0.35806   0.41228   0.41926
 Alpha virt. eigenvalues --    0.49833   0.53916   0.57023   0.57791   0.58607
 Alpha virt. eigenvalues --    0.60307   0.74994   0.75874   0.81842   0.84444

 Mulliken charges and spin densities:
               1          2
     1  O   -0.421411   0.059374
     2  C    0.258455   0.385438
     3  O   -0.347221   0.065534
     4  O   -0.329160   0.063861
     5  C    0.259255   0.369999
     6  O   -0.419919   0.055795
 Sum of Mulliken charges =  -1.00000   1.00000

 Dipole moment (field-independent basis, Debye):
    X=             -0.1962    Y=              0.1759    Z=              0.0000  Tot=              0.2635
 Quadrupole moment (field-independent basis, Debye-Ang):
   XX=            -36.3825   YY=            -76.3945   ZZ=            -33.8533
   XY=              9.3753   XZ=             -0.0000   YZ=             -0.0000

 59\MP4SDQ=-376.4385716\CCSD=-376.432811\CCSD(T)=-376.4896715\RMSD=9.63
 Normal termination of Gaussian 16 at Tue Feb 20 10:00:55 2024.
