 Gaussian 16, Revision A.03,
 Gaussian 16:  ES64L-G16RevA.03 25-Dec-2016

 --------------------
 #p ROCCSD(T)/cc-pVTZ
 --------------------

 ----------
 CO2_CO2_73
 ----------
 Symbolic Z-matrix:
 Charge = -1 Multiplicity = 2

                         Standard orientation:
 ---------------------------------------------------------------------
 Center     Atomic      Atomic             Coordinates (Angstroms)
 Number     Number       Type             X           Y           Z
 ---------------------------------------------------------------------
      1          8           0        1.233548   -2.795048    0.000000
      2          6           0        0.411183   -1.972683    0.000000
      3          8           0       -0.411183   -1.150317   -0.000000
      4          8           0       -0.411183    0.809682   -0.000000
      5          6           0       -0.411183    1.972682   -0.000000
      6          8           0       -0.411183    3.135683   -0.000000
 ---------------------------------------------------------------------

 SCF Done:  E(ROHF) =  -375.180963372     A.U. after   17 cycles
 E2 =    -0.1243617067D+01 EUMP2 =    -0.37642458043893D+03
 CCSD(T)
 CCSD(T)= -0.37646129623D+03

 The electronic state is 2-A".
 Alpha  occ. eigenvalues --  -20.40254 -20.39297 -20.38256 -20.37718 -11.17951
 Alpha  occ. eigenvalues --  -11.15701  -1.29096  -1.27192  -1.23658  -1.21389
 Alpha  occ. eigenvalues --   -0.61903  -0.55146  -0.52544  -0.50165  -0.48381
 Alpha  occ. eigenvalues --   -0.47974  -0.46460  -0.42468  -0.35100  -0.31604
 Alpha  occ. eigenvalues --   -0.31105  -0.27827   0.16977
 Alpha virt. eigenvalues --    0.32759   0.35294   0.38108   0.42320   0.43819
 Alpha virt. eigenvalues --    0.52170   0.55463   0.57044   0.58846   0.60190
 Alpha virt. eigenvalues --    0.64890   0.75301   0.78364   0.86016   0.86809

 Mulliken charges and spin densities:
               1          2
     1  O   -0.453573   0.063008
     2  C    0.242084   0.397692
     3  O   -0.322794   0.069835
     4  O   -0.261095   0.065204
     5  C    0.248936   0.351157
     6  O   -0.453559   0.053103
 Sum of Mulliken charges =  -1.00000   1.00000

 Dipole moment (field-independent basis, Debye):
    X=             -0.4450    Y=              0.5234    Z=             -0.0000  Tot=              0.6870
 Quadrupole moment (field-independent basis, Debye-Ang):
   XX=            -36.6269   YY=            -66.4380   ZZ=            -33.8331
   XY=              8.7794   XZ=             -0.0000   YZ=              0.0000

 04\MP4SDQ=-376.4086889\CCSD=-376.4016052\CCSD(T)=-376.4612962\RMSD=3.9
 Normal termination of Gaussian 16 at Tue Feb 20 10:44:47 2024.
