 Gaussian 16, Revision A.03,
 Gaussian 16:  ES64L-G16RevA.03 25-Dec-2016

 --------------------
 #p ROCCSD(T)/cc-pVTZ
 --------------------

 -----------
 CO2_CO2_121
 -----------
 Symbolic Z-matrix:
 Charge = -1 Multiplicity = 2

                         Standard orientation:
 ---------------------------------------------------------------------
 Center     Atomic      Atomic             Coordinates (Angstroms)
 Number     Number       Type             X           Y           Z
 ---------------------------------------------------------------------
      1          8           0        1.233548   -3.115048    0.000000
      2          6           0        0.411183   -2.292683    0.000000
      3          8           0       -0.411183   -1.470318    0.000000
      4          8           0       -0.411183    1.129683   -0.000000
      5          6           0       -0.411183    2.292683   -0.000000
      6          8           0       -0.411183    3.455682   -0.000000
 ---------------------------------------------------------------------

 SCF Done:  E(ROHF) =  -375.217248266     A.U. after   16 cycles
 E2 =    -0.1235245739D+01 EUMP2 =    -0.37645249400428D+03
 CCSD(T)
 CCSD(T)= -0.37648964642D+03

 The electronic state is 2-A".
 Alpha  occ. eigenvalues --  -20.41058 -20.40655 -20.40039 -20.39731 -11.19152
 Alpha  occ. eigenvalues --  -11.17953  -1.29727  -1.28767  -1.24231  -1.23247
 Alpha  occ. eigenvalues --   -0.58746  -0.56947  -0.52207  -0.50827  -0.50021
 Alpha  occ. eigenvalues --   -0.49621  -0.48335  -0.47161  -0.35308  -0.34034
 Alpha  occ. eigenvalues --   -0.31764  -0.30685   0.17555
 Alpha virt. eigenvalues --    0.29844   0.34931   0.36563   0.41698   0.42561
 Alpha virt. eigenvalues --    0.50870   0.54541   0.57154   0.58536   0.58744
 Alpha virt. eigenvalues --    0.61795   0.74936   0.76558   0.83762   0.86101

 Mulliken charges and spin densities:
               1          2
     1  O   -0.431093   0.059974
     2  C    0.253200   0.386544
     3  O   -0.336255   0.067604
     4  O   -0.304993   0.065095
     5  C    0.250911   0.365790
     6  O   -0.431771   0.054992
 Sum of Mulliken charges =  -1.00000   1.00000

 Dipole moment (field-independent basis, Debye):
    X=             -0.2560    Y=              0.2366    Z=             -0.0000  Tot=              0.3486
 Quadrupole moment (field-independent basis, Debye-Ang):
   XX=            -36.4497   YY=            -71.7602   ZZ=            -33.8538
   XY=              9.0702   XZ=             -0.0000   YZ=              0.0000

 494\MP4SDQ=-376.4379248\CCSD=-376.4313759\CCSD(T)=-376.4896464\RMSD=5.
 Normal termination of Gaussian 16 at Tue Feb 20 18:52:02 2024.
