 Gaussian 16, Revision A.03,
 Gaussian 16:  ES64L-G16RevA.03 25-Dec-2016

 --------------------
 #p ROCCSD(T)/cc-pVTZ
 --------------------

 -----------
 CO2_CO2_181
 -----------
 Symbolic Z-matrix:
 Charge = -1 Multiplicity = 2

                         Standard orientation:
 ---------------------------------------------------------------------
 Center     Atomic      Atomic             Coordinates (Angstroms)
 Number     Number       Type             X           Y           Z
 ---------------------------------------------------------------------
      1          8           0        1.233548   -3.515048    0.000000
      2          6           0        0.411183   -2.692682    0.000000
      3          8           0       -0.411183   -1.870317    0.000000
      4          8           0       -0.411183    1.529683   -0.000000
      5          6           0       -0.411183    2.692682   -0.000000
      6          8           0       -0.411183    3.855682   -0.000000
 ---------------------------------------------------------------------

 SCF Done:  E(ROHF) =  -375.220120540     A.U. after   15 cycles
 E2 =    -0.1232891238D+01 EUMP2 =    -0.37645301177769D+03
 CCSD(T)
 CCSD(T)= -0.37648854927D+03

 The electronic state is 2-A".
 Alpha  occ. eigenvalues --  -20.41887 -20.41593 -20.41244 -20.40990 -11.20126
 Alpha  occ. eigenvalues --  -11.19387  -1.30585  -1.29981  -1.25116  -1.24516
 Alpha  occ. eigenvalues --   -0.59031  -0.58435  -0.52441  -0.51747  -0.51707
 Alpha  occ. eigenvalues --   -0.51217  -0.49204  -0.48576  -0.36089  -0.35521
 Alpha  occ. eigenvalues --   -0.32631  -0.32048   0.17685
 Alpha virt. eigenvalues --    0.27668   0.34322   0.35321   0.40887   0.41490
 Alpha virt. eigenvalues --    0.48843   0.53429   0.56812   0.57341   0.58425
 Alpha virt. eigenvalues --    0.59497   0.74874   0.75398   0.79880   0.84721

 Mulliken charges and spin densities:
               1          2
     1  O   -0.415253   0.059219
     2  C    0.262466   0.384882
     3  O   -0.355741   0.064660
     4  O   -0.342423   0.063345
     5  C    0.263826   0.371557
     6  O   -0.412875   0.056338
 Sum of Mulliken charges =  -1.00000   1.00000

 Dipole moment (field-independent basis, Debye):
    X=             -0.1639    Y=              0.1576    Z=             -0.0000  Tot=              0.2273
 Quadrupole moment (field-independent basis, Debye-Ang):
   XX=            -36.3469   YY=            -80.6295   ZZ=            -33.8488
   XY=              9.6536   XZ=             -0.0000   YZ=              0.0000

 30118\MP4SDQ=-376.4382198\CCSD=-376.4339948\CCSD(T)=-376.4885493\RMSD=
 Normal termination of Gaussian 16 at Tue Feb 20 14:04:17 2024.
