 Gaussian 16, Revision A.03,
 Gaussian 16:  ES64L-G16RevA.03 25-Dec-2016

 --------------------
 #p ROCCSD(T)/cc-pVTZ
 --------------------

 -----------
 CO2_CO2_282
 -----------
 Symbolic Z-matrix:
 Charge = -1 Multiplicity = 2

                         Standard orientation:
 ---------------------------------------------------------------------
 Center     Atomic      Atomic             Coordinates (Angstroms)
 Number     Number       Type             X           Y           Z
 ---------------------------------------------------------------------
      1          8           0        0.000000    0.000000    4.706000
      2          6           0        0.000000    0.000000    3.543000
      3          8           0        0.000000    0.000000    2.380000
      4          8           0        0.000000    0.000000   -2.380000
      5          6           0        0.000000    0.000000   -3.543000
      6          8           0        0.000000    0.000000   -4.706000
 ---------------------------------------------------------------------

 SCF Done:  E(ROHF) =  -375.220603563     A.U. after   12 cycles
 E2 =    -0.1232393394D+01 EUMP2 =    -0.37645299695720D+03
 CCSD(T)
 CCSD(T)= -0.37648856515D+03

 Unable to determine electronic state:  an orbital has unidentified symmetry.
 Alpha  occ. eigenvalues --  -20.42734 -20.42734 -20.42529 -20.42529 -11.21015
 Alpha  occ. eigenvalues --  -11.21015  -1.31491  -1.31491  -1.26049  -1.26047
 Alpha  occ. eigenvalues --   -0.59973  -0.59941  -0.53395  -0.53364  -0.52676
 Alpha  occ. eigenvalues --   -0.52657  -0.50111  -0.50109  -0.37122  -0.36970
 Alpha  occ. eigenvalues --   -0.33584  -0.33581   0.17685
 Alpha virt. eigenvalues --    0.25277   0.33634   0.33824   0.39992   0.39996
 Alpha virt. eigenvalues --    0.49222   0.50440   0.55987   0.55999   0.57668
 Alpha virt. eigenvalues --    0.57676   0.73941   0.74005   0.82342   0.83809

 Mulliken charges and spin densities:
               1          2
     1  O   -0.403572   0.058539
     2  C    0.268333   0.378365
     3  O   -0.364761   0.063096
     4  O   -0.364761   0.063096
     5  C    0.268333   0.378365
     6  O   -0.403572   0.058539
 Sum of Mulliken charges =  -1.00000   1.00000

 Dipole moment (field-independent basis, Debye):
    X=             -0.0000    Y=             -0.0000    Z=              0.0000  Tot=              0.0000
 Quadrupole moment (field-independent basis, Debye-Ang):
   XX=            -31.6313   YY=            -33.8358   ZZ=           -109.5966
   XY=              0.0000   XZ=              0.0000   YZ=             -0.0000

 26\CCSD(T)=-376.4885652\RMSD=2.041e-09\PG=D*H [C*(O1C1O1.O1C1O1)]\\@
 Normal termination of Gaussian 16 at Tue Feb 20 16:31:59 2024.
