 Gaussian 16, Revision A.03,
 Gaussian 16:  ES64L-G16RevA.03 25-Dec-2016

 --------------------
 #p ROCCSD(T)/cc-pVTZ
 --------------------

 ----------
 CO2_CO2_31
 ----------
 Symbolic Z-matrix:
 Charge = -1 Multiplicity = 2

                         Standard orientation:
 ---------------------------------------------------------------------
 Center     Atomic      Atomic             Coordinates (Angstroms)
 Number     Number       Type             X           Y           Z
 ---------------------------------------------------------------------
      1          8           0        1.233548   -2.515048    0.000000
      2          6           0        0.411183   -1.692683    0.000000
      3          8           0       -0.411183   -0.870317   -0.000000
      4          8           0       -0.411183    0.529682   -0.000000
      5          6           0       -0.411183    1.692683   -0.000000
      6          8           0       -0.411183    2.855683   -0.000000
 ---------------------------------------------------------------------

 SCF Done:  E(ROHF) =  -374.900007013     A.U. after   24 cycles
 E2 =    -0.1284356257D+01 EUMP2 =    -0.37618436327002D+03
 CCSD(T)
 CCSD(T)= -0.37621966385D+03

 The electronic state is 2-A".
 Alpha  occ. eigenvalues --  -20.42030 -20.41178 -20.34621 -20.32408 -11.19167
 Alpha  occ. eigenvalues --  -11.08298  -1.35189  -1.28264  -1.21770  -1.17439
 Alpha  occ. eigenvalues --   -0.76701  -0.56214  -0.53112  -0.51933  -0.48271
 Alpha  occ. eigenvalues --   -0.45948  -0.43965  -0.37218  -0.34439  -0.29683
 Alpha  occ. eigenvalues --   -0.27539  -0.11767   0.14572
 Alpha virt. eigenvalues --    0.34460   0.37079   0.39588   0.41014   0.46451
 Alpha virt. eigenvalues --    0.52960   0.56241   0.56982   0.58048   0.63049
 Alpha virt. eigenvalues --    0.69496   0.75629   0.81685   0.86195   0.90958

 Mulliken charges and spin densities:
               1          2
     1  O   -0.510666   0.094046
     2  C    0.077291   0.561280
     3  O   -0.261089   0.051233
     4  O   -0.146131   0.033410
     5  C    0.286764   0.225317
     6  O   -0.446169   0.034714
 Sum of Mulliken charges =  -1.00000   1.00000

 Dipole moment (field-independent basis, Debye):
    X=             -1.3490    Y=              3.0534    Z=             -0.0000  Tot=              3.3382
 Quadrupole moment (field-independent basis, Debye-Ang):
   XX=            -37.2719   YY=            -64.3805   ZZ=            -33.7570
   XY=              9.1869   XZ=             -0.0000   YZ=             -0.0000

 \MP4SDQ=-376.1602229\CCSD=-376.1526282\CCSD(T)=-376.2196639\RMSD=5.600
 Normal termination of Gaussian 16 at Mon Feb 19 16:32:23 2024.
