 Gaussian 16, Revision A.03,
 Gaussian 16:  ES64L-G16RevA.03 25-Dec-2016

 --------------------
 #p ROCCSD(T)/cc-pVTZ
 --------------------

 -----------
 CO2_CO2_153
 -----------
 Symbolic Z-matrix:
 Charge = -1 Multiplicity = 2

                         Standard orientation:
 ---------------------------------------------------------------------
 Center     Atomic      Atomic             Coordinates (Angstroms)
 Number     Number       Type             X           Y           Z
 ---------------------------------------------------------------------
      1          8           0        0.000000    0.000000    3.846000
      2          6           0        0.000000    0.000000    2.683000
      3          8           0        0.000000    0.000000    1.520000
      4          8           0        0.000000    0.000000   -1.520000
      5          6           0        0.000000    0.000000   -2.683000
      6          8           0        0.000000    0.000000   -3.846000
 ---------------------------------------------------------------------

 SCF Done:  E(ROHF) =  -375.219188644     A.U. after   12 cycles
 E2 =    -0.1233915690D+01 EUMP2 =    -0.37645310433354D+03
 CCSD(T)
 CCSD(T)= -0.37648967901D+03

 Unable to determine electronic state:  an orbital has unidentified symmetry.
 Alpha  occ. eigenvalues --  -20.41282 -20.41282 -20.40987 -20.40987 -11.19395
 Alpha  occ. eigenvalues --  -11.19395  -1.30005  -1.29969  -1.24537  -1.24460
 Alpha  occ. eigenvalues --   -0.58813  -0.58015  -0.52304  -0.51220  -0.51085
 Alpha  occ. eigenvalues --   -0.50989  -0.48652  -0.48569  -0.35749  -0.35135
 Alpha  occ. eigenvalues --   -0.32142  -0.31919   0.17720
 Alpha virt. eigenvalues --    0.28283   0.34829   0.35356   0.41250   0.41595
 Alpha virt. eigenvalues --    0.49884   0.53936   0.57127   0.57437   0.58799
 Alpha virt. eigenvalues --    0.59224   0.75020   0.75083   0.80208   0.85922

 Mulliken charges and spin densities:
               1          2
     1  O   -0.423385   0.057390
     2  C    0.254424   0.377547
     3  O   -0.331040   0.065063
     4  O   -0.331040   0.065063
     5  C    0.254424   0.377547
     6  O   -0.423385   0.057390
 Sum of Mulliken charges =  -1.00000   1.00000

 Dipole moment (field-independent basis, Debye):
    X=             -0.0000    Y=             -0.0000    Z=              0.0000  Tot=              0.0000
 Quadrupole moment (field-independent basis, Debye-Ang):
   XX=            -31.6541   YY=            -33.8693   ZZ=            -84.9691
   XY=              0.0000   XZ=              0.0000   YZ=              0.0000

 3497\CCSD(T)=-376.489679\RMSD=2.773e-09\PG=D*H [C*(O1C1O1.O1C1O1)]\\@
 Normal termination of Gaussian 16 at Tue Feb 20 09:48:25 2024.
