 Gaussian 16, Revision A.03,
 Gaussian 16:  ES64L-G16RevA.03 25-Dec-2016

 --------------------
 #p ROCCSD(T)/cc-pVTZ
 --------------------

 -----------
 CO2_CO2_264
 -----------
 Symbolic Z-matrix:
 Charge = -1 Multiplicity = 2

                         Standard orientation:
 ---------------------------------------------------------------------
 Center     Atomic      Atomic             Coordinates (Angstroms)
 Number     Number       Type             X           Y           Z
 ---------------------------------------------------------------------
      1          8           0        0.000000    0.000000    4.586000
      2          6           0        0.000000    0.000000    3.423000
      3          8           0        0.000000    0.000000    2.260000
      4          8           0        0.000000    0.000000   -2.260000
      5          6           0        0.000000    0.000000   -3.423000
      6          8           0        0.000000    0.000000   -4.586000
 ---------------------------------------------------------------------

 SCF Done:  E(ROHF) =  -375.220408463     A.U. after   12 cycles
 E2 =    -0.1232437702D+01 EUMP2 =    -0.37645284616558D+03
 CCSD(T)
 CCSD(T)= -0.37648851428D+03

 Unable to determine electronic state:  an orbital has unidentified symmetry.
 Alpha  occ. eigenvalues --  -20.42583 -20.42583 -20.42363 -20.42363 -11.20852
 Alpha  occ. eigenvalues --  -11.20852  -1.31334  -1.31333  -1.25889  -1.25886
 Alpha  occ. eigenvalues --   -0.59817  -0.59769  -0.53235  -0.53180  -0.52520
 Alpha  occ. eigenvalues --   -0.52498  -0.49954  -0.49952  -0.36970  -0.36797
 Alpha  occ. eigenvalues --   -0.33424  -0.33418   0.17702
 Alpha virt. eigenvalues --    0.25576   0.33729   0.34006   0.40141   0.40151
 Alpha virt. eigenvalues --    0.49047   0.50899   0.56127   0.56145   0.57811
 Alpha virt. eigenvalues --    0.57825   0.74083   0.74162   0.81863   0.84342

 Mulliken charges and spin densities:
               1          2
     1  O   -0.404691   0.058384
     2  C    0.267292   0.378346
     3  O   -0.362601   0.063269
     4  O   -0.362601   0.063269
     5  C    0.267292   0.378346
     6  O   -0.404691   0.058384
 Sum of Mulliken charges =  -1.00000   1.00000

 Dipole moment (field-independent basis, Debye):
    X=             -0.0000    Y=             -0.0000    Z=              0.0000  Tot=              0.0000
 Quadrupole moment (field-independent basis, Debye-Ang):
   XX=            -31.6335   YY=            -33.8391   ZZ=           -105.6955
   XY=              0.0000   XZ=              0.0000   YZ=             -0.0000

 579\CCSD(T)=-376.4885143\RMSD=2.090e-09\PG=D*H [C*(O1C1O1.O1C1O1)]\\@
 Normal termination of Gaussian 16 at Tue Feb 20 14:12:15 2024.
