 Gaussian 16, Revision A.03,
 Gaussian 16:  ES64L-G16RevA.03 25-Dec-2016

 --------------------
 #p ROCCSD(T)/cc-pVTZ
 --------------------

 ----------
 CO2_CO2_60
 ----------
 Symbolic Z-matrix:
 Charge = -1 Multiplicity = 2

                         Standard orientation:
 ---------------------------------------------------------------------
 Center     Atomic      Atomic             Coordinates (Angstroms)
 Number     Number       Type             X           Y           Z
 ---------------------------------------------------------------------
      1          8           0        0.000000    0.000000    3.226000
      2          6           0        0.000000    0.000000    2.063000
      3          8           0        0.000000    0.000000    0.900000
      4          8           0        0.000000    0.000000   -0.900000
      5          6           0        0.000000    0.000000   -2.063000
      6          8           0        0.000000    0.000000   -3.226000
 ---------------------------------------------------------------------

 SCF Done:  E(ROHF) =  -375.150060539     A.U. after   13 cycles
 E2 =    -0.1247778846D+01 EUMP2 =    -0.37639783938518D+03
 CCSD(T)
 CCSD(T)= -0.37643326168D+03

 Unable to determine electronic state:  an orbital has unidentified symmetry.
 Alpha  occ. eigenvalues --  -20.38944 -20.38944 -20.37789 -20.37789 -11.16092
 Alpha  occ. eigenvalues --  -11.16091  -1.28553  -1.27274  -1.23318  -1.21134
 Alpha  occ. eigenvalues --   -0.65328  -0.54368  -0.52716  -0.49803  -0.48213
 Alpha  occ. eigenvalues --   -0.47195  -0.45654  -0.37352  -0.35200  -0.31560
 Alpha  occ. eigenvalues --   -0.30689  -0.28037   0.16648
 Alpha virt. eigenvalues --    0.33795   0.35784   0.37828   0.42090   0.44701
 Alpha virt. eigenvalues --    0.50653   0.57447   0.57481   0.59115   0.59814
 Alpha virt. eigenvalues --    0.62236   0.74862   0.78893   0.87330   0.87622

 Mulliken charges and spin densities:
               1          2
     1  O   -0.475136   0.058539
     2  C    0.236326   0.372625
     3  O   -0.261189   0.068835
     4  O   -0.261189   0.068835
     5  C    0.236326   0.372625
     6  O   -0.475136   0.058539
 Sum of Mulliken charges =  -1.00000   1.00000

 Dipole moment (field-independent basis, Debye):
    X=             -0.0000    Y=              0.0000    Z=              0.0000  Tot=              0.0000
 Quadrupole moment (field-independent basis, Debye-Ang):
   XX=            -33.7829   YY=            -31.6329   ZZ=            -73.2854
   XY=              0.0000   XZ=              0.0000   YZ=              0.0000

 51\CCSD(T)=-376.4332617\RMSD=5.614e-09\PG=D*H [C*(O1C1O1.O1C1O1)]\\@
 Normal termination of Gaussian 16 at Mon Feb 19 20:56:37 2024.
