 Gaussian 16, Revision A.03,
 Gaussian 16:  ES64L-G16RevA.03 25-Dec-2016

 --------------------
 #p ROCCSD(T)/cc-pVTZ
 --------------------

 -----------
 CO2_CO2_190
 -----------
 Symbolic Z-matrix:
 Charge = -1 Multiplicity = 2

                         Standard orientation:
 ---------------------------------------------------------------------
 Center     Atomic      Atomic             Coordinates (Angstroms)
 Number     Number       Type             X           Y           Z
 ---------------------------------------------------------------------
      1          8           0        1.233548   -3.575048    0.000000
      2          6           0        0.411183   -2.752683    0.000000
      3          8           0       -0.411183   -1.930317    0.000000
      4          8           0       -0.411183    1.589683   -0.000000
      5          6           0       -0.411183    2.752683   -0.000000
      6          8           0       -0.411183    3.915682   -0.000000
 ---------------------------------------------------------------------

 SCF Done:  E(ROHF) =  -375.220229978     A.U. after   15 cycles
 E2 =    -0.1232733424D+01 EUMP2 =    -0.37645296340174D+03
 CCSD(T)
 CCSD(T)= -0.37648826618D+03

 The electronic state is 2-A".
 Alpha  occ. eigenvalues --  -20.41994 -20.41709 -20.41378 -20.41129 -11.20244
 Alpha  occ. eigenvalues --  -11.19540  -1.30697  -1.30118  -1.25232  -1.24658
 Alpha  occ. eigenvalues --   -0.59131  -0.58587  -0.52536  -0.51930  -0.51822
 Alpha  occ. eigenvalues --   -0.51352  -0.49316  -0.48717  -0.36200  -0.35674
 Alpha  occ. eigenvalues --   -0.32747  -0.32192   0.17686
 Alpha virt. eigenvalues --    0.27420   0.34228   0.35179   0.40781   0.41360
 Alpha virt. eigenvalues --    0.48606   0.53248   0.56731   0.57215   0.58354
 Alpha virt. eigenvalues --    0.59289   0.74787   0.75242   0.79863   0.84781

 Mulliken charges and spin densities:
               1          2
     1  O   -0.413562   0.059212
     2  C    0.263523   0.384719
     3  O   -0.358150   0.064478
     4  O   -0.345648   0.063233
     5  C    0.264922   0.371859
     6  O   -0.411085   0.056499
 Sum of Mulliken charges =  -1.00000   1.00000

 Dipole moment (field-independent basis, Debye):
    X=             -0.1554    Y=              0.1555    Z=             -0.0000  Tot=              0.2198
 Quadrupole moment (field-independent basis, Debye-Ang):
   XX=            -36.3375   YY=            -82.1232   ZZ=            -33.8470
   XY=              9.7506   XZ=             -0.0000   YZ=              0.0000

 4\MP4SDQ=-376.4381158\CCSD=-376.4344041\CCSD(T)=-376.4882662\RMSD=7.28
 Normal termination of Gaussian 16 at Tue Feb 20 15:23:43 2024.
