 Gaussian 16, Revision A.03,
 Gaussian 16:  ES64L-G16RevA.03 25-Dec-2016

 --------------------
 #p ROCCSD(T)/cc-pVTZ
 --------------------

 ----------
 CO2_CO2_75
 ----------
 Symbolic Z-matrix:
 Charge = -1 Multiplicity = 2

                         Standard orientation:
 ---------------------------------------------------------------------
 Center     Atomic      Atomic             Coordinates (Angstroms)
 Number     Number       Type             X           Y           Z
 ---------------------------------------------------------------------
      1          8           0        0.000000    0.000000    3.326000
      2          6           0        0.000000    0.000000    2.163000
      3          8           0        0.000000    0.000000    1.000000
      4          8           0        0.000000    0.000000   -1.000000
      5          6           0        0.000000    0.000000   -2.163000
      6          8           0        0.000000    0.000000   -3.326000
 ---------------------------------------------------------------------

 SCF Done:  E(ROHF) =  -375.188848948     A.U. after   12 cycles
 E2 =    -0.1242137081D+01 EUMP2 =    -0.37643098602879D+03
 CCSD(T)
 CCSD(T)= -0.37646729364D+03

 Unable to determine electronic state:  an orbital has unidentified symmetry.
 Alpha  occ. eigenvalues --  -20.39492 -20.39492 -20.38712 -20.38712 -11.16977
 Alpha  occ. eigenvalues --  -11.16976  -1.28611  -1.27939  -1.23326  -1.22049
 Alpha  occ. eigenvalues --   -0.62103  -0.55104  -0.52800  -0.49928  -0.48922
 Alpha  occ. eigenvalues --   -0.47329  -0.46399  -0.42338  -0.35004  -0.31914
 Alpha  occ. eigenvalues --   -0.31366  -0.29131   0.17040
 Alpha virt. eigenvalues --    0.32437   0.35612   0.37260   0.42073   0.43924
 Alpha virt. eigenvalues --    0.50710   0.56934   0.57473   0.59077   0.59270
 Alpha virt. eigenvalues --    0.61515   0.74743   0.77774   0.86981   0.87296

 Mulliken charges and spin densities:
               1          2
     1  O   -0.462854   0.057945
     2  C    0.235587   0.371986
     3  O   -0.272733   0.070068
     4  O   -0.272733   0.070068
     5  C    0.235587   0.371986
     6  O   -0.462854   0.057945
 Sum of Mulliken charges =  -1.00000   1.00000

 Dipole moment (field-independent basis, Debye):
    X=             -0.0000    Y=              0.0000    Z=             -0.0000  Tot=              0.0000
 Quadrupole moment (field-independent basis, Debye-Ang):
   XX=            -31.6536   YY=            -33.8140   ZZ=            -74.6171
   XY=              0.0000   XZ=              0.0000   YZ=              0.0000

 CCSD(T)=-376.4672936\RMSD=8.990e-09\PG=D*H [C*(O1C1O1.O1C1O1)]\\@
 Normal termination of Gaussian 16 at Tue Feb 20 11:04:36 2024.
