 Gaussian 16, Revision A.03,
 Gaussian 16:  ES64L-G16RevA.03 25-Dec-2016

 --------------------
 #p ROCCSD(T)/cc-pVTZ
 --------------------

 -----------
 CO2_CO2_104
 -----------
 Symbolic Z-matrix:
 Charge = -1 Multiplicity = 2

                         Standard orientation:
 ---------------------------------------------------------------------
 Center     Atomic      Atomic             Coordinates (Angstroms)
 Number     Number       Type             X           Y           Z
 ---------------------------------------------------------------------
      1          8           0       -1.744500   -1.761500    0.000000
      2          6           0       -0.581500   -1.761500    0.000000
      3          8           0        0.581500   -1.761500    0.000000
      4          8           0        0.581500    0.598500    0.000000
      5          6           0        0.581500    1.761500    0.000000
      6          8           0        0.581500    2.924500    0.000000
 ---------------------------------------------------------------------

 SCF Done:  E(ROHF) =  -375.250122113     A.U. after   35 cycles
 E2 =    -0.1238144145D+01 EUMP2 =    -0.37648826625766D+03
 CCSD(T)
 CCSD(T)= -0.37652684653D+03

 The electronic state is 2-A'.
 Alpha  occ. eigenvalues --  -20.48278 -20.47278 -20.38263 -20.38116 -11.29109
 Alpha  occ. eigenvalues --  -11.19065  -1.36054  -1.30762  -1.27497  -1.22649
 Alpha  occ. eigenvalues --   -0.63524  -0.58217  -0.57213  -0.54561  -0.53447
 Alpha  occ. eigenvalues --   -0.49005  -0.46183  -0.45686  -0.37545  -0.36882
 Alpha  occ. eigenvalues --   -0.29468  -0.28888   0.13845
 Alpha virt. eigenvalues --    0.32758   0.36553   0.37531   0.42226   0.42991
 Alpha virt. eigenvalues --    0.48801   0.53751   0.54225   0.58743   0.62427
 Alpha virt. eigenvalues --    0.64089   0.72600   0.77040   0.81321   0.85072

 Mulliken charges and spin densities:
               1          2
     1  O   -0.277681  -0.045353
     2  C    0.321144   0.236268
     3  O   -0.217183  -0.042465
     4  O   -0.006039  -0.251419
     5  C   -0.673535   1.315269
     6  O   -0.146706  -0.212299
 Sum of Mulliken charges =  -1.00000   1.00000

 Dipole moment (field-independent basis, Debye):
    X=             -2.2359    Y=             -5.6302    Z=              0.0000  Tot=              6.0580
 Quadrupole moment (field-independent basis, Debye-Ang):
   XX=            -43.6808   YY=            -55.9138   ZZ=            -35.0886
   XY=             -6.8608   XZ=              0.0000   YZ=              0.0000

 SD=-376.4659511\CCSD(T)=-376.5268465\RMSD=1.632e-09\PG=CS [SG(C2O4)]\\
 Normal termination of Gaussian 16 at Tue Feb 20 16:05:54 2024.
