 Gaussian 16, Revision A.03,
 Gaussian 16:  ES64L-G16RevA.03 25-Dec-2016

 --------------------
 #p ROCCSD(T)/cc-pVTZ
 --------------------

 -----------
 CO2_CO2_285
 -----------
 Symbolic Z-matrix:
 Charge = -1 Multiplicity = 2

                         Standard orientation:
 ---------------------------------------------------------------------
 Center     Atomic      Atomic             Coordinates (Angstroms)
 Number     Number       Type             X           Y           Z
 ---------------------------------------------------------------------
      1          8           0        0.000000    0.000000    4.726000
      2          6           0        0.000000    0.000000    3.563000
      3          8           0        0.000000    0.000000    2.400000
      4          8           0        0.000000    0.000000   -2.400000
      5          6           0        0.000000    0.000000   -3.563000
      6          8           0        0.000000    0.000000   -4.726000
 ---------------------------------------------------------------------

 SCF Done:  E(ROHF) =  -375.220635033     A.U. after   12 cycles
 E2 =    -0.1232388287D+01 EUMP2 =    -0.37645302332016D+03
 CCSD(T)
 CCSD(T)= -0.37648857564D+03

 Unable to determine electronic state:  an orbital has unidentified symmetry.
 Alpha  occ. eigenvalues --  -20.42758 -20.42758 -20.42556 -20.42556 -11.21041
 Alpha  occ. eigenvalues --  -11.21041  -1.31516  -1.31516  -1.26075  -1.26073
 Alpha  occ. eigenvalues --   -0.59998  -0.59968  -0.53421  -0.53393  -0.52701
 Alpha  occ. eigenvalues --   -0.52683  -0.50136  -0.50135  -0.37146  -0.36997
 Alpha  occ. eigenvalues --   -0.33610  -0.33607   0.17682
 Alpha virt. eigenvalues --    0.25230   0.33618   0.33795   0.39968   0.39972
 Alpha virt. eigenvalues --    0.49243   0.50371   0.55965   0.55976   0.57645
 Alpha virt. eigenvalues --    0.57652   0.73919   0.73980   0.82394   0.83728

 Mulliken charges and spin densities:
               1          2
     1  O   -0.403398   0.058563
     2  C    0.268492   0.378369
     3  O   -0.365094   0.063068
     4  O   -0.365094   0.063068
     5  C    0.268492   0.378369
     6  O   -0.403398   0.058563
 Sum of Mulliken charges =  -1.00000   1.00000

 Dipole moment (field-independent basis, Debye):
    X=             -0.0000    Y=             -0.0000    Z=             -0.0000  Tot=              0.0000
 Quadrupole moment (field-independent basis, Debye-Ang):
   XX=            -33.8352   YY=            -31.6309   ZZ=           -110.2610
   XY=              0.0000   XZ=              0.0000   YZ=             -0.0000

 3\CCSD(T)=-376.4885756\RMSD=2.033e-09\PG=D*H [C*(O1C1O1.O1C1O1)]\\@
 Normal termination of Gaussian 16 at Tue Feb 20 16:54:49 2024.
