 Gaussian 16, Revision A.03,
 Gaussian 16:  ES64L-G16RevA.03 25-Dec-2016

 --------------------
 #p ROCCSD(T)/cc-pVTZ
 --------------------

 -----------
 CO2_CO2_184
 -----------
 Symbolic Z-matrix:
 Charge = -1 Multiplicity = 2

                         Standard orientation:
 ---------------------------------------------------------------------
 Center     Atomic      Atomic             Coordinates (Angstroms)
 Number     Number       Type             X           Y           Z
 ---------------------------------------------------------------------
      1          8           0        1.233548   -3.535048    0.000000
      2          6           0        0.411183   -2.712683    0.000000
      3          8           0       -0.411183   -1.890317    0.000000
      4          8           0       -0.411183    1.549682   -0.000000
      5          6           0       -0.411183    2.712683   -0.000000
      6          8           0       -0.411183    3.875683   -0.000000
 ---------------------------------------------------------------------

 SCF Done:  E(ROHF) =  -375.220158461     A.U. after   15 cycles
 E2 =    -0.1232835779D+01 EUMP2 =    -0.37645299424035D+03
 CCSD(T)
 CCSD(T)= -0.37648844692D+03

 The electronic state is 2-A".
 Alpha  occ. eigenvalues --  -20.41923 -20.41633 -20.41289 -20.41038 -11.20166
 Alpha  occ. eigenvalues --  -11.19439  -1.30623  -1.30028  -1.25156  -1.24564
 Alpha  occ. eigenvalues --   -0.59064  -0.58487  -0.52472  -0.51810  -0.51746
 Alpha  occ. eigenvalues --   -0.51263  -0.49242  -0.48624  -0.36126  -0.35573
 Alpha  occ. eigenvalues --   -0.32670  -0.32097   0.17686
 Alpha virt. eigenvalues --    0.27584   0.34290   0.35273   0.40851   0.41446
 Alpha virt. eigenvalues --    0.48756   0.53371   0.56786   0.57298   0.58402
 Alpha virt. eigenvalues --    0.59425   0.74847   0.75344   0.79846   0.84746

 Mulliken charges and spin densities:
               1          2
     1  O   -0.414669   0.059215
     2  C    0.262832   0.384830
     3  O   -0.356573   0.064595
     4  O   -0.343556   0.063305
     5  C    0.264213   0.371663
     6  O   -0.412247   0.056392
 Sum of Mulliken charges =  -1.00000   1.00000

 Dipole moment (field-independent basis, Debye):
    X=             -0.1609    Y=              0.1568    Z=             -0.0000  Tot=              0.2247
 Quadrupole moment (field-independent basis, Debye-Ang):
   XX=            -36.3436   YY=            -81.1229   ZZ=            -33.8482
   XY=              9.6858   XZ=             -0.0000   YZ=              0.0000

 29942\MP4SDQ=-376.4381836\CCSD=-376.4341371\CCSD(T)=-376.4884469\RMSD=
 Normal termination of Gaussian 16 at Tue Feb 20 14:31:56 2024.
