 Gaussian 16, Revision A.03,
 Gaussian 16:  ES64L-G16RevA.03 25-Dec-2016

 --------------------
 #p ROCCSD(T)/cc-pVTZ
 --------------------

 -----------
 CO2_CO2_168
 -----------
 Symbolic Z-matrix:
 Charge = -1 Multiplicity = 2

                         Standard orientation:
 ---------------------------------------------------------------------
 Center     Atomic      Atomic             Coordinates (Angstroms)
 Number     Number       Type             X           Y           Z
 ---------------------------------------------------------------------
      1          8           0        0.000000    0.000000    3.946000
      2          6           0        0.000000    0.000000    2.783000
      3          8           0        0.000000    0.000000    1.620000
      4          8           0        0.000000    0.000000   -1.620000
      5          6           0        0.000000    0.000000   -2.783000
      6          8           0        0.000000    0.000000   -3.946000
 ---------------------------------------------------------------------

 SCF Done:  E(ROHF) =  -375.219395007     A.U. after   12 cycles
 E2 =    -0.1233493667D+01 EUMP2 =    -0.37645288867427D+03
 CCSD(T)
 CCSD(T)= -0.37648931598D+03

 Unable to determine electronic state:  an orbital has unidentified symmetry.
 Alpha  occ. eigenvalues --  -20.41510 -20.41510 -20.41224 -20.41224 -11.19662
 Alpha  occ. eigenvalues --  -11.19662  -1.30232  -1.30211  -1.24766  -1.24719
 Alpha  occ. eigenvalues --   -0.58909  -0.58370  -0.52371  -0.51506  -0.51438
 Alpha  occ. eigenvalues --   -0.51341  -0.48871  -0.48818  -0.35944  -0.35459
 Alpha  occ. eigenvalues --   -0.32345  -0.32201   0.17742
 Alpha virt. eigenvalues --    0.27785   0.34610   0.35141   0.41084   0.41324
 Alpha virt. eigenvalues --    0.49333   0.53540   0.56992   0.57203   0.58674
 Alpha virt. eigenvalues --    0.58956   0.74882   0.75198   0.78266   0.85871

 Mulliken charges and spin densities:
               1          2
     1  O   -0.418609   0.057486
     2  C    0.257809   0.377983
     3  O   -0.339200   0.064530
     4  O   -0.339200   0.064530
     5  C    0.257809   0.377983
     6  O   -0.418609   0.057486
 Sum of Mulliken charges =  -1.00000   1.00000

 Dipole moment (field-independent basis, Debye):
    X=             -0.0000    Y=             -0.0000    Z=             -0.0000  Tot=              0.0000
 Quadrupole moment (field-independent basis, Debye-Ang):
   XX=            -31.6507   YY=            -33.8663   ZZ=            -87.4170
   XY=              0.0000   XZ=              0.0000   YZ=              0.0000

 \CCSD(T)=-376.489316\RMSD=2.552e-09\PG=D*H [C*(O1C1O1.O1C1O1)]\\@
 Normal termination of Gaussian 16 at Tue Feb 20 11:48:27 2024.
