 Gaussian 16, Revision A.03,
 Gaussian 16:  ES64L-G16RevA.03 25-Dec-2016

 --------------------
 #p ROCCSD(T)/cc-pVTZ
 --------------------

 -----------
 CO2_CO2_237
 -----------
 Symbolic Z-matrix:
 Charge = -1 Multiplicity = 2

                         Standard orientation:
 ---------------------------------------------------------------------
 Center     Atomic      Atomic             Coordinates (Angstroms)
 Number     Number       Type             X           Y           Z
 ---------------------------------------------------------------------
      1          8           0        0.000000    0.000000    4.406000
      2          6           0        0.000000    0.000000    3.243000
      3          8           0        0.000000    0.000000    2.080000
      4          8           0        0.000000    0.000000   -2.080000
      5          6           0        0.000000    0.000000   -3.243000
      6          8           0        0.000000    0.000000   -4.406000
 ---------------------------------------------------------------------

 SCF Done:  E(ROHF) =  -375.220107131     A.U. after   12 cycles
 E2 =    -0.1232565060D+01 EUMP2 =    -0.37645267219051D+03
 CCSD(T)
 CCSD(T)= -0.37648850931D+03

 Unable to determine electronic state:  an orbital has unidentified symmetry.
 Alpha  occ. eigenvalues --  -20.42332 -20.42332 -20.42091 -20.42091 -11.20580
 Alpha  occ. eigenvalues --  -11.20580  -1.31073  -1.31071  -1.25623  -1.25618
 Alpha  occ. eigenvalues --   -0.59566  -0.59474  -0.52982  -0.52858  -0.52262
 Alpha  occ. eigenvalues --   -0.52232  -0.49696  -0.49689  -0.36721  -0.36504
 Alpha  occ. eigenvalues --   -0.33160  -0.33144   0.17726
 Alpha virt. eigenvalues --    0.26076   0.33873   0.34307   0.40383   0.40411
 Alpha virt. eigenvalues --    0.48681   0.51695   0.56353   0.56387   0.58040
 Alpha virt. eigenvalues --    0.58075   0.74340   0.74391   0.80480   0.85123

 Mulliken charges and spin densities:
               1          2
     1  O   -0.406749   0.058133
     2  C    0.265458   0.378335
     3  O   -0.358709   0.063532
     4  O   -0.358709   0.063532
     5  C    0.265458   0.378335
     6  O   -0.406749   0.058133
 Sum of Mulliken charges =  -1.00000   1.00000

 Dipole moment (field-independent basis, Debye):
    X=             -0.0000    Y=              0.0000    Z=             -0.0000  Tot=              0.0000
 Quadrupole moment (field-independent basis, Debye-Ang):
   XX=            -33.8454   YY=            -31.6374   ZZ=           -100.1183
   XY=              0.0000   XZ=              0.0000   YZ=             -0.0000

 5249\CCSD(T)=-376.4885093\RMSD=2.172e-09\PG=D*H [C*(O1C1O1.O1C1O1)]\\@
 Normal termination of Gaussian 16 at Tue Feb 20 10:37:14 2024.
