 Gaussian 16, Revision A.03,
 Gaussian 16:  ES64L-G16RevA.03 25-Dec-2016

 --------------------
 #p ROCCSD(T)/cc-pVTZ
 --------------------

 ----------
 CO2_CO2_21
 ----------
 Symbolic Z-matrix:
 Charge = -1 Multiplicity = 2

                         Standard orientation:
 ---------------------------------------------------------------------
 Center     Atomic      Atomic             Coordinates (Angstroms)
 Number     Number       Type             X           Y           Z
 ---------------------------------------------------------------------
      1          8           0        0.000000    0.000000    2.966000
      2          6           0        0.000000    0.000000    1.803000
      3          8           0        0.000000    0.000000    0.640000
      4          8           0        0.000000    0.000000   -0.640000
      5          6           0        0.000000    0.000000   -1.803000
      6          8           0        0.000000    0.000000   -2.966000
 ---------------------------------------------------------------------

 SCF Done:  E(ROHF) =  -374.727628671     A.U. after   14 cycles
 E2 =    -0.1308482532D+01 EUMP2 =    -0.37603611120282D+03
 CCSD(T)
 CCSD(T)= -0.37606201268D+03

 Unable to determine electronic state:  an orbital has unidentified symmetry.
 Alpha  occ. eigenvalues --  -20.37460 -20.37433 -20.36785 -20.36785 -11.12295
 Alpha  occ. eigenvalues --  -11.12295  -1.38351  -1.24938  -1.23249  -1.18189
 Alpha  occ. eigenvalues --   -0.83522  -0.53831  -0.52174  -0.51503  -0.51455
 Alpha  occ. eigenvalues --   -0.45715  -0.42892  -0.37889  -0.34220  -0.26271
 Alpha  occ. eigenvalues --   -0.23846  -0.07002   0.14066
 Alpha virt. eigenvalues --    0.35580   0.38573   0.40539   0.40595   0.47182
 Alpha virt. eigenvalues --    0.49364   0.57593   0.58866   0.59537   0.61877
 Alpha virt. eigenvalues --    0.64874   0.73721   0.84007   0.86249   0.93252

 Mulliken charges and spin densities:
               1          2
     1  O   -0.479302   0.064457
     2  C    0.158307   0.394103
     3  O   -0.179006   0.041440
     4  O   -0.179006   0.041440
     5  C    0.158307   0.394103
     6  O   -0.479302   0.064457
 Sum of Mulliken charges =  -1.00000   1.00000

 Dipole moment (field-independent basis, Debye):
    X=             -0.0000    Y=             -0.0000    Z=              0.0000  Tot=              0.0000
 Quadrupole moment (field-independent basis, Debye-Ang):
   XX=            -31.5848   YY=            -33.8322   ZZ=            -72.2808
   XY=              0.0000   XZ=              0.0000   YZ=              0.0000

 54\CCSD(T)=-376.0620127\RMSD=3.994e-09\PG=D*H [C*(O1C1O1.O1C1O1)]\\@
 Normal termination of Gaussian 16 at Mon Feb 19 14:54:36 2024.
