 Gaussian 16, Revision A.03,
 Gaussian 16:  ES64L-G16RevA.03 25-Dec-2016

 --------------------
 #p ROCCSD(T)/cc-pVTZ
 --------------------

 ----------
 CO2_CO2_50
 ----------
 Symbolic Z-matrix:
 Charge = -1 Multiplicity = 2

                         Standard orientation:
 ---------------------------------------------------------------------
 Center     Atomic      Atomic             Coordinates (Angstroms)
 Number     Number       Type             X           Y           Z
 ---------------------------------------------------------------------
      1          8           0       -1.744500   -1.401500    0.000000
      2          6           0       -0.581500   -1.401500    0.000000
      3          8           0        0.581500   -1.401500    0.000000
      4          8           0        0.581500    0.238500    0.000000
      5          6           0        0.581500    1.401500    0.000000
      6          8           0        0.581500    2.564500    0.000000
 ---------------------------------------------------------------------

 SCF Done:  E(ROHF) =  -375.086566130     A.U. after   43 cycles
 E2 =    -0.1241093882D+01 EUMP2 =    -0.37632766001132D+03
 CCSD(T)
 CCSD(T)= -0.37636943245D+03

 The electronic state is 2-A'.
 Alpha  occ. eigenvalues --  -20.44002 -20.41354 -20.31260 -20.30621 -11.23325
 Alpha  occ. eigenvalues --  -11.05894  -1.33306  -1.28044  -1.20748  -1.15566
 Alpha  occ. eigenvalues --   -0.63983  -0.59812  -0.54374  -0.51124  -0.47583
 Alpha  occ. eigenvalues --   -0.44682  -0.42804  -0.40592  -0.33772  -0.29819
 Alpha  occ. eigenvalues --   -0.23767  -0.22319   0.10998
 Alpha virt. eigenvalues --    0.36160   0.40042   0.40132   0.44071   0.48097
 Alpha virt. eigenvalues --    0.50999   0.57327   0.57724   0.60018   0.67219
 Alpha virt. eigenvalues --    0.67369   0.75859   0.81562   0.84668   0.89093

 Mulliken charges and spin densities:
               1          2
     1  O   -0.387181   0.012564
     2  C    0.456084   0.055263
     3  O   -0.228276   0.018396
     4  O   -0.390455   0.070579
     5  C    0.079798   0.734860
     6  O   -0.529969   0.108338
 Sum of Mulliken charges =  -1.00000   1.00000

 Dipole moment (field-independent basis, Debye):
    X=             -0.6935    Y=             -4.2909    Z=              0.0000  Tot=              4.3466
 Quadrupole moment (field-independent basis, Debye-Ang):
   XX=            -40.9608   YY=            -54.6024   ZZ=            -31.5242
   XY=             -4.5497   XZ=              0.0000   YZ=              0.0000

 76.3095031\CCSD(T)=-376.3694324\RMSD=4.312e-09\PG=CS [SG(C2O4)]\\@
 Normal termination of Gaussian 16 at Mon Feb 19 19:27:03 2024.
