 Gaussian 16, Revision A.03,
 Gaussian 16:  ES64L-G16RevA.03 25-Dec-2016

 --------------------
 #p ROCCSD(T)/cc-pVTZ
 --------------------

 -----------
 CO2_CO2_117
 -----------
 Symbolic Z-matrix:
 Charge = -1 Multiplicity = 2

                         Standard orientation:
 ---------------------------------------------------------------------
 Center     Atomic      Atomic             Coordinates (Angstroms)
 Number     Number       Type             X           Y           Z
 ---------------------------------------------------------------------
      1          8           0        0.000000    0.000000    3.606000
      2          6           0        0.000000    0.000000    2.443000
      3          8           0        0.000000    0.000000    1.280000
      4          8           0        0.000000    0.000000   -1.280000
      5          6           0        0.000000    0.000000   -2.443000
      6          8           0        0.000000    0.000000   -3.606000
 ---------------------------------------------------------------------

 SCF Done:  E(ROHF) =  -375.216919996     A.U. after   12 cycles
 E2 =    -0.1235750711D+01 EUMP2 =    -0.37645267070699D+03
 CCSD(T)
 CCSD(T)= -0.37648950857D+03

 Unable to determine electronic state:  an orbital has unidentified symmetry.
 Alpha  occ. eigenvalues --  -20.40616 -20.40616 -20.40267 -20.40267 -11.18569
 Alpha  occ. eigenvalues --  -11.18569  -1.29382  -1.29245  -1.23931  -1.23655
 Alpha  occ. eigenvalues --   -0.58974  -0.56899  -0.52406  -0.50635  -0.50314
 Alpha  occ. eigenvalues --   -0.48890  -0.48060  -0.47811  -0.35278  -0.34082
 Alpha  occ. eigenvalues --   -0.31656  -0.31014   0.17569
 Alpha virt. eigenvalues --    0.29781   0.35239   0.36048   0.41662   0.42420
 Alpha virt. eigenvalues --    0.50594   0.55269   0.57379   0.58127   0.59010
 Alpha virt. eigenvalues --    0.60052   0.74838   0.75757   0.86263   0.86439

 Mulliken charges and spin densities:
               1          2
     1  O   -0.438192   0.057346
     2  C    0.243179   0.375233
     3  O   -0.304987   0.067420
     4  O   -0.304987   0.067420
     5  C    0.243179   0.375233
     6  O   -0.438192   0.057346
 Sum of Mulliken charges =  -1.00000   1.00000

 Dipole moment (field-independent basis, Debye):
    X=             -0.0000    Y=             -0.0000    Z=             -0.0000  Tot=              0.0000
 Quadrupole moment (field-independent basis, Debye-Ang):
   XX=            -33.8633   YY=            -31.6623   ZZ=            -79.6180
   XY=              0.0000   XZ=              0.0000   YZ=              0.0000

 CCSD(T)=-376.4895086\RMSD=3.928e-09\PG=D*H [C*(O1C1O1.O1C1O1)]\\@
 Normal termination of Gaussian 16 at Tue Feb 20 18:14:14 2024.
