 Gaussian 16, Revision A.03,
 Gaussian 16:  ES64L-G16RevA.03 25-Dec-2016

 --------------------
 #p ROCCSD(T)/cc-pVTZ
 --------------------

 ----------
 CO2_CO2_35
 ----------
 Symbolic Z-matrix:
 Charge = -1 Multiplicity = 2

                         Standard orientation:
 ---------------------------------------------------------------------
 Center     Atomic      Atomic             Coordinates (Angstroms)
 Number     Number       Type             X           Y           Z
 ---------------------------------------------------------------------
      1          8           0       -1.744500   -1.301500    0.000000
      2          6           0       -0.581500   -1.301500    0.000000
      3          8           0        0.581500   -1.301500    0.000000
      4          8           0        0.581500    0.138500    0.000000
      5          6           0        0.581500    1.301500    0.000000
      6          8           0        0.581500    2.464500    0.000000
 ---------------------------------------------------------------------

 SCF Done:  E(ROHF) =  -374.915594605     A.U. after   30 cycles
 E2 =    -0.1266286895D+01 EUMP2 =    -0.37618188149987D+03
 CCSD(T)
 CCSD(T)= -0.37621785436D+03

 The electronic state is 2-A'.
 Alpha  occ. eigenvalues --  -20.42087 -20.41532 -20.32554 -20.32267 -11.20700
 Alpha  occ. eigenvalues --  -11.07839  -1.37649  -1.27471  -1.21358  -1.16372
 Alpha  occ. eigenvalues --   -0.69637  -0.60799  -0.54262  -0.51949  -0.48390
 Alpha  occ. eigenvalues --   -0.45021  -0.41908  -0.41764  -0.33975  -0.30285
 Alpha  occ. eigenvalues --   -0.24255  -0.12370   0.09843
 Alpha virt. eigenvalues --    0.36810   0.40617   0.41209   0.45095   0.46812
 Alpha virt. eigenvalues --    0.51296   0.57351   0.58603   0.60537   0.66610
 Alpha virt. eigenvalues --    0.67467   0.76482   0.81268   0.84744   0.88701

 Mulliken charges and spin densities:
               1          2
     1  O   -0.394532   0.009153
     2  C    0.369291   0.057173
     3  O   -0.169321   0.029463
     4  O   -0.305639   0.023422
     5  C   -0.024632   0.813427
     6  O   -0.475168   0.067361
 Sum of Mulliken charges =  -1.00000   1.00000

 Dipole moment (field-independent basis, Debye):
    X=              0.4049    Y=             -3.2947    Z=              0.0000  Tot=              3.3195
 Quadrupole moment (field-independent basis, Debye-Ang):
   XX=            -40.7507   YY=            -54.7234   ZZ=            -31.7770
   XY=             -4.1691   XZ=              0.0000   YZ=              0.0000

 D=-376.1545498\CCSD(T)=-376.2178544\RMSD=6.421e-09\PG=CS [SG(C2O4)]\\@
 Normal termination of Gaussian 16 at Mon Feb 19 17:16:08 2024.
