 Gaussian 16, Revision A.03,
 Gaussian 16:  ES64L-G16RevA.03 25-Dec-2016

 --------------------
 #p ROCCSD(T)/cc-pVTZ
 --------------------

 -----------
 CO2_CO2_219
 -----------
 Symbolic Z-matrix:
 Charge = -1 Multiplicity = 2

                         Standard orientation:
 ---------------------------------------------------------------------
 Center     Atomic      Atomic             Coordinates (Angstroms)
 Number     Number       Type             X           Y           Z
 ---------------------------------------------------------------------
      1          8           0        0.000000    0.000000    4.286000
      2          6           0        0.000000    0.000000    3.123000
      3          8           0        0.000000    0.000000    1.960000
      4          8           0        0.000000    0.000000   -1.960000
      5          6           0        0.000000    0.000000   -3.123000
      6          8           0        0.000000    0.000000   -4.286000
 ---------------------------------------------------------------------

 SCF Done:  E(ROHF) =  -375.219909693     A.U. after   12 cycles
 E2 =    -0.1232706660D+01 EUMP2 =    -0.37645261635293D+03
 CCSD(T)
 CCSD(T)= -0.37648858376D+03

 Unable to determine electronic state:  an orbital has unidentified symmetry.
 Alpha  occ. eigenvalues --  -20.42147 -20.42147 -20.41892 -20.41892 -11.20377
 Alpha  occ. eigenvalues --  -11.20376  -1.30881  -1.30877  -1.25426  -1.25418
 Alpha  occ. eigenvalues --   -0.59390  -0.59245  -0.52807  -0.52600  -0.52072
 Alpha  occ. eigenvalues --   -0.52033  -0.49506  -0.49494  -0.36539  -0.36281
 Alpha  occ. eigenvalues --   -0.32968  -0.32938   0.17740
 Alpha virt. eigenvalues --    0.26452   0.33994   0.34518   0.40555   0.40609
 Alpha virt. eigenvalues --    0.48492   0.52235   0.56514   0.56568   0.58203
 Alpha virt. eigenvalues --    0.58264   0.74532   0.74572   0.79201   0.85496

 Mulliken charges and spin densities:
               1          2
     1  O   -0.408597   0.057956
     2  C    0.264040   0.378333
     3  O   -0.355443   0.063711
     4  O   -0.355443   0.063711
     5  C    0.264040   0.378333
     6  O   -0.408597   0.057956
 Sum of Mulliken charges =  -1.00000   1.00000

 Dipole moment (field-independent basis, Debye):
    X=             -0.0000    Y=              0.0000    Z=             -0.0000  Tot=              0.0000
 Quadrupole moment (field-independent basis, Debye-Ang):
   XX=            -33.8504   YY=            -31.6404   ZZ=            -96.5855
   XY=              0.0000   XZ=              0.0000   YZ=             -0.0000

 5524\CCSD(T)=-376.4885838\RMSD=2.236e-09\PG=D*H [C*(O1C1O1.O1C1O1)]\\@
 Normal termination of Gaussian 16 at Wed Feb 21 09:01:13 2024.
