 Gaussian 16, Revision A.03,
 Gaussian 16:  ES64L-G16RevA.03 25-Dec-2016

 --------------------
 #p ROCCSD(T)/cc-pVTZ
 --------------------

 -----------
 CO2_CO2_246
 -----------
 Symbolic Z-matrix:
 Charge = -1 Multiplicity = 2

                         Standard orientation:
 ---------------------------------------------------------------------
 Center     Atomic      Atomic             Coordinates (Angstroms)
 Number     Number       Type             X           Y           Z
 ---------------------------------------------------------------------
      1          8           0        0.000000    0.000000    4.466000
      2          6           0        0.000000    0.000000    3.303000
      3          8           0        0.000000    0.000000    2.140000
      4          8           0        0.000000    0.000000   -2.140000
      5          6           0        0.000000    0.000000   -3.303000
      6          8           0        0.000000    0.000000   -4.466000
 ---------------------------------------------------------------------

 SCF Done:  E(ROHF) =  -375.220207579     A.U. after   12 cycles
 E2 =    -0.1232512647D+01 EUMP2 =    -0.37645272022612D+03
 CCSD(T)
 CCSD(T)= -0.37648849795D+03

 Unable to determine electronic state:  an orbital has unidentified symmetry.
 Alpha  occ. eigenvalues --  -20.42419 -20.42419 -20.42185 -20.42185 -11.20675
 Alpha  occ. eigenvalues --  -11.20674  -1.31164  -1.31162  -1.25715  -1.25711
 Alpha  occ. eigenvalues --   -0.59652  -0.59578  -0.53068  -0.52973  -0.52351
 Alpha  occ. eigenvalues --   -0.52324  -0.49785  -0.49780  -0.36807  -0.36607
 Alpha  occ. eigenvalues --   -0.33251  -0.33240   0.17718
 Alpha virt. eigenvalues --    0.25902   0.33822   0.34204   0.40300   0.40320
 Alpha virt. eigenvalues --    0.48806   0.51422   0.56276   0.56303   0.57962
 Alpha virt. eigenvalues --    0.57987   0.74246   0.74316   0.81033   0.84884

 Mulliken charges and spin densities:
               1          2
     1  O   -0.405993   0.058219
     2  C    0.266107   0.378336
     3  O   -0.360114   0.063445
     4  O   -0.360114   0.063445
     5  C    0.266107   0.378336
     6  O   -0.405993   0.058219
 Sum of Mulliken charges =  -1.00000   1.00000

 Dipole moment (field-independent basis, Debye):
    X=             -0.0000    Y=              0.0000    Z=             -0.0000  Tot=              0.0000
 Quadrupole moment (field-independent basis, Debye-Ang):
   XX=            -33.8431   YY=            -31.6360   ZZ=           -101.9406
   XY=              0.0000   XZ=              0.0000   YZ=             -0.0000

 5324\CCSD(T)=-376.488498\RMSD=2.143e-09\PG=D*H [C*(O1C1O1.O1C1O1)]\\@
 Normal termination of Gaussian 16 at Tue Feb 20 11:47:25 2024.
