 Gaussian 16, Revision A.03,
 Gaussian 16:  ES64L-G16RevA.03 25-Dec-2016

 --------------------
 #p ROCCSD(T)/cc-pVTZ
 --------------------

 ----------
 CO2_CO2_99
 ----------
 Symbolic Z-matrix:
 Charge = -1 Multiplicity = 2

                         Standard orientation:
 ---------------------------------------------------------------------
 Center     Atomic      Atomic             Coordinates (Angstroms)
 Number     Number       Type             X           Y           Z
 ---------------------------------------------------------------------
      1          8           0        0.000000    0.000000    3.486000
      2          6           0        0.000000    0.000000    2.323000
      3          8           0        0.000000    0.000000    1.160000
      4          8           0        0.000000    0.000000   -1.160000
      5          6           0        0.000000    0.000000   -2.323000
      6          8           0        0.000000    0.000000   -3.486000
 ---------------------------------------------------------------------

 SCF Done:  E(ROHF) =  -375.211802527     A.U. after   12 cycles
 E2 =    -0.1237543724D+01 EUMP2 =    -0.37644934625091D+03
 CCSD(T)
 CCSD(T)= -0.37648615653D+03

 Unable to determine electronic state:  an orbital has unidentified symmetry.
 Alpha  occ. eigenvalues --  -20.40195 -20.40195 -20.39747 -20.39747 -11.18003
 Alpha  occ. eigenvalues --  -11.18003  -1.29035  -1.28767  -1.23625  -1.23095
 Alpha  occ. eigenvalues --   -0.59622  -0.56187  -0.52604  -0.50319  -0.49804
 Alpha  occ. eigenvalues --   -0.47735  -0.47302  -0.46948  -0.35085  -0.33327
 Alpha  occ. eigenvalues --   -0.31455  -0.30364   0.17410
 Alpha virt. eigenvalues --    0.30759   0.35379   0.36508   0.41865   0.42968
 Alpha virt. eigenvalues --    0.50607   0.56037   0.57444   0.58561   0.59053
 Alpha virt. eigenvalues --    0.60597   0.74723   0.76455   0.86510   0.86675

 Mulliken charges and spin densities:
               1          2
     1  O   -0.447423   0.057481
     2  C    0.237442   0.373555
     3  O   -0.290019   0.068964
     4  O   -0.290019   0.068964
     5  C    0.237442   0.373555
     6  O   -0.447423   0.057481
 Sum of Mulliken charges =  -1.00000   1.00000

 Dipole moment (field-independent basis, Debye):
    X=             -0.0000    Y=             -0.0000    Z=             -0.0000  Tot=              0.0000
 Quadrupole moment (field-independent basis, Debye-Ang):
   XX=            -33.8491   YY=            -31.6639   ZZ=            -77.2764
   XY=              0.0000   XZ=              0.0000   YZ=              0.0000

 935\CCSD(T)=-376.4861565\RMSD=5.247e-09\PG=D*H [C*(O1C1O1.O1C1O1)]\\@
 Normal termination of Gaussian 16 at Tue Feb 20 15:09:36 2024.
