 Gaussian 16, Revision A.03,
 Gaussian 16:  ES64L-G16RevA.03 25-Dec-2016

 --------------------
 #p ROCCSD(T)/cc-pVTZ
 --------------------

 -----------
 CO2_CO2_115
 -----------
 Symbolic Z-matrix:
 Charge = -1 Multiplicity = 2

                         Standard orientation:
 ---------------------------------------------------------------------
 Center     Atomic      Atomic             Coordinates (Angstroms)
 Number     Number       Type             X           Y           Z
 ---------------------------------------------------------------------
      1          8           0        1.233548   -3.075048    0.000000
      2          6           0        0.411183   -2.252682    0.000000
      3          8           0       -0.411183   -1.430317    0.000000
      4          8           0       -0.411183    1.089683   -0.000000
      5          6           0       -0.411183    2.252682   -0.000000
      6          8           0       -0.411183    3.415682   -0.000000
 ---------------------------------------------------------------------

 SCF Done:  E(ROHF) =  -375.216128139     A.U. after   16 cycles
 E2 =    -0.1235734271D+01 EUMP2 =    -0.37645186240929D+03
 CCSD(T)
 CCSD(T)= -0.37648907030D+03

 The electronic state is 2-A".
 Alpha  occ. eigenvalues --  -20.40963 -20.40532 -20.39875 -20.39553 -11.19029
 Alpha  occ. eigenvalues --  -11.17751  -1.29632  -1.28607  -1.24135  -1.23075
 Alpha  occ. eigenvalues --   -0.58827  -0.56742  -0.52249  -0.50730  -0.49862
 Alpha  occ. eigenvalues --   -0.49290  -0.48227  -0.46914  -0.35238  -0.33817
 Alpha  occ. eigenvalues --   -0.31673  -0.30479   0.17519
 Alpha virt. eigenvalues --    0.30131   0.34977   0.36724   0.41789   0.42691
 Alpha virt. eigenvalues --    0.51012   0.54657   0.57159   0.58700   0.58760
 Alpha virt. eigenvalues --    0.62129   0.74931   0.76720   0.83867   0.86206

 Mulliken charges and spin densities:
               1          2
     1  O   -0.433168   0.060158
     2  C    0.252500   0.386934
     3  O   -0.334637   0.068085
     4  O   -0.299765   0.065370
     5  C    0.249307   0.364630
     6  O   -0.434237   0.054824
 Sum of Mulliken charges =  -1.00000   1.00000

 Dipole moment (field-independent basis, Debye):
    X=             -0.2705    Y=              0.2549    Z=             -0.0000  Tot=              0.3717
 Quadrupole moment (field-independent basis, Debye-Ang):
   XX=            -36.4657   YY=            -70.9907   ZZ=            -33.8530
   XY=              9.0207   XZ=             -0.0000   YZ=              0.0000

 18624\MP4SDQ=-376.4372653\CCSD=-376.4306522\CCSD(T)=-376.4890703\RMSD=
 Normal termination of Gaussian 16 at Tue Feb 20 17:55:02 2024.
