 Gaussian 16, Revision A.03,
 Gaussian 16:  ES64L-G16RevA.03 25-Dec-2016

 --------------------
 #p ROCCSD(T)/cc-pVTZ
 --------------------

 -----------
 CO2_CO2_135
 -----------
 Symbolic Z-matrix:
 Charge = -1 Multiplicity = 2

                         Standard orientation:
 ---------------------------------------------------------------------
 Center     Atomic      Atomic             Coordinates (Angstroms)
 Number     Number       Type             X           Y           Z
 ---------------------------------------------------------------------
      1          8           0        0.000000    0.000000    3.726000
      2          6           0        0.000000    0.000000    2.563000
      3          8           0        0.000000    0.000000    1.400000
      4          8           0        0.000000    0.000000   -1.400000
      5          6           0        0.000000    0.000000   -2.563000
      6          8           0        0.000000    0.000000   -3.726000
 ---------------------------------------------------------------------

 SCF Done:  E(ROHF) =  -375.218626351     A.U. after   12 cycles
 E2 =    -0.1234641073D+01 EUMP2 =    -0.37645326742366D+03
 CCSD(T)
 CCSD(T)= -0.37649000195D+03

 Unable to determine electronic state:  an orbital has unidentified symmetry.
 Alpha  occ. eigenvalues --  -20.40973 -20.40973 -20.40663 -20.40662 -11.19021
 Alpha  occ. eigenvalues --  -11.19021  -1.29708  -1.29637  -1.24242  -1.24097
 Alpha  occ. eigenvalues --   -0.58788  -0.57508  -0.52300  -0.50938  -0.50733
 Alpha  occ. eigenvalues --   -0.50141  -0.48368  -0.48224  -0.35509  -0.34668
 Alpha  occ. eigenvalues --   -0.31895  -0.31515   0.17666
 Alpha virt. eigenvalues --    0.28970   0.35062   0.35666   0.41454   0.41972
 Alpha virt. eigenvalues --    0.50396   0.54532   0.57270   0.57757   0.58925
 Alpha virt. eigenvalues --    0.59601   0.74957   0.75292   0.84049   0.86051

 Mulliken charges and spin densities:
               1          2
     1  O   -0.430202   0.057327
     2  C    0.249211   0.376628
     3  O   -0.319009   0.066045
     4  O   -0.319009   0.066045
     5  C    0.249211   0.376628
     6  O   -0.430202   0.057327
 Sum of Mulliken charges =  -1.00000   1.00000

 Dipole moment (field-independent basis, Debye):
    X=             -0.0000    Y=              0.0000    Z=             -0.0000  Tot=              0.0000
 Quadrupole moment (field-independent basis, Debye-Ang):
   XX=            -31.6584   YY=            -33.8692   ZZ=            -82.1945
   XY=              0.0000   XZ=              0.0000   YZ=              0.0000

 422\CCSD(T)=-376.490002\RMSD=3.239e-09\PG=D*H [C*(O1C1O1.O1C1O1)]\\@
 Normal termination of Gaussian 16 at Wed Feb 21 10:31:12 2024.
