 Gaussian 16, Revision A.03,
 Gaussian 16:  ES64L-G16RevA.03 25-Dec-2016

 --------------------
 #p ROCCSD(T)/cc-pVTZ
 --------------------

 ----------
 CO2_CO2_48
 ----------
 Symbolic Z-matrix:
 Charge = -1 Multiplicity = 2

                         Standard orientation:
 ---------------------------------------------------------------------
 Center     Atomic      Atomic             Coordinates (Angstroms)
 Number     Number       Type             X           Y           Z
 ---------------------------------------------------------------------
      1          8           0        0.000000    0.000000    3.146000
      2          6           0        0.000000    0.000000    1.983000
      3          8           0        0.000000    0.000000    0.820000
      4          8           0        0.000000    0.000000   -0.820000
      5          6           0        0.000000    0.000000   -1.983000
      6          8           0        0.000000    0.000000   -3.146000
 ---------------------------------------------------------------------

 SCF Done:  E(ROHF) =  -375.088830899     A.U. after   13 cycles
 E2 =    -0.1255595907D+01 EUMP2 =    -0.37634442680638D+03
 CCSD(T)
 CCSD(T)= -0.37637852456D+03

 Unable to determine electronic state:  an orbital has unidentified symmetry.
 Alpha  occ. eigenvalues --  -20.38422 -20.38422 -20.36934 -20.36932 -11.15175
 Alpha  occ. eigenvalues --  -11.15175  -1.28985  -1.26643  -1.23452  -1.20211
 Alpha  occ. eigenvalues --   -0.69240  -0.53744  -0.52489  -0.49917  -0.47539
 Alpha  occ. eigenvalues --   -0.47315  -0.44928  -0.35621  -0.31984  -0.31393
 Alpha  occ. eigenvalues --   -0.29460  -0.26911   0.16182
 Alpha virt. eigenvalues --    0.35113   0.35902   0.38364   0.41969   0.45447
 Alpha virt. eigenvalues --    0.50433   0.57501   0.57864   0.59189   0.60327
 Alpha virt. eigenvalues --    0.62922   0.74929   0.80032   0.87117   0.88535

 Mulliken charges and spin densities:
               1          2
     1  O   -0.485496   0.059328
     2  C    0.232466   0.375142
     3  O   -0.246970   0.065529
     4  O   -0.246970   0.065529
     5  C    0.232466   0.375142
     6  O   -0.485496   0.059328
 Sum of Mulliken charges =  -1.00000   1.00000

 Dipole moment (field-independent basis, Debye):
    X=             -0.0000    Y=             -0.0000    Z=              0.0000  Tot=              0.0000
 Quadrupole moment (field-independent basis, Debye-Ang):
   XX=            -31.6028   YY=            -33.7546   ZZ=            -72.4501
   XY=              0.0000   XZ=              0.0000   YZ=              0.0000

 448\CCSD(T)=-376.3785246\RMSD=7.371e-09\PG=D*H [C*(O1C1O1.O1C1O1)]\\@
 Normal termination of Gaussian 16 at Mon Feb 19 19:00:44 2024.
