 Gaussian 16, Revision A.03,
 Gaussian 16:  ES64L-G16RevA.03 25-Dec-2016

 --------------------
 #p ROCCSD(T)/cc-pVTZ
 --------------------

 ----------
 CO2_CO2_15
 ----------
 Symbolic Z-matrix:
 Charge = -1 Multiplicity = 2

                         Standard orientation:
 ---------------------------------------------------------------------
 Center     Atomic      Atomic             Coordinates (Angstroms)
 Number     Number       Type             X           Y           Z
 ---------------------------------------------------------------------
      1          8           0        0.000000    0.000000    2.926000
      2          6           0        0.000000    0.000000    1.763000
      3          8           0        0.000000    0.000000    0.600000
      4          8           0        0.000000    0.000000   -0.600000
      5          6           0        0.000000    0.000000   -1.763000
      6          8           0        0.000000    0.000000   -2.926000
 ---------------------------------------------------------------------

 SCF Done:  E(ROHF) =  -374.586457913     A.U. after   14 cycles
 E2 =    -0.1342205282D+01 EUMP2 =    -0.37592866319514D+03
 CCSD(T)
 CCSD(T)= -0.37594653506D+03

 Unable to determine electronic state:  an orbital has unidentified symmetry.
 Alpha  occ. eigenvalues --  -20.40587 -20.40538 -20.36411 -20.36411 -11.12462
 Alpha  occ. eigenvalues --  -11.12462  -1.45709  -1.24911  -1.23054  -1.18797
 Alpha  occ. eigenvalues --   -0.88495  -0.57923  -0.55817  -0.51946  -0.51300
 Alpha  occ. eigenvalues --   -0.45643  -0.42763  -0.38637  -0.34871  -0.26362
 Alpha  occ. eigenvalues --   -0.23898   0.00642   0.12826
 Alpha virt. eigenvalues --    0.34663   0.38667   0.39448   0.42116   0.46992
 Alpha virt. eigenvalues --    0.48510   0.57367   0.58994   0.59369   0.62109
 Alpha virt. eigenvalues --    0.65089   0.72126   0.85135   0.85960   0.93039

 Mulliken charges and spin densities:
               1          2
     1  O   -0.430953   0.068901
     2  C    0.057389   0.400173
     3  O   -0.126436   0.030926
     4  O   -0.126436   0.030926
     5  C    0.057389   0.400173
     6  O   -0.430953   0.068901
 Sum of Mulliken charges =  -1.00000   1.00000

 Dipole moment (field-independent basis, Debye):
    X=             -0.0000    Y=             -0.0000    Z=              0.0000  Tot=              0.0000
 Quadrupole moment (field-independent basis, Debye-Ang):
   XX=            -34.1779   YY=            -31.9048   ZZ=            -73.5322
   XY=             -0.0000   XZ=              0.0000   YZ=             -0.0000

 7\CCSD(T)=-375.9465351\RMSD=9.650e-09\PG=D*H [C*(O1C1O1.O1C1O1)]\\@
 Normal termination of Gaussian 16 at Mon Feb 19 13:53:07 2024.
