 Gaussian 16, Revision A.03,
 Gaussian 16:  ES64L-G16RevA.03 25-Dec-2016

 --------------------
 #p ROCCSD(T)/cc-pVTZ
 --------------------

 ----------
 CO2_CO2_23
 ----------
 Symbolic Z-matrix:
 Charge = -1 Multiplicity = 2

                         Standard orientation:
 ---------------------------------------------------------------------
 Center     Atomic      Atomic             Coordinates (Angstroms)
 Number     Number       Type             X           Y           Z
 ---------------------------------------------------------------------
      1          8           0       -1.744500   -1.221500    0.000000
      2          6           0       -0.581500   -1.221500    0.000000
      3          8           0        0.581500   -1.221500    0.000000
      4          8           0        0.581500    0.058500    0.000000
      5          6           0        0.581500    1.221500    0.000000
      6          8           0        0.581500    2.384500    0.000000
 ---------------------------------------------------------------------

 SCF Done:  E(ROHF) =  -374.695681679     A.U. after   24 cycles
 E2 =    -0.1286675564D+01 EUMP2 =    -0.37598235724309D+03
 CCSD(T)
 CCSD(T)= -0.37601741852D+03

 The electronic state is 2-A'.
 Alpha  occ. eigenvalues --  -20.47251 -20.38549 -20.38199 -20.34072 -11.15957
 Alpha  occ. eigenvalues --  -11.10483  -1.49303  -1.24518  -1.22806  -1.18006
 Alpha  occ. eigenvalues --   -0.77002  -0.66452  -0.57841  -0.51998  -0.49877
 Alpha  occ. eigenvalues --   -0.46942  -0.42396  -0.39963  -0.34510  -0.32304
 Alpha  occ. eigenvalues --   -0.25778  -0.01096   0.06330
 Alpha virt. eigenvalues --    0.36042   0.40520   0.44295   0.45145   0.45247
 Alpha virt. eigenvalues --    0.51165   0.57290   0.59457   0.61484   0.65960
 Alpha virt. eigenvalues --    0.67318   0.76637   0.80438   0.83566   0.87971

 Mulliken charges and spin densities:
               1          2
     1  O   -0.390984   0.003208
     2  C    0.079980   0.032270
     3  O   -0.008867   0.042763
     4  O   -0.197739   0.028300
     5  C   -0.038670   0.830134
     6  O   -0.443719   0.063325
 Sum of Mulliken charges =  -1.00000   1.00000

 Dipole moment (field-independent basis, Debye):
    X=              1.8028    Y=             -1.6085    Z=              0.0000  Tot=              2.4161
 Quadrupole moment (field-independent basis, Debye-Ang):
   XX=            -41.1905   YY=            -57.0067   ZZ=            -31.8628
   XY=             -5.6057   XZ=              0.0000   YZ=              0.0000

 D=-375.9499659\CCSD(T)=-376.0174185\RMSD=3.730e-09\PG=CS [SG(C2O4)]\\@
 Normal termination of Gaussian 16 at Mon Feb 19 15:22:28 2024.
