 Gaussian 16, Revision A.03,
 Gaussian 16:  ES64L-G16RevA.03 25-Dec-2016

 --------------------
 #p ROCCSD(T)/cc-pVTZ
 --------------------

 ----------
 CO2_CO2_42
 ----------
 Symbolic Z-matrix:
 Charge = -1 Multiplicity = 2

                         Standard orientation:
 ---------------------------------------------------------------------
 Center     Atomic      Atomic             Coordinates (Angstroms)
 Number     Number       Type             X           Y           Z
 ---------------------------------------------------------------------
      1          8           0        0.000000    0.000000    3.106000
      2          6           0        0.000000    0.000000    1.943000
      3          8           0        0.000000    0.000000    0.780000
      4          8           0        0.000000    0.000000   -0.780000
      5          6           0        0.000000    0.000000   -1.943000
      6          8           0        0.000000    0.000000   -3.106000
 ---------------------------------------------------------------------

 SCF Done:  E(ROHF) =  -375.041632173     A.U. after   13 cycles
 E2 =    -0.1261444830D+01 EUMP2 =    -0.37630307700263D+03
 CCSD(T)
 CCSD(T)= -0.37633619013D+03

 Unable to determine electronic state:  an orbital has unidentified symmetry.
 Alpha  occ. eigenvalues --  -20.38125 -20.38125 -20.36535 -20.36532 -11.14623
 Alpha  occ. eigenvalues --  -11.14623  -1.29601  -1.26291  -1.23532  -1.19689
 Alpha  occ. eigenvalues --   -0.71720  -0.53417  -0.52320  -0.50130  -0.47543
 Alpha  occ. eigenvalues --   -0.47162  -0.44516  -0.35958  -0.32324  -0.28756
 Alpha  occ. eigenvalues --   -0.27489  -0.26255   0.15877
 Alpha virt. eigenvalues --    0.35858   0.35943   0.38678   0.41835   0.45859
 Alpha virt. eigenvalues --    0.50280   0.57520   0.58078   0.59248   0.60619
 Alpha virt. eigenvalues --    0.63309   0.74919   0.80713   0.86948   0.89186

 Mulliken charges and spin densities:
               1          2
     1  O   -0.489995   0.059892
     2  C    0.227271   0.377461
     3  O   -0.237276   0.062646
     4  O   -0.237276   0.062646
     5  C    0.227271   0.377461
     6  O   -0.489995   0.059892
 Sum of Mulliken charges =  -1.00000   1.00000

 Dipole moment (field-independent basis, Debye):
    X=             -0.0000    Y=             -0.0000    Z=             -0.0000  Tot=              0.0000
 Quadrupole moment (field-independent basis, Debye-Ang):
   XX=            -31.5824   YY=            -33.7415   ZZ=            -72.1328
   XY=              0.0000   XZ=              0.0000   YZ=              0.0000

 1\CCSD(T)=-376.3361901\RMSD=8.634e-09\PG=D*H [C*(O1C1O1.O1C1O1)]\\@
 Normal termination of Gaussian 16 at Mon Feb 19 17:58:48 2024.
