 Gaussian 16, Revision A.03,
 Gaussian 16:  ES64L-G16RevA.03 25-Dec-2016

 --------------------
 #p ROCCSD(T)/cc-pVTZ
 --------------------

 ----------
 CO2_CO2_36
 ----------
 Symbolic Z-matrix:
 Charge = -1 Multiplicity = 2

                         Standard orientation:
 ---------------------------------------------------------------------
 Center     Atomic      Atomic             Coordinates (Angstroms)
 Number     Number       Type             X           Y           Z
 ---------------------------------------------------------------------
      1          8           0        0.000000    0.000000    3.066000
      2          6           0        0.000000    0.000000    1.903000
      3          8           0        0.000000    0.000000    0.740000
      4          8           0        0.000000    0.000000   -0.740000
      5          6           0        0.000000    0.000000   -1.903000
      6          8           0        0.000000    0.000000   -3.066000
 ---------------------------------------------------------------------

 SCF Done:  E(ROHF) =  -374.978836797     A.U. after   13 cycles
 E2 =    -0.1269380544D+01 EUMP2 =    -0.37624821734041D+03
 CCSD(T)
 CCSD(T)= -0.37628004327D+03

 Unable to determine electronic state:  an orbital has unidentified symmetry.
 Alpha  occ. eigenvalues --  -20.37797 -20.37797 -20.36246 -20.36240 -11.13996
 Alpha  occ. eigenvalues --  -11.13996  -1.30730  -1.25914  -1.23571  -1.19145
 Alpha  occ. eigenvalues --   -0.74575  -0.53076  -0.52114  -0.50540  -0.47982
 Alpha  occ. eigenvalues --   -0.46758  -0.44069  -0.36395  -0.32763  -0.28003
 Alpha  occ. eigenvalues --   -0.25540  -0.22805   0.15508
 Alpha virt. eigenvalues --    0.35958   0.36657   0.39044   0.41631   0.46290
 Alpha virt. eigenvalues --    0.50106   0.57547   0.58298   0.59325   0.60940
 Alpha virt. eigenvalues --    0.63731   0.74841   0.81491   0.86757   0.90012

 Mulliken charges and spin densities:
               1          2
     1  O   -0.493176   0.060634
     2  C    0.218818   0.380739
     3  O   -0.225642   0.058626
     4  O   -0.225642   0.058626
     5  C    0.218818   0.380739
     6  O   -0.493176   0.060634
 Sum of Mulliken charges =  -1.00000   1.00000

 Dipole moment (field-independent basis, Debye):
    X=             -0.0000    Y=             -0.0000    Z=              0.0000  Tot=              0.0000
 Quadrupole moment (field-independent basis, Debye-Ang):
   XX=            -31.5598   YY=            -33.7328   ZZ=            -71.9103
   XY=              0.0000   XZ=              0.0000   YZ=              0.0000

 754\CCSD(T)=-376.2800433\RMSD=7.957e-09\PG=D*H [C*(O1C1O1.O1C1O1)]\\@
 Normal termination of Gaussian 16 at Mon Feb 19 17:20:08 2024.
