 Gaussian 16, Revision A.03,
 Gaussian 16:  ES64L-G16RevA.03 25-Dec-2016

 --------------------
 #p ROCCSD(T)/cc-pVTZ
 --------------------

 ----------
 CO2_CO2_87
 ----------
 Symbolic Z-matrix:
 Charge = -1 Multiplicity = 2

                         Standard orientation:
 ---------------------------------------------------------------------
 Center     Atomic      Atomic             Coordinates (Angstroms)
 Number     Number       Type             X           Y           Z
 ---------------------------------------------------------------------
      1          8           0        0.000000    0.000000    3.406000
      2          6           0        0.000000    0.000000    2.243000
      3          8           0        0.000000    0.000000    1.080000
      4          8           0        0.000000    0.000000   -1.080000
      5          6           0        0.000000    0.000000   -2.243000
      6          8           0        0.000000    0.000000   -3.406000
 ---------------------------------------------------------------------

 SCF Done:  E(ROHF) =  -375.203947592     A.U. after   12 cycles
 E2 =    -0.1239395123D+01 EUMP2 =    -0.37644334271488D+03
 CCSD(T)
 CCSD(T)= -0.37647999687D+03

 Unable to determine electronic state:  an orbital has unidentified symmetry.
 Alpha  occ. eigenvalues --  -20.39867 -20.39867 -20.39290 -20.39290 -11.17538
 Alpha  occ. eigenvalues --  -11.17537  -1.28805  -1.28385  -1.23448  -1.22625
 Alpha  occ. eigenvalues --   -0.60544  -0.55662  -0.52735  -0.50111  -0.49397
 Alpha  occ. eigenvalues --   -0.47520  -0.46888  -0.45026  -0.35006  -0.32691
 Alpha  occ. eigenvalues --   -0.31371  -0.29813   0.17255
 Alpha virt. eigenvalues --    0.31534   0.35484   0.36863   0.41985   0.43408
 Alpha virt. eigenvalues --    0.50648   0.56505   0.57464   0.58894   0.59065
 Alpha virt. eigenvalues --    0.61025   0.74698   0.77054   0.86701   0.87119

 Mulliken charges and spin densities:
               1          2
     1  O   -0.454535   0.057660
     2  C    0.235421   0.372552
     3  O   -0.280886   0.069788
     4  O   -0.280886   0.069788
     5  C    0.235421   0.372552
     6  O   -0.454535   0.057660
 Sum of Mulliken charges =  -1.00000   1.00000

 Dipole moment (field-independent basis, Debye):
    X=             -0.0000    Y=             -0.0000    Z=              0.0000  Tot=              0.0000
 Quadrupole moment (field-independent basis, Debye-Ang):
   XX=            -31.6612   YY=            -33.8339   ZZ=            -75.8730
   XY=              0.0000   XZ=              0.0000   YZ=              0.0000

 133\CCSD(T)=-376.4799969\RMSD=6.701e-09\PG=D*H [C*(O1C1O1.O1C1O1)]\\@
 Normal termination of Gaussian 16 at Tue Feb 20 13:08:33 2024.
