 Gaussian 16, Revision A.03,
 Gaussian 16:  ES64L-G16RevA.03 25-Dec-2016

 --------------------
 #p ROCCSD(T)/cc-pVTZ
 --------------------

 ----------
 CO2_CO2_40
 ----------
 Symbolic Z-matrix:
 Charge = -1 Multiplicity = 2

                         Standard orientation:
 ---------------------------------------------------------------------
 Center     Atomic      Atomic             Coordinates (Angstroms)
 Number     Number       Type             X           Y           Z
 ---------------------------------------------------------------------
      1          8           0        1.233548   -2.575048    0.000000
      2          6           0        0.411183   -1.752683    0.000000
      3          8           0       -0.411183   -0.930317   -0.000000
      4          8           0       -0.411183    0.589682   -0.000000
      5          6           0       -0.411183    1.752682   -0.000000
      6          8           0       -0.411183    2.915683   -0.000000
 ---------------------------------------------------------------------

 SCF Done:  E(ROHF) =  -375.010933129     A.U. after   19 cycles
 E2 =    -0.1269404172D+01 EUMP2 =    -0.37628033730115D+03
 CCSD(T)
 CCSD(T)= -0.37631435122D+03

 The electronic state is 2-A".
 Alpha  occ. eigenvalues --  -20.40596 -20.39110 -20.35442 -20.34985 -11.17717
 Alpha  occ. eigenvalues --  -11.11536  -1.31605  -1.26865  -1.23030  -1.18835
 Alpha  occ. eigenvalues --   -0.72002  -0.55001  -0.51333  -0.50845  -0.49228
 Alpha  occ. eigenvalues --   -0.46494  -0.44465  -0.36501  -0.35392  -0.30479
 Alpha  occ. eigenvalues --   -0.28556  -0.18425   0.15578
 Alpha virt. eigenvalues --    0.35048   0.35960   0.39636   0.41654   0.45445
 Alpha virt. eigenvalues --    0.52829   0.56578   0.56692   0.58597   0.62107
 Alpha virt. eigenvalues --    0.67919   0.75786   0.80787   0.86485   0.89551

 Mulliken charges and spin densities:
               1          2
     1  O   -0.489781   0.076585
     2  C    0.164092   0.469183
     3  O   -0.280662   0.059018
     4  O   -0.196296   0.049158
     5  C    0.265275   0.300291
     6  O   -0.462628   0.045765
 Sum of Mulliken charges =  -1.00000   1.00000

 Dipole moment (field-independent basis, Debye):
    X=             -0.9246    Y=              1.7065    Z=             -0.0000  Tot=              1.9409
 Quadrupole moment (field-independent basis, Debye-Ang):
   XX=            -36.9673   YY=            -64.4347   ZZ=            -33.7915
   XY=              8.9298   XZ=             -0.0000   YZ=              0.0000

 3373\MP4SDQ=-376.2588253\CCSD=-376.2506698\CCSD(T)=-376.3143512\RMSD=6
 Normal termination of Gaussian 16 at Mon Feb 19 17:45:59 2024.
