 Gaussian 16, Revision A.03,
 Gaussian 16:  ES64L-G16RevA.03 25-Dec-2016

 --------------------
 #p ROCCSD(T)/cc-pVTZ
 --------------------

 -----------
 CO2_CO2_279
 -----------
 Symbolic Z-matrix:
 Charge = -1 Multiplicity = 2

                         Standard orientation:
 ---------------------------------------------------------------------
 Center     Atomic      Atomic             Coordinates (Angstroms)
 Number     Number       Type             X           Y           Z
 ---------------------------------------------------------------------
      1          8           0        0.000000    0.000000    4.686000
      2          6           0        0.000000    0.000000    3.523000
      3          8           0        0.000000    0.000000    2.360000
      4          8           0        0.000000    0.000000   -2.360000
      5          6           0        0.000000    0.000000   -3.523000
      6          8           0        0.000000    0.000000   -4.686000
 ---------------------------------------------------------------------

 SCF Done:  E(ROHF) =  -375.220571746     A.U. after   12 cycles
 E2 =    -0.1232399083D+01 EUMP2 =    -0.37645297082977D+03
 CCSD(T)
 CCSD(T)= -0.37648855510D+03

 Unable to determine electronic state:  an orbital has unidentified symmetry.
 Alpha  occ. eigenvalues --  -20.42710 -20.42710 -20.42502 -20.42502 -11.20989
 Alpha  occ. eigenvalues --  -11.20989  -1.31466  -1.31465  -1.26023  -1.26021
 Alpha  occ. eigenvalues --   -0.59948  -0.59913  -0.53369  -0.53335  -0.52651
 Alpha  occ. eigenvalues --   -0.52631  -0.50085  -0.50084  -0.37097  -0.36942
 Alpha  occ. eigenvalues --   -0.33559  -0.33555   0.17688
 Alpha virt. eigenvalues --    0.25325   0.33650   0.33853   0.40016   0.40021
 Alpha virt. eigenvalues --    0.49199   0.50511   0.56010   0.56022   0.57692
 Alpha virt. eigenvalues --    0.57700   0.73964   0.74031   0.82283   0.83893

 Mulliken charges and spin densities:
               1          2
     1  O   -0.403749   0.058514
     2  C    0.268169   0.378362
     3  O   -0.364420   0.063125
     4  O   -0.364420   0.063125
     5  C    0.268169   0.378362
     6  O   -0.403749   0.058514
 Sum of Mulliken charges =  -1.00000   1.00000

 Dipole moment (field-independent basis, Debye):
    X=             -0.0000    Y=              0.0000    Z=              0.0000  Tot=              0.0000
 Quadrupole moment (field-independent basis, Debye-Ang):
   XX=            -31.6316   YY=            -33.8363   ZZ=           -108.9363
   XY=              0.0000   XZ=              0.0000   YZ=             -0.0000

 6392\CCSD(T)=-376.4885551\RMSD=2.048e-09\PG=D*H [C*(O1C1O1.O1C1O1)]\\@
 Normal termination of Gaussian 16 at Tue Feb 20 16:08:55 2024.
