 Gaussian 16, Revision A.03,
 Gaussian 16:  ES64L-G16RevA.03 25-Dec-2016

 --------------------
 #p ROCCSD(T)/cc-pVTZ
 --------------------

 ---------
 CO2_CO2_0
 ---------
 Symbolic Z-matrix:
 Charge = -1 Multiplicity = 2

                         Standard orientation:
 ---------------------------------------------------------------------
 Center     Atomic      Atomic             Coordinates (Angstroms)
 Number     Number       Type             X           Y           Z
 ---------------------------------------------------------------------
      1          8           0        0.000000    0.000000    2.826000
      2          6           0        0.000000    0.000000    1.663000
      3          8           0        0.000000    0.000000    0.500000
      4          8           0        0.000000    0.000000   -0.500000
      5          6           0        0.000000    0.000000   -1.663000
      6          8           0        0.000000    0.000000   -2.826000
 ---------------------------------------------------------------------

 SCF Done:  E(ROHF) =  -374.303967922     A.U. after   13 cycles
 E2 =    -0.1336666738D+01 EUMP2 =    -0.37564063466048D+03
 CCSD(T)
 CCSD(T)= -0.37564862740D+03

 Unable to determine electronic state:  an orbital has unidentified symmetry.
 Alpha  occ. eigenvalues --  -20.62935 -20.62698 -20.33283 -20.33283 -11.15482
 Alpha  occ. eigenvalues --  -11.15479  -1.81840  -1.29755  -1.21331  -1.19412
 Alpha  occ. eigenvalues --   -1.08688  -0.84085  -0.82900  -0.48854  -0.48659
 Alpha  occ. eigenvalues --   -0.48129  -0.46671  -0.38546  -0.37661  -0.29121
 Alpha  occ. eigenvalues --   -0.27946   0.09339   0.10070
 Alpha virt. eigenvalues --    0.31283   0.35330   0.37958   0.39800   0.46557
 Alpha virt. eigenvalues --    0.54785   0.55914   0.57893   0.59251   0.61350
 Alpha virt. eigenvalues --    0.62663   0.69884   0.85379   0.87192   0.88794

 Mulliken charges and spin densities:
               1          2
     1  O   -0.541482   0.098409
     2  C   -0.270831   0.390744
     3  O    0.312312   0.010847
     4  O    0.312312   0.010847
     5  C   -0.270831   0.390744
     6  O   -0.541482   0.098409
 Sum of Mulliken charges =  -1.00000   1.00000

 Dipole moment (field-independent basis, Debye):
    X=             -0.0000    Y=              0.0000    Z=             -0.0000  Tot=              0.0000
 Quadrupole moment (field-independent basis, Debye-Ang):
   XX=            -33.7557   YY=            -36.2383   ZZ=            -81.2606
   XY=              0.0000   XZ=              0.0000   YZ=              0.0000

 \CCSD(T)=-375.6486274\RMSD=9.759e-09\PG=D*H [C*(O1C1O1.O1C1O1)]\\@
 Normal termination of Gaussian 16 at Mon Feb 19 11:33:55 2024.
