 Gaussian 16, Revision A.03,
 Gaussian 16:  ES64L-G16RevA.03 25-Dec-2016

 --------------------
 #p ROCCSD(T)/cc-pVTZ
 --------------------

 -----------
 CO2_CO2_183
 -----------
 Symbolic Z-matrix:
 Charge = -1 Multiplicity = 2

                         Standard orientation:
 ---------------------------------------------------------------------
 Center     Atomic      Atomic             Coordinates (Angstroms)
 Number     Number       Type             X           Y           Z
 ---------------------------------------------------------------------
      1          8           0        0.000000    0.000000    4.046000
      2          6           0        0.000000    0.000000    2.883000
      3          8           0        0.000000    0.000000    1.720000
      4          8           0        0.000000    0.000000   -1.720000
      5          6           0        0.000000    0.000000   -2.883000
      6          8           0        0.000000    0.000000   -4.046000
 ---------------------------------------------------------------------

 SCF Done:  E(ROHF) =  -375.219544395     A.U. after   12 cycles
 E2 =    -0.1233182060D+01 EUMP2 =    -0.37645272645500D+03
 CCSD(T)
 CCSD(T)= -0.37648900704D+03

 Unable to determine electronic state:  an orbital has unidentified symmetry.
 Alpha  occ. eigenvalues --  -20.41718 -20.41718 -20.41439 -20.41439 -11.19899
 Alpha  occ. eigenvalues --  -11.19899  -1.30441  -1.30429  -1.24978  -1.24950
 Alpha  occ. eigenvalues --   -0.59037  -0.58672  -0.52478  -0.51909  -0.51641
 Alpha  occ. eigenvalues --   -0.51569  -0.49074  -0.49040  -0.36131  -0.35739
 Alpha  occ. eigenvalues --   -0.32540  -0.32448   0.17751
 Alpha virt. eigenvalues --    0.27343   0.34391   0.34948   0.40923   0.41084
 Alpha virt. eigenvalues --    0.48844   0.53181   0.56851   0.56994   0.58538
 Alpha virt. eigenvalues --    0.58722   0.74777   0.75187   0.77529   0.85826

 Mulliken charges and spin densities:
               1          2
     1  O   -0.414704   0.057610
     2  C    0.260279   0.378207
     3  O   -0.345575   0.064183
     4  O   -0.345575   0.064183
     5  C    0.260279   0.378207
     6  O   -0.414704   0.057610
 Sum of Mulliken charges =  -1.00000   1.00000

 Dipole moment (field-independent basis, Debye):
    X=             -0.0000    Y=             -0.0000    Z=              0.0000  Tot=              0.0000
 Quadrupole moment (field-independent basis, Debye-Ang):
   XX=            -31.6473   YY=            -33.8619   ZZ=            -89.9808
   XY=              0.0000   XZ=              0.0000   YZ=             -0.0000

 406\CCSD(T)=-376.489007\RMSD=2.419e-09\PG=D*H [C*(O1C1O1.O1C1O1)]\\@
 Normal termination of Gaussian 16 at Tue Feb 20 14:17:45 2024.
