 Gaussian 16, Revision A.03,
 Gaussian 16:  ES64L-G16RevA.03 25-Dec-2016

 --------------------
 #p ROCCSD(T)/cc-pVTZ
 --------------------

 -----------
 CO2_CO2_101
 -----------
 Symbolic Z-matrix:
 Charge = -1 Multiplicity = 2

                         Standard orientation:
 ---------------------------------------------------------------------
 Center     Atomic      Atomic             Coordinates (Angstroms)
 Number     Number       Type             X           Y           Z
 ---------------------------------------------------------------------
      1          8           0       -1.744500   -1.741500    0.000000
      2          6           0       -0.581500   -1.741500    0.000000
      3          8           0        0.581500   -1.741500    0.000000
      4          8           0        0.581500    0.578500    0.000000
      5          6           0        0.581500    1.741500    0.000000
      6          8           0        0.581500    2.904500    0.000000
 ---------------------------------------------------------------------

 SCF Done:  E(ROHF) =  -375.248369407     A.U. after   34 cycles
 E2 =    -0.1238556278D+01 EUMP2 =    -0.37648692568476D+03
 CCSD(T)
 CCSD(T)= -0.37652544672D+03

 The electronic state is 2-A'.
 Alpha  occ. eigenvalues --  -20.48124 -20.47060 -20.38282 -20.38098 -11.28938
 Alpha  occ. eigenvalues --  -11.19058  -1.35907  -1.30616  -1.27506  -1.22662
 Alpha  occ. eigenvalues --   -0.63387  -0.58332  -0.57145  -0.54412  -0.53349
 Alpha  occ. eigenvalues --   -0.48897  -0.46200  -0.45702  -0.37390  -0.36623
 Alpha  occ. eigenvalues --   -0.29496  -0.28904   0.13808
 Alpha virt. eigenvalues --    0.32923   0.36687   0.37677   0.42196   0.42982
 Alpha virt. eigenvalues --    0.48902   0.53824   0.54306   0.58760   0.62472
 Alpha virt. eigenvalues --    0.64218   0.72617   0.77132   0.81400   0.85274

 Mulliken charges and spin densities:
               1          2
     1  O   -0.278526  -0.045805
     2  C    0.318246   0.238923
     3  O   -0.216870  -0.042702
     4  O   -0.003377  -0.251475
     5  C   -0.671261   1.312450
     6  O   -0.148212  -0.211391
 Sum of Mulliken charges =  -1.00000   1.00000

 Dipole moment (field-independent basis, Debye):
    X=             -2.2128    Y=             -5.5332    Z=              0.0000  Tot=              5.9592
 Quadrupole moment (field-independent basis, Debye-Ang):
   XX=            -43.7033   YY=            -55.6293   ZZ=            -35.0891
   XY=             -6.8005   XZ=              0.0000   YZ=              0.0000

 SD=-376.4644988\CCSD(T)=-376.5254467\RMSD=7.922e-09\PG=CS [SG(C2O4)]\\
 Normal termination of Gaussian 16 at Tue Feb 20 15:34:52 2024.
