 Gaussian 16, Revision A.03,
 Gaussian 16:  ES64L-G16RevA.03 25-Dec-2016

 --------------------
 #p ROCCSD(T)/cc-pVTZ
 --------------------

 -----------
 CO2_CO2_198
 -----------
 Symbolic Z-matrix:
 Charge = -1 Multiplicity = 2

                         Standard orientation:
 ---------------------------------------------------------------------
 Center     Atomic      Atomic             Coordinates (Angstroms)
 Number     Number       Type             X           Y           Z
 ---------------------------------------------------------------------
      1          8           0        0.000000    0.000000    4.146000
      2          6           0        0.000000    0.000000    2.983000
      3          8           0        0.000000    0.000000    1.820000
      4          8           0        0.000000    0.000000   -1.820000
      5          6           0        0.000000    0.000000   -2.983000
      6          8           0        0.000000    0.000000   -4.146000
 ---------------------------------------------------------------------

 SCF Done:  E(ROHF) =  -375.219690685     A.U. after   12 cycles
 E2 =    -0.1232946634D+01 EUMP2 =    -0.37645263731976D+03
 CCSD(T)
 CCSD(T)= -0.37648877910D+03

 Unable to determine electronic state:  an orbital has unidentified symmetry.
 Alpha  occ. eigenvalues --  -20.41907 -20.41907 -20.41638 -20.41637 -11.20112
 Alpha  occ. eigenvalues --  -11.20111  -1.30634  -1.30627  -1.25175  -1.25158
 Alpha  occ. eigenvalues --   -0.59181  -0.58933  -0.52608  -0.52233  -0.51830
 Alpha  occ. eigenvalues --   -0.51775  -0.49263  -0.49242  -0.36309  -0.35983
 Alpha  occ. eigenvalues --   -0.32725  -0.32667   0.17750
 Alpha virt. eigenvalues --    0.26945   0.34198   0.34766   0.40767   0.40871
 Alpha virt. eigenvalues --    0.48544   0.52812   0.56709   0.56804   0.58398
 Alpha virt. eigenvalues --    0.58516   0.74679   0.74943   0.77860   0.85744

 Mulliken charges and spin densities:
               1          2
     1  O   -0.411657   0.057749
     2  C    0.262087   0.378302
     3  O   -0.350430   0.063949
     4  O   -0.350430   0.063949
     5  C    0.262087   0.378302
     6  O   -0.411657   0.057749
 Sum of Mulliken charges =  -1.00000   1.00000

 Dipole moment (field-independent basis, Debye):
    X=             -0.0000    Y=              0.0000    Z=              0.0000  Tot=              0.0000
 Quadrupole moment (field-independent basis, Debye-Ang):
   XX=            -33.8570   YY=            -31.6443   ZZ=            -92.6565
   XY=              0.0000   XZ=              0.0000   YZ=             -0.0000

 759\CCSD(T)=-376.4887791\RMSD=2.329e-09\PG=D*H [C*(O1C1O1.O1C1O1)]\\@
 Normal termination of Gaussian 16 at Tue Feb 20 16:29:31 2024.
