 Gaussian 16, Revision A.03,
 Gaussian 16:  ES64L-G16RevA.03 25-Dec-2016

 --------------------
 #p ROCCSD(T)/cc-pVTZ
 --------------------

 -----------
 CO2_CO2_112
 -----------
 Symbolic Z-matrix:
 Charge = -1 Multiplicity = 2

                         Standard orientation:
 ---------------------------------------------------------------------
 Center     Atomic      Atomic             Coordinates (Angstroms)
 Number     Number       Type             X           Y           Z
 ---------------------------------------------------------------------
      1          8           0        1.233548   -3.055048    0.000000
      2          6           0        0.411183   -2.232683    0.000000
      3          8           0       -0.411183   -1.410317    0.000000
      4          8           0       -0.411183    1.069683   -0.000000
      5          6           0       -0.411183    2.232683   -0.000000
      6          8           0       -0.411183    3.395682   -0.000000
 ---------------------------------------------------------------------

 SCF Done:  E(ROHF) =  -375.215409256     A.U. after   16 cycles
 E2 =    -0.1236011720D+01 EUMP2 =    -0.37645142097560D+03
 CCSD(T)
 CCSD(T)= -0.37648864891D+03

 The electronic state is 2-A".
 Alpha  occ. eigenvalues --  -20.40914 -20.40466 -20.39789 -20.39458 -11.18964
 Alpha  occ. eigenvalues --  -11.17644  -1.29584  -1.28523  -1.24088  -1.22985
 Alpha  occ. eigenvalues --   -0.58884  -0.56636  -0.52275  -0.50681  -0.49778
 Alpha  occ. eigenvalues --   -0.49120  -0.48168  -0.46773  -0.35205  -0.33702
 Alpha  occ. eigenvalues --   -0.31628  -0.30366   0.17499
 Alpha virt. eigenvalues --    0.30281   0.34999   0.36807   0.41834   0.42758
 Alpha virt. eigenvalues --    0.51082   0.54714   0.57159   0.58767   0.58787
 Alpha virt. eigenvalues --    0.62303   0.74932   0.76806   0.83938   0.86246

 Mulliken charges and spin densities:
               1          2
     1  O   -0.434254   0.060262
     2  C    0.252185   0.387174
     3  O   -0.333902   0.068329
     4  O   -0.297075   0.065504
     5  C    0.248542   0.363996
     6  O   -0.435496   0.054735
 Sum of Mulliken charges =  -1.00000   1.00000

 Dipole moment (field-independent basis, Debye):
    X=             -0.2784    Y=              0.2652    Z=             -0.0000  Tot=              0.3845
 Quadrupole moment (field-independent basis, Debye-Ang):
   XX=            -36.4742   YY=            -70.6156   ZZ=            -33.8524
   XY=              8.9969   XZ=             -0.0000   YZ=              0.0000

 1\MP4SDQ=-376.436802\CCSD=-376.4301599\CCSD(T)=-376.4886489\RMSD=6.561
 Normal termination of Gaussian 16 at Tue Feb 20 17:24:20 2024.
