 Gaussian 16, Revision A.03,
 Gaussian 16:  ES64L-G16RevA.03 25-Dec-2016

 --------------------
 #p ROCCSD(T)/cc-pVTZ
 --------------------

 ----------
 CO2_CO2_13
 ----------
 Symbolic Z-matrix:
 Charge = -1 Multiplicity = 2

                         Standard orientation:
 ---------------------------------------------------------------------
 Center     Atomic      Atomic             Coordinates (Angstroms)
 Number     Number       Type             X           Y           Z
 ---------------------------------------------------------------------
      1          8           0        1.233548   -2.395048   -0.000000
      2          6           0        0.411183   -1.572683   -0.000000
      3          8           0       -0.411183   -0.750317   -0.000000
      4          8           0       -0.411183    0.409683    0.000000
      5          6           0       -0.411183    1.572683    0.000000
      6          8           0       -0.411183    2.735682    0.000000
 ---------------------------------------------------------------------

 SCF Done:  E(ROHF) =  -374.632875708     A.U. after   21 cycles
 E2 =    -0.1246079638D+01 EUMP2 =    -0.37587895534530D+03
 CCSD(T)
 CCSD(T)= -0.37593588043D+03

 The electronic state is 2-A".
 Alpha  occ. eigenvalues --  -20.52549 -20.45731 -20.37381 -20.31555 -11.15727
 Alpha  occ. eigenvalues --  -11.06917  -1.56300  -1.26201  -1.21727  -1.17169
 Alpha  occ. eigenvalues --   -0.91780  -0.66636  -0.64790  -0.52731  -0.48267
 Alpha  occ. eigenvalues --   -0.46812  -0.44442  -0.37763  -0.35938  -0.29487
 Alpha  occ. eigenvalues --   -0.27726   0.02195   0.03234
 Alpha virt. eigenvalues --    0.33938   0.36835   0.41363   0.44479   0.49048
 Alpha virt. eigenvalues --    0.53363   0.55046   0.57183   0.59097   0.65600
 Alpha virt. eigenvalues --    0.70119   0.76875   0.84556   0.87869   0.90633

 Mulliken charges and spin densities:
               1          2
     1  O   -0.511168   0.006469
     2  C   -0.097636   0.018868
     3  O   -0.036798   0.009946
     4  O    0.102316   0.066774
     5  C    0.010390   0.758879
     6  O   -0.467103   0.139064
 Sum of Mulliken charges =  -1.00000   1.00000

 Dipole moment (field-independent basis, Debye):
    X=             -1.7391    Y=              1.4536    Z=             -0.0000  Tot=              2.2666
 Quadrupole moment (field-independent basis, Debye-Ang):
   XX=            -38.0873   YY=            -69.9888   ZZ=            -32.8171
   XY=              9.2719   XZ=             -0.0000   YZ=             -0.0000

 9553\MP4SDQ=-375.8737225\CCSD=-375.8707226\CCSD(T)=-375.9358804\RMSD=4
 Normal termination of Gaussian 16 at Mon Feb 19 13:33:34 2024.
