 Gaussian 16, Revision A.03,
 Gaussian 16:  ES64L-G16RevA.03 25-Dec-2016

 --------------------
 #p ROCCSD(T)/cc-pVTZ
 --------------------

 -----------
 CO2_CO2_252
 -----------
 Symbolic Z-matrix:
 Charge = -1 Multiplicity = 2

                         Standard orientation:
 ---------------------------------------------------------------------
 Center     Atomic      Atomic             Coordinates (Angstroms)
 Number     Number       Type             X           Y           Z
 ---------------------------------------------------------------------
      1          8           0        0.000000    0.000000    4.506000
      2          6           0        0.000000    0.000000    3.343000
      3          8           0        0.000000    0.000000    2.180000
      4          8           0        0.000000    0.000000   -2.180000
      5          6           0        0.000000    0.000000   -3.343000
      6          8           0        0.000000    0.000000   -4.506000
 ---------------------------------------------------------------------

 SCF Done:  E(ROHF) =  -375.220274741     A.U. after   12 cycles
 E2 =    -0.1232483590D+01 EUMP2 =    -0.37645275833101D+03
 CCSD(T)
 CCSD(T)= -0.37648849827D+03

 Unable to determine electronic state:  an orbital has unidentified symmetry.
 Alpha  occ. eigenvalues --  -20.42475 -20.42475 -20.42246 -20.42246 -11.20735
 Alpha  occ. eigenvalues --  -11.20735  -1.31222  -1.31220  -1.25774  -1.25771
 Alpha  occ. eigenvalues --   -0.59708  -0.59644  -0.53124  -0.53045  -0.52409
 Alpha  occ. eigenvalues --   -0.52384  -0.49843  -0.49839  -0.36863  -0.36672
 Alpha  occ. eigenvalues --   -0.33310  -0.33301   0.17713
 Alpha virt. eigenvalues --    0.25790   0.33791   0.34137   0.40246   0.40262
 Alpha virt. eigenvalues --    0.48891   0.51243   0.56225   0.56249   0.57911
 Alpha virt. eigenvalues --    0.57931   0.74189   0.74265   0.81352   0.84709

 Mulliken charges and spin densities:
               1          2
     1  O   -0.405533   0.058275
     2  C    0.266519   0.378339
     3  O   -0.360986   0.063386
     4  O   -0.360986   0.063386
     5  C    0.266519   0.378339
     6  O   -0.405533   0.058275
 Sum of Mulliken charges =  -1.00000   1.00000

 Dipole moment (field-independent basis, Debye):
    X=             -0.0000    Y=             -0.0000    Z=             -0.0000  Tot=              0.0000
 Quadrupole moment (field-independent basis, Debye-Ang):
   XX=            -33.8417   YY=            -31.6351   ZZ=           -103.1759
   XY=              0.0000   XZ=              0.0000   YZ=             -0.0000

 5438\CCSD(T)=-376.4884983\RMSD=2.125e-09\PG=D*H [C*(O1C1O1.O1C1O1)]\\@
 Normal termination of Gaussian 16 at Tue Feb 20 12:36:06 2024.
