 Gaussian 16, Revision A.03,
 Gaussian 16:  ES64L-G16RevA.03 25-Dec-2016

 --------------------
 #p ROCCSD(T)/cc-pVTZ
 --------------------

 ----------
 CO2_CO2_84
 ----------
 Symbolic Z-matrix:
 Charge = -1 Multiplicity = 2

                         Standard orientation:
 ---------------------------------------------------------------------
 Center     Atomic      Atomic             Coordinates (Angstroms)
 Number     Number       Type             X           Y           Z
 ---------------------------------------------------------------------
      1          8           0        0.000000    0.000000    3.386000
      2          6           0        0.000000    0.000000    2.223000
      3          8           0        0.000000    0.000000    1.060000
      4          8           0        0.000000    0.000000   -1.060000
      5          6           0        0.000000    0.000000   -2.223000
      6          8           0        0.000000    0.000000   -3.386000
 ---------------------------------------------------------------------

 SCF Done:  E(ROHF) =  -375.201031453     A.U. after   12 cycles
 E2 =    -0.1239979601D+01 EUMP2 =    -0.37644101105410D+03
 CCSD(T)
 CCSD(T)= -0.37647760005D+03

 Unable to determine electronic state:  an orbital has unidentified symmetry.
 Alpha  occ. eigenvalues --  -20.39778 -20.39778 -20.39158 -20.39158 -11.17407
 Alpha  occ. eigenvalues --  -11.17407  -1.28752  -1.28280  -1.23411  -1.22492
 Alpha  occ. eigenvalues --   -0.60865  -0.55525  -0.52760  -0.50062  -0.49285
 Alpha  occ. eigenvalues --   -0.47469  -0.46774  -0.44437  -0.34996  -0.32511
 Alpha  occ. eigenvalues --   -0.31361  -0.29656   0.17207
 Alpha virt. eigenvalues --    0.31747   0.35514   0.36958   0.42011   0.43529
 Alpha virt. eigenvalues --    0.50665   0.56616   0.57467   0.58984   0.59068
 Alpha virt. eigenvalues --    0.61141   0.74703   0.77222   0.86759   0.87167

 Mulliken charges and spin densities:
               1          2
     1  O   -0.456488   0.057720
     2  C    0.235277   0.372354
     3  O   -0.278789   0.069926
     4  O   -0.278789   0.069926
     5  C    0.235277   0.372354
     6  O   -0.456488   0.057720
 Sum of Mulliken charges =  -1.00000   1.00000

 Dipole moment (field-independent basis, Debye):
    X=             -0.0000    Y=              0.0000    Z=             -0.0000  Tot=              0.0000
 Quadrupole moment (field-independent basis, Debye-Ang):
   XX=            -33.8294   YY=            -31.6598   ZZ=            -75.5444
   XY=              0.0000   XZ=              0.0000   YZ=              0.0000

 487\CCSD(T)=-376.4776001\RMSD=7.178e-09\PG=D*H [C*(O1C1O1.O1C1O1)]\\@
 Normal termination of Gaussian 16 at Tue Feb 20 12:36:24 2024.
