 Gaussian 16, Revision A.03,
 Gaussian 16:  ES64L-G16RevA.03 25-Dec-2016

 --------------------
 #p ROCCSD(T)/cc-pVTZ
 --------------------

 ----------
 CO2_CO2_91
 ----------
 Symbolic Z-matrix:
 Charge = -1 Multiplicity = 2

                         Standard orientation:
 ---------------------------------------------------------------------
 Center     Atomic      Atomic             Coordinates (Angstroms)
 Number     Number       Type             X           Y           Z
 ---------------------------------------------------------------------
      1          8           0        1.233548   -2.915048    0.000000
      2          6           0        0.411183   -2.092683    0.000000
      3          8           0       -0.411183   -1.270317    0.000000
      4          8           0       -0.411183    0.929683   -0.000000
      5          6           0       -0.411183    2.092683   -0.000000
      6          8           0       -0.411183    3.255682   -0.000000
 ---------------------------------------------------------------------

 SCF Done:  E(ROHF) =  -375.205162706     A.U. after   17 cycles
 E2 =    -0.1238869865D+01 EUMP2 =    -0.37644403257073D+03
 CCSD(T)
 CCSD(T)= -0.37648121359D+03

 The electronic state is 2-A".
 Alpha  occ. eigenvalues --  -20.40557 -20.39917 -20.39081 -20.38656 -11.18459
 Alpha  occ. eigenvalues --  -11.16754  -1.29262  -1.27865  -1.23789  -1.22243
 Alpha  occ. eigenvalues --   -0.59810  -0.55837  -0.52501  -0.50356  -0.49108
 Alpha  occ. eigenvalues --   -0.48188  -0.47445  -0.45190  -0.35044  -0.32731
 Alpha  occ. eigenvalues --   -0.31327  -0.29341   0.17291
 Alpha virt. eigenvalues --    0.31477   0.35161   0.37452   0.42139   0.43276
 Alpha virt. eigenvalues --    0.51628   0.55098   0.57119   0.58810   0.59470
 Alpha virt. eigenvalues --    0.63626   0.75040   0.77526   0.84819   0.86505

 Mulliken charges and spin densities:
               1          2
     1  O   -0.443107   0.061300
     2  C    0.249563   0.390364
     3  O   -0.329513   0.069815
     4  O   -0.277654   0.066113
     5  C    0.245429   0.358392
     6  O   -0.444718   0.054016
 Sum of Mulliken charges =  -1.00000   1.00000

 Dipole moment (field-independent basis, Debye):
    X=             -0.3488    Y=              0.3657    Z=              0.0000  Tot=              0.5054
 Quadrupole moment (field-independent basis, Debye-Ang):
   XX=            -36.5450   YY=            -68.1889   ZZ=            -33.8449
   XY=              8.8534   XZ=             -0.0000   YZ=              0.0000

 DQ=-376.4290349\CCSD=-376.4221991\CCSD(T)=-376.4812136\RMSD=2.365e-09\
 Normal termination of Gaussian 16 at Tue Feb 20 13:50:58 2024.
