 Gaussian 16, Revision A.03,
 Gaussian 16:  ES64L-G16RevA.03 25-Dec-2016

 --------------------
 #p ROCCSD(T)/cc-pVTZ
 --------------------

 -----------
 CO2_CO2_276
 -----------
 Symbolic Z-matrix:
 Charge = -1 Multiplicity = 2

                         Standard orientation:
 ---------------------------------------------------------------------
 Center     Atomic      Atomic             Coordinates (Angstroms)
 Number     Number       Type             X           Y           Z
 ---------------------------------------------------------------------
      1          8           0        0.000000    0.000000    4.666000
      2          6           0        0.000000    0.000000    3.503000
      3          8           0        0.000000    0.000000    2.340000
      4          8           0        0.000000    0.000000   -2.340000
      5          6           0        0.000000    0.000000   -3.503000
      6          8           0        0.000000    0.000000   -4.666000
 ---------------------------------------------------------------------

 SCF Done:  E(ROHF) =  -375.220539609     A.U. after   12 cycles
 E2 =    -0.1232405394D+01 EUMP2 =    -0.37645294500350D+03
 CCSD(T)
 CCSD(T)= -0.37648854558D+03

 Unable to determine electronic state:  an orbital has unidentified symmetry.
 Alpha  occ. eigenvalues --  -20.42685 -20.42685 -20.42475 -20.42475 -11.20962
 Alpha  occ. eigenvalues --  -11.20962  -1.31440  -1.31439  -1.25997  -1.25995
 Alpha  occ. eigenvalues --   -0.59922  -0.59885  -0.53343  -0.53305  -0.52626
 Alpha  occ. eigenvalues --   -0.52605  -0.50060  -0.50058  -0.37073  -0.36914
 Alpha  occ. eigenvalues --   -0.33532  -0.33528   0.17691
 Alpha virt. eigenvalues --    0.25374   0.33666   0.33883   0.40041   0.40046
 Alpha virt. eigenvalues --    0.49173   0.50584   0.56033   0.56046   0.57715
 Alpha virt. eigenvalues --    0.57724   0.73987   0.74057   0.82216   0.83979

 Mulliken charges and spin densities:
               1          2
     1  O   -0.403929   0.058489
     2  C    0.268002   0.378358
     3  O   -0.364072   0.063153
     4  O   -0.364072   0.063153
     5  C    0.268002   0.378358
     6  O   -0.403929   0.058489
 Sum of Mulliken charges =  -1.00000   1.00000

 Dipole moment (field-independent basis, Debye):
    X=             -0.0000    Y=             -0.0000    Z=             -0.0000  Tot=              0.0000
 Quadrupole moment (field-independent basis, Debye-Ang):
   XX=            -33.8368   YY=            -31.6320   ZZ=           -108.2800
   XY=              0.0000   XZ=              0.0000   YZ=             -0.0000

 62\CCSD(T)=-376.4885456\RMSD=2.057e-09\PG=D*H [C*(O1C1O1.O1C1O1)]\\@
 Normal termination of Gaussian 16 at Tue Feb 20 15:44:25 2024.
