 Gaussian 16, Revision A.03,
 Gaussian 16:  ES64L-G16RevA.03 25-Dec-2016

 --------------------
 #p ROCCSD(T)/cc-pVTZ
 --------------------

 -----------
 CO2_CO2_234
 -----------
 Symbolic Z-matrix:
 Charge = -1 Multiplicity = 2

                         Standard orientation:
 ---------------------------------------------------------------------
 Center     Atomic      Atomic             Coordinates (Angstroms)
 Number     Number       Type             X           Y           Z
 ---------------------------------------------------------------------
      1          8           0        0.000000    0.000000    4.386000
      2          6           0        0.000000    0.000000    3.223000
      3          8           0        0.000000    0.000000    2.060000
      4          8           0        0.000000    0.000000   -2.060000
      5          6           0        0.000000    0.000000   -3.223000
      6          8           0        0.000000    0.000000   -4.386000
 ---------------------------------------------------------------------

 SCF Done:  E(ROHF) =  -375.220073830     A.U. after   12 cycles
 E2 =    -0.1232585090D+01 EUMP2 =    -0.37645265891995D+03
 CCSD(T)
 CCSD(T)= -0.37648851663D+03

 Unable to determine electronic state:  an orbital has unidentified symmetry.
 Alpha  occ. eigenvalues --  -20.42303 -20.42303 -20.42059 -20.42059 -11.20547
 Alpha  occ. eigenvalues --  -11.20547  -1.31042  -1.31040  -1.25591  -1.25586
 Alpha  occ. eigenvalues --   -0.59537  -0.59437  -0.52953  -0.52818  -0.52232
 Alpha  occ. eigenvalues --   -0.52200  -0.49665  -0.49658  -0.36692  -0.36469
 Alpha  occ. eigenvalues --   -0.33129  -0.33111   0.17729
 Alpha virt. eigenvalues --    0.26136   0.33891   0.34342   0.40411   0.40443
 Alpha virt. eigenvalues --    0.48641   0.51787   0.56379   0.56416   0.58067
 Alpha virt. eigenvalues --    0.58105   0.74374   0.74416   0.80279   0.85196

 Mulliken charges and spin densities:
               1          2
     1  O   -0.407022   0.058104
     2  C    0.265233   0.378335
     3  O   -0.358212   0.063562
     4  O   -0.358212   0.063562
     5  C    0.265233   0.378335
     6  O   -0.407022   0.058104
 Sum of Mulliken charges =  -1.00000   1.00000

 Dipole moment (field-independent basis, Debye):
    X=             -0.0000    Y=             -0.0000    Z=              0.0000  Tot=              0.0000
 Quadrupole moment (field-independent basis, Debye-Ang):
   XX=            -31.6378   YY=            -33.8462   ZZ=            -99.5191
   XY=              0.0000   XZ=              0.0000   YZ=             -0.0000

 5252\CCSD(T)=-376.4885166\RMSD=2.182e-09\PG=D*H [C*(O1C1O1.O1C1O1)]\\@
 Normal termination of Gaussian 16 at Tue Feb 20 10:13:58 2024.
