 Gaussian 16, Revision A.03,
 Gaussian 16:  ES64L-G16RevA.03 25-Dec-2016

 --------------------
 #p ROCCSD(T)/cc-pVTZ
 --------------------

 -----------
 CO2_CO2_207
 -----------
 Symbolic Z-matrix:
 Charge = -1 Multiplicity = 2

                         Standard orientation:
 ---------------------------------------------------------------------
 Center     Atomic      Atomic             Coordinates (Angstroms)
 Number     Number       Type             X           Y           Z
 ---------------------------------------------------------------------
      1          8           0        0.000000    0.000000    4.206000
      2          6           0        0.000000    0.000000    3.043000
      3          8           0        0.000000    0.000000    1.880000
      4          8           0        0.000000    0.000000   -1.880000
      5          6           0        0.000000    0.000000   -3.043000
      6          8           0        0.000000    0.000000   -4.206000
 ---------------------------------------------------------------------

 SCF Done:  E(ROHF) =  -375.219782572     A.U. after   12 cycles
 E2 =    -0.1232832675D+01 EUMP2 =    -0.37645261524708D+03
 CCSD(T)
 CCSD(T)= -0.37648867925D+03

 Unable to determine electronic state:  an orbital has unidentified symmetry.
 Alpha  occ. eigenvalues --  -20.42013 -20.42013 -20.41750 -20.41749 -11.20229
 Alpha  occ. eigenvalues --  -11.20229  -1.30743  -1.30737  -1.25286  -1.25273
 Alpha  occ. eigenvalues --   -0.59271  -0.59074  -0.52692  -0.52401  -0.51937
 Alpha  occ. eigenvalues --   -0.51890  -0.49370  -0.49354  -0.36410  -0.36117
 Alpha  occ. eigenvalues --   -0.32832  -0.32788   0.17747
 Alpha virt. eigenvalues --    0.26726   0.34101   0.34659   0.40675   0.40754
 Alpha virt. eigenvalues --    0.48473   0.52574   0.56624   0.56699   0.58314
 Alpha virt. eigenvalues --    0.58403   0.74618   0.74771   0.78366   0.85660

 Mulliken charges and spin densities:
               1          2
     1  O   -0.410195   0.057837
     2  C    0.262980   0.378323
     3  O   -0.352784   0.063839
     4  O   -0.352784   0.063839
     5  C    0.262980   0.378323
     6  O   -0.410195   0.057837
 Sum of Mulliken charges =  -1.00000   1.00000

 Dipole moment (field-independent basis, Debye):
    X=             -0.0000    Y=             -0.0000    Z=              0.0000  Tot=              0.0000
 Quadrupole moment (field-independent basis, Debye-Ang):
   XX=            -33.8541   YY=            -31.6425   ZZ=            -94.3145
   XY=              0.0000   XZ=              0.0000   YZ=             -0.0000

 6092\CCSD(T)=-376.4886792\RMSD=2.286e-09\PG=D*H [C*(O1C1O1.O1C1O1)]\\@
 Normal termination of Gaussian 16 at Tue Feb 20 17:41:03 2024.
