 Gaussian 16, Revision A.03,
 Gaussian 16:  ES64L-G16RevA.03 25-Dec-2016

 --------------------
 #p ROCCSD(T)/cc-pVTZ
 --------------------

 -----------
 CO2_CO2_147
 -----------
 Symbolic Z-matrix:
 Charge = -1 Multiplicity = 2

                         Standard orientation:
 ---------------------------------------------------------------------
 Center     Atomic      Atomic             Coordinates (Angstroms)
 Number     Number       Type             X           Y           Z
 ---------------------------------------------------------------------
      1          8           0        0.000000    0.000000    3.806000
      2          6           0        0.000000    0.000000    2.643000
      3          8           0        0.000000    0.000000    1.480000
      4          8           0        0.000000    0.000000   -1.480000
      5          6           0        0.000000    0.000000   -2.643000
      6          8           0        0.000000    0.000000   -3.806000
 ---------------------------------------------------------------------

 SCF Done:  E(ROHF) =  -375.219060590     A.U. after   12 cycles
 E2 =    -0.1234126018D+01 EUMP2 =    -0.37645318660815D+03
 CCSD(T)
 CCSD(T)= -0.37648981791D+03

 Unable to determine electronic state:  an orbital has unidentified symmetry.
 Alpha  occ. eigenvalues --  -20.41184 -20.41184 -20.40885 -20.40885 -11.19278
 Alpha  occ. eigenvalues --  -11.19277  -1.29909  -1.29864  -1.24441  -1.24346
 Alpha  occ. eigenvalues --   -0.58790  -0.57857  -0.52292  -0.51129  -0.50974
 Alpha  occ. eigenvalues --   -0.50740  -0.48560  -0.48460  -0.35669  -0.34990
 Alpha  occ. eigenvalues --   -0.32060  -0.31793   0.17705
 Alpha virt. eigenvalues --    0.28500   0.34912   0.35452   0.41317   0.41714
 Alpha virt. eigenvalues --    0.50083   0.54117   0.57177   0.57539   0.58845
 Alpha virt. eigenvalues --    0.59342   0.75038   0.75094   0.81321   0.85955

 Mulliken charges and spin densities:
               1          2
     1  O   -0.425528   0.057361
     2  C    0.252809   0.377293
     3  O   -0.327281   0.065345
     4  O   -0.327281   0.065345
     5  C    0.252809   0.377293
     6  O   -0.425528   0.057361
 Sum of Mulliken charges =  -1.00000   1.00000

 Dipole moment (field-independent basis, Debye):
    X=             -0.0000    Y=              0.0000    Z=             -0.0000  Tot=              0.0000
 Quadrupole moment (field-independent basis, Debye-Ang):
   XX=            -33.8698   YY=            -31.6556   ZZ=            -84.0238
   XY=              0.0000   XZ=              0.0000   YZ=              0.0000

 485\CCSD(T)=-376.4898179\RMSD=2.899e-09\PG=D*H [C*(O1C1O1.O1C1O1)]\\@
 Normal termination of Gaussian 16 at Tue Feb 20 09:15:22 2024.
