 Gaussian 16, Revision A.03,
 Gaussian 16:  ES64L-G16RevA.03 25-Dec-2016

 --------------------
 #p ROCCSD(T)/cc-pVTZ
 --------------------

 ----------
 CO2_CO2_28
 ----------
 Symbolic Z-matrix:
 Charge = -1 Multiplicity = 2

                         Standard orientation:
 ---------------------------------------------------------------------
 Center     Atomic      Atomic             Coordinates (Angstroms)
 Number     Number       Type             X           Y           Z
 ---------------------------------------------------------------------
      1          8           0        1.233548   -2.495048   -0.000000
      2          6           0        0.411183   -1.672683   -0.000000
      3          8           0       -0.411183   -0.850317   -0.000000
      4          8           0       -0.411183    0.509682   -0.000000
      5          6           0       -0.411183    1.672682    0.000000
      6          8           0       -0.411183    2.835683    0.000000
 ---------------------------------------------------------------------

 SCF Done:  E(ROHF) =  -374.873118420     A.U. after   22 cycles
 E2 =    -0.1270470668D+01 EUMP2 =    -0.37614358908732D+03
 CCSD(T)
 CCSD(T)= -0.37617988252D+03

 The electronic state is 2-A".
 Alpha  occ. eigenvalues --  -20.46710 -20.41180 -20.31757 -20.31589 -11.18542
 Alpha  occ. eigenvalues --  -11.06352  -1.38102  -1.27385  -1.21129  -1.16444
 Alpha  occ. eigenvalues --   -0.78771  -0.56069  -0.54176  -0.53876  -0.47539
 Alpha  occ. eigenvalues --   -0.45730  -0.42514  -0.37805  -0.37302  -0.28391
 Alpha  occ. eigenvalues --   -0.24813  -0.10524   0.09921
 Alpha virt. eigenvalues --    0.34542   0.39957   0.40256   0.42253   0.47172
 Alpha virt. eigenvalues --    0.51227   0.57245   0.57282   0.61449   0.62602
 Alpha virt. eigenvalues --    0.67647   0.74790   0.84000   0.86192   0.89270

 Mulliken charges and spin densities:
               1          2
     1  O   -0.443334   0.007542
     2  C    0.299153   0.033175
     3  O   -0.066107   0.004439
     4  O   -0.311117   0.079377
     5  C    0.058030   0.754701
     6  O   -0.536625   0.120766
 Sum of Mulliken charges =  -1.00000   1.00000

 Dipole moment (field-independent basis, Debye):
    X=              0.2544    Y=             -3.4891    Z=             -0.0000  Tot=              3.4984
 Quadrupole moment (field-independent basis, Debye-Ang):
   XX=            -36.4056   YY=            -66.8199   ZZ=            -33.1556
   XY=              8.3307   XZ=             -0.0000   YZ=             -0.0000

 91\MP4SDQ=-376.1238764\CCSD=-376.1152089\CCSD(T)=-376.1798825\RMSD=3.6
 Normal termination of Gaussian 16 at Mon Feb 19 16:01:53 2024.
