 Gaussian 16, Revision A.03,
 Gaussian 16:  ES64L-G16RevA.03 25-Dec-2016

 --------------------
 #p ROCCSD(T)/cc-pVTZ
 --------------------

 ----------
 CO2_CO2_90
 ----------
 Symbolic Z-matrix:
 Charge = -1 Multiplicity = 2

                         Standard orientation:
 ---------------------------------------------------------------------
 Center     Atomic      Atomic             Coordinates (Angstroms)
 Number     Number       Type             X           Y           Z
 ---------------------------------------------------------------------
      1          8           0        0.000000    0.000000    3.426000
      2          6           0        0.000000    0.000000    2.263000
      3          8           0        0.000000    0.000000    1.100000
      4          8           0        0.000000    0.000000   -1.100000
      5          6           0        0.000000    0.000000   -2.263000
      6          8           0        0.000000    0.000000   -3.426000
 ---------------------------------------------------------------------

 SCF Done:  E(ROHF) =  -375.206423960     A.U. after   12 cycles
 E2 =    -0.1238865053D+01 EUMP2 =    -0.37644528901305D+03
 CCSD(T)
 CCSD(T)= -0.37648199663D+03

 Unable to determine electronic state:  an orbital has unidentified symmetry.
 Alpha  occ. eigenvalues --  -20.39953 -20.39953 -20.39415 -20.39415 -11.17662
 Alpha  occ. eigenvalues --  -11.17662  -1.28861  -1.28486  -1.23489  -1.22751
 Alpha  occ. eigenvalues --   -0.60263  -0.55796  -0.52706  -0.50162  -0.49505
 Alpha  occ. eigenvalues --   -0.47573  -0.46998  -0.45568  -0.35020  -0.32861
 Alpha  occ. eigenvalues --   -0.31387  -0.29961   0.17298
 Alpha virt. eigenvalues --    0.31330   0.35456   0.36770   0.41957   0.43291
 Alpha virt. eigenvalues --    0.50633   0.56393   0.57461   0.58807   0.59063
 Alpha virt. eigenvalues --    0.60912   0.74698   0.76894   0.86649   0.87070

 Mulliken charges and spin densities:
               1          2
     1  O   -0.452660   0.057607
     2  C    0.235714   0.372776
     3  O   -0.283054   0.069618
     4  O   -0.283054   0.069618
     5  C    0.235714   0.372776
     6  O   -0.452660   0.057607
 Sum of Mulliken charges =  -1.00000   1.00000

 Dipole moment (field-independent basis, Debye):
    X=             -0.0000    Y=              0.0000    Z=             -0.0000  Tot=              0.0000
 Quadrupole moment (field-independent basis, Debye-Ang):
   XX=            -31.6623   YY=            -33.8382   ZZ=            -76.2107
   XY=              0.0000   XZ=              0.0000   YZ=              0.0000

 Normal termination of Gaussian 16 at Tue Feb 20 13:38:41 2024.
