 Gaussian 16, Revision A.03,
 Gaussian 16:  ES64L-G16RevA.03 25-Dec-2016

 --------------------
 #p ROCCSD(T)/cc-pVTZ
 --------------------

 -----------
 CO2_CO2_151
 -----------
 Symbolic Z-matrix:
 Charge = -1 Multiplicity = 2

                         Standard orientation:
 ---------------------------------------------------------------------
 Center     Atomic      Atomic             Coordinates (Angstroms)
 Number     Number       Type             X           Y           Z
 ---------------------------------------------------------------------
      1          8           0        1.233548   -3.315048    0.000000
      2          6           0        0.411183   -2.492683    0.000000
      3          8           0       -0.411183   -1.670317    0.000000
      4          8           0       -0.411183    1.329682    0.000000
      5          6           0       -0.411183    2.492683    0.000000
      6          8           0       -0.411183    3.655683    0.000000
 ---------------------------------------------------------------------

 SCF Done:  E(ROHF) =  -375.219540129     A.U. after   16 cycles
 E2 =    -0.1233680444D+01 EUMP2 =    -0.37645322057341D+03
 CCSD(T)
 CCSD(T)= -0.37648977973D+03

 The electronic state is 2-A".
 Alpha  occ. eigenvalues --  -20.41499 -20.41170 -20.40722 -20.40450 -11.19687
 Alpha  occ. eigenvalues --  -11.18779  -1.30181  -1.29449  -1.24697  -1.23965
 Alpha  occ. eigenvalues --   -0.58750  -0.57808  -0.52203  -0.51291  -0.50930
 Alpha  occ. eigenvalues --   -0.50694  -0.48800  -0.48012  -0.35697  -0.34901
 Alpha  occ. eigenvalues --   -0.32214  -0.31480   0.17658
 Alpha virt. eigenvalues --    0.28624   0.34658   0.35866   0.41269   0.41979
 Alpha virt. eigenvalues --    0.49948   0.53969   0.57041   0.57849   0.58624
 Alpha virt. eigenvalues --    0.60418   0.74994   0.75926   0.82226   0.84448

 Mulliken charges and spin densities:
               1          2
     1  O   -0.422192   0.059407
     2  C    0.257947   0.385511
     3  O   -0.346191   0.065673
     4  O   -0.327317   0.063943
     5  C    0.258608   0.369738
     6  O   -0.420855   0.055728
 Sum of Mulliken charges =  -1.00000   1.00000

 Dipole moment (field-independent basis, Debye):
    X=             -0.2006    Y=              0.1794    Z=             -0.0000  Tot=              0.2691
 Quadrupole moment (field-independent basis, Debye-Ang):
   XX=            -36.3874   YY=            -75.9474   ZZ=            -33.8536
   XY=              9.3457   XZ=              0.0000   YZ=              0.0000

 206\MP4SDQ=-376.4386009\CCSD=-376.4327172\CCSD(T)=-376.4897797\RMSD=4.
 Normal termination of Gaussian 16 at Tue Feb 20 09:43:43 2024.
