 Gaussian 16, Revision A.03,
 Gaussian 16:  ES64L-G16RevA.03 25-Dec-2016

 --------------------
 #p ROCCSD(T)/cc-pVTZ
 --------------------

 ----------
 CO2_CO2_49
 ----------
 Symbolic Z-matrix:
 Charge = -1 Multiplicity = 2

                         Standard orientation:
 ---------------------------------------------------------------------
 Center     Atomic      Atomic             Coordinates (Angstroms)
 Number     Number       Type             X           Y           Z
 ---------------------------------------------------------------------
      1          8           0        1.233548   -2.635048    0.000000
      2          6           0        0.411183   -1.812682    0.000000
      3          8           0       -0.411183   -0.990317   -0.000000
      4          8           0       -0.411183    0.649683   -0.000000
      5          6           0       -0.411183    1.812682   -0.000000
      6          8           0       -0.411183    2.975682   -0.000000
 ---------------------------------------------------------------------

 SCF Done:  E(ROHF) =  -375.085799086     A.U. after   17 cycles
 E2 =    -0.1258454796D+01 EUMP2 =    -0.37634425388193D+03
 CCSD(T)
 CCSD(T)= -0.37637915491D+03

 The electronic state is 2-A".
 Alpha  occ. eigenvalues --  -20.40167 -20.38655 -20.36370 -20.36088 -11.17442
 Alpha  occ. eigenvalues --  -11.13286  -1.29985  -1.26497  -1.23582  -1.19719
 Alpha  occ. eigenvalues --   -0.68194  -0.54687  -0.51634  -0.50554  -0.48521
 Alpha  occ. eigenvalues --   -0.47092  -0.45038  -0.37079  -0.35869  -0.30784
 Alpha  occ. eigenvalues --   -0.29515  -0.22745   0.16143
 Alpha virt. eigenvalues --    0.34970   0.35265   0.39191   0.42100   0.44842
 Alpha virt. eigenvalues --    0.52687   0.56201   0.56867   0.58795   0.61449
 Alpha virt. eigenvalues --    0.66880   0.75728   0.79974   0.86659   0.88440

 Mulliken charges and spin densities:
               1          2
     1  O   -0.476072   0.069527
     2  C    0.204150   0.431491
     3  O   -0.297968   0.064313
     4  O   -0.224451   0.057220
     5  C    0.258900   0.327644
     6  O   -0.464559   0.049804
 Sum of Mulliken charges =  -1.00000   1.00000

 Dipole moment (field-independent basis, Debye):
    X=             -0.7090    Y=              1.1029    Z=             -0.0000  Tot=              1.3111
 Quadrupole moment (field-independent basis, Debye-Ang):
   XX=            -36.8171   YY=            -64.7612   ZZ=            -33.8066
   XY=              8.8209   XZ=             -0.0000   YZ=              0.0000

 39\MP4SDQ=-376.3251432\CCSD=-376.3173192\CCSD(T)=-376.3791549\RMSD=6.5
 Normal termination of Gaussian 16 at Mon Feb 19 19:13:34 2024.
