 Gaussian 16, Revision A.03,
 Gaussian 16:  ES64L-G16RevA.03 25-Dec-2016

 --------------------
 #p ROCCSD(T)/cc-pVTZ
 --------------------

 ----------
 CO2_CO2_71
 ----------
 Symbolic Z-matrix:
 Charge = -1 Multiplicity = 2

                         Standard orientation:
 ---------------------------------------------------------------------
 Center     Atomic      Atomic             Coordinates (Angstroms)
 Number     Number       Type             X           Y           Z
 ---------------------------------------------------------------------
      1          8           0       -1.744500   -1.541500    0.000000
      2          6           0       -0.581500   -1.541500    0.000000
      3          8           0        0.581500   -1.541500    0.000000
      4          8           0        0.581500    0.378500    0.000000
      5          6           0        0.581500    1.541500    0.000000
      6          8           0        0.581500    2.704500    0.000000
 ---------------------------------------------------------------------

 SCF Done:  E(ROHF) =  -375.200722816     A.U. after   37 cycles
 E2 =    -0.1244761076D+01 EUMP2 =    -0.37644548389267D+03
 CCSD(T)
 CCSD(T)= -0.37648425707D+03

 The electronic state is 2-A'.
 Alpha  occ. eigenvalues --  -20.46405 -20.44357 -20.37858 -20.37069 -11.26917
 Alpha  occ. eigenvalues --  -11.17898  -1.34534  -1.29530  -1.26772  -1.22109
 Alpha  occ. eigenvalues --   -0.62592  -0.60878  -0.55809  -0.52928  -0.52426
 Alpha  occ. eigenvalues --   -0.46976  -0.45785  -0.45377  -0.35830  -0.32233
 Alpha  occ. eigenvalues --   -0.29667  -0.28510   0.13247
 Alpha virt. eigenvalues --    0.34740   0.38072   0.39048   0.41980   0.43349
 Alpha virt. eigenvalues --    0.49897   0.54797   0.55225   0.59175   0.63292
 Alpha virt. eigenvalues --    0.65237   0.73333   0.78239   0.82230   0.87318

 Mulliken charges and spin densities:
               1          2
     1  O   -0.299238  -0.041326
     2  C    0.294817   0.247058
     3  O   -0.208087  -0.040032
     4  O   -0.018084  -0.221474
     5  C   -0.580897   1.236412
     6  O   -0.188510  -0.180638
 Sum of Mulliken charges =  -1.00000   1.00000

 Dipole moment (field-independent basis, Debye):
    X=             -2.1922    Y=             -4.6209    Z=              0.0000  Tot=              5.1145
 Quadrupole moment (field-independent basis, Debye-Ang):
   XX=            -44.0704   YY=            -53.3387   ZZ=            -34.7586
   XY=             -6.5885   XZ=              0.0000   YZ=              0.0000

 =-376.4225364\CCSD(T)=-376.4842571\RMSD=5.460e-09\PG=CS [SG(C2O4)]\\@
 Normal termination of Gaussian 16 at Tue Feb 20 10:27:54 2024.
