 Gaussian 16, Revision A.03,
 Gaussian 16:  ES64L-G16RevA.03 25-Dec-2016

 --------------------
 #p ROCCSD(T)/cc-pVTZ
 --------------------

 -----------
 CO2_CO2_103
 -----------
 Symbolic Z-matrix:
 Charge = -1 Multiplicity = 2

                         Standard orientation:
 ---------------------------------------------------------------------
 Center     Atomic      Atomic             Coordinates (Angstroms)
 Number     Number       Type             X           Y           Z
 ---------------------------------------------------------------------
      1          8           0        1.233548   -2.995048   -0.000000
      2          6           0        0.411183   -2.172682   -0.000000
      3          8           0       -0.411183   -1.350317   -0.000000
      4          8           0       -0.411183    1.009683    0.000000
      5          6           0       -0.411183    2.172682    0.000000
      6          8           0       -0.411183    3.335682    0.000000
 ---------------------------------------------------------------------

 SCF Done:  E(ROHF) =  -375.212372252     A.U. after   16 cycles
 E2 =    -0.1237009835D+01 EUMP2 =    -0.37644938208754D+03
 CCSD(T)
 CCSD(T)= -0.37648663497D+03

 The electronic state is 2-A".
 Alpha  occ. eigenvalues --  -20.40764 -20.40253 -20.39510 -20.39147 -11.18760
 Alpha  occ. eigenvalues --  -11.17295  -1.29441  -1.28258  -1.23951  -1.22692
 Alpha  occ. eigenvalues --   -0.59150  -0.56304  -0.52368  -0.50537  -0.49511
 Alpha  occ. eigenvalues --   -0.48627  -0.47948  -0.46249  -0.35119  -0.33323
 Alpha  occ. eigenvalues --   -0.31496  -0.29987   0.17425
 Alpha virt. eigenvalues --    0.30760   0.35066   0.37070   0.41969   0.42969
 Alpha virt. eigenvalues --    0.51298   0.54880   0.57149   0.58786   0.59061
 Alpha virt. eigenvalues --    0.62849   0.74953   0.77088   0.84232   0.86351

 Mulliken charges and spin densities:
               1          2
     1  O   -0.437743   0.060630
     2  C    0.251289   0.388149
     3  O   -0.331964   0.069043
     4  O   -0.288793   0.065866
     5  C    0.246572   0.361860
     6  O   -0.439361   0.054453
 Sum of Mulliken charges =  -1.00000   1.00000

 Dipole moment (field-independent basis, Debye):
    X=             -0.3048    Y=              0.3013    Z=              0.0000  Tot=              0.4286
 Quadrupole moment (field-independent basis, Debye-Ang):
   XX=            -36.5021   YY=            -69.5308   ZZ=            -33.8500
   XY=              8.9298   XZ=              0.0000   YZ=             -0.0000

 93821\MP4SDQ=-376.4346571\CCSD=-376.4279339\CCSD(T)=-376.486635\RMSD=7
 Normal termination of Gaussian 16 at Tue Feb 20 15:51:12 2024.
