 Gaussian 16, Revision A.03,
 Gaussian 16:  ES64L-G16RevA.03 25-Dec-2016

 --------------------
 #p ROCCSD(T)/cc-pVTZ
 --------------------

 ----------
 CO2_CO2_39
 ----------
 Symbolic Z-matrix:
 Charge = -1 Multiplicity = 2

                         Standard orientation:
 ---------------------------------------------------------------------
 Center     Atomic      Atomic             Coordinates (Angstroms)
 Number     Number       Type             X           Y           Z
 ---------------------------------------------------------------------
      1          8           0        0.000000    0.000000    3.086000
      2          6           0        0.000000    0.000000    1.923000
      3          8           0        0.000000    0.000000    0.760000
      4          8           0        0.000000    0.000000   -0.760000
      5          6           0        0.000000    0.000000   -1.923000
      6          8           0        0.000000    0.000000   -3.086000
 ---------------------------------------------------------------------

 SCF Done:  E(ROHF) =  -375.012432842     A.U. after   13 cycles
 E2 =    -0.1265096635D+01 EUMP2 =    -0.37627752947730D+03
 CCSD(T)
 CCSD(T)= -0.37631004218D+03

 Unable to determine electronic state:  an orbital has unidentified symmetry.
 Alpha  occ. eigenvalues --  -20.37965 -20.37965 -20.36369 -20.36365 -11.14320
 Alpha  occ. eigenvalues --  -11.14319  -1.30085  -1.26106  -1.23559  -1.19418
 Alpha  occ. eigenvalues --   -0.73100  -0.53248  -0.52222  -0.50303  -0.47728
 Alpha  occ. eigenvalues --   -0.46964  -0.44297  -0.36163  -0.32531  -0.28385
 Alpha  occ. eigenvalues --   -0.25904  -0.25253   0.15702
 Alpha virt. eigenvalues --    0.35955   0.36252   0.38853   0.41743   0.46073
 Alpha virt. eigenvalues --    0.50196   0.57532   0.58187   0.59284   0.60775
 Alpha virt. eigenvalues --    0.63516   0.74892   0.81088   0.86854   0.89575

 Mulliken charges and spin densities:
               1          2
     1  O   -0.491811   0.060236
     2  C    0.223528   0.378968
     3  O   -0.231717   0.060796
     4  O   -0.231717   0.060796
     5  C    0.223528   0.378968
     6  O   -0.491811   0.060236
 Sum of Mulliken charges =  -1.00000   1.00000

 Dipole moment (field-independent basis, Debye):
    X=             -0.0000    Y=              0.0000    Z=             -0.0000  Tot=              0.0000
 Quadrupole moment (field-independent basis, Debye-Ang):
   XX=            -31.5712   YY=            -33.7363   ZZ=            -72.0075
   XY=              0.0000   XZ=              0.0000   YZ=              0.0000

 65\CCSD(T)=-376.3100422\RMSD=8.580e-09\PG=D*H [C*(O1C1O1.O1C1O1)]\\@
 Normal termination of Gaussian 16 at Mon Feb 19 17:35:09 2024.
