 Gaussian 16, Revision A.03,
 Gaussian 16:  ES64L-G16RevA.03 25-Dec-2016

 --------------------
 #p ROCCSD(T)/cc-pVTZ
 --------------------

 ----------
 CO2_CO2_30
 ----------
 Symbolic Z-matrix:
 Charge = -1 Multiplicity = 2

                         Standard orientation:
 ---------------------------------------------------------------------
 Center     Atomic      Atomic             Coordinates (Angstroms)
 Number     Number       Type             X           Y           Z
 ---------------------------------------------------------------------
      1          8           0        0.000000    0.000000    3.026000
      2          6           0        0.000000    0.000000    1.863000
      3          8           0        0.000000    0.000000    0.700000
      4          8           0        0.000000    0.000000   -0.700000
      5          6           0        0.000000    0.000000   -1.863000
      6          8           0        0.000000    0.000000   -3.026000
 ---------------------------------------------------------------------

 SCF Done:  E(ROHF) =  -374.896329710     A.U. after   13 cycles
 E2 =    -0.1280524407D+01 EUMP2 =    -0.37617685411771D+03
 CCSD(T)
 CCSD(T)= -0.37620698193D+03

 Unable to determine electronic state:  an orbital has unidentified symmetry.
 Alpha  occ. eigenvalues --  -20.37428 -20.37428 -20.36220 -20.36210 -11.13296
 Alpha  occ. eigenvalues --  -11.13296  -1.32682  -1.25515  -1.23525  -1.18623
 Alpha  occ. eigenvalues --   -0.77817  -0.52720  -0.51870  -0.51292  -0.48790
 Alpha  occ. eigenvalues --   -0.46331  -0.43592  -0.36934  -0.33300  -0.27230
 Alpha  occ. eigenvalues --   -0.24796  -0.17213   0.15051
 Alpha virt. eigenvalues --    0.35922   0.37485   0.39500   0.41327   0.46715
 Alpha virt. eigenvalues --    0.49895   0.57580   0.58526   0.59418   0.61297
 Alpha virt. eigenvalues --    0.64186   0.74632   0.82390   0.86558   0.91064

 Mulliken charges and spin densities:
               1          2
     1  O   -0.493670   0.061664
     2  C    0.205189   0.385174
     3  O   -0.211519   0.053161
     4  O   -0.211519   0.053161
     5  C    0.205189   0.385174
     6  O   -0.493670   0.061664
 Sum of Mulliken charges =  -1.00000   1.00000

 Dipole moment (field-independent basis, Debye):
    X=             -0.0000    Y=             -0.0000    Z=              0.0000  Tot=              0.0000
 Quadrupole moment (field-independent basis, Debye-Ang):
   XX=            -33.7364   YY=            -31.5408   ZZ=            -71.8319
   XY=             -0.0000   XZ=              0.0000   YZ=              0.0000

 87\CCSD(T)=-376.2069819\RMSD=6.121e-09\PG=D*H [C*(O1C1O1.O1C1O1)]\\@
 Normal termination of Gaussian 16 at Mon Feb 19 16:21:13 2024.
