 Gaussian 16, Revision A.03,
 Gaussian 16:  ES64L-G16RevA.03 25-Dec-2016

 --------------------
 #p ROCCSD(T)/cc-pVTZ
 --------------------

 ----------
 CO2_CO2_88
 ----------
 Symbolic Z-matrix:
 Charge = -1 Multiplicity = 2

                         Standard orientation:
 ---------------------------------------------------------------------
 Center     Atomic      Atomic             Coordinates (Angstroms)
 Number     Number       Type             X           Y           Z
 ---------------------------------------------------------------------
      1          8           0        1.233548   -2.895048    0.000000
      2          6           0        0.411183   -2.072683    0.000000
      3          8           0       -0.411183   -1.250318   -0.000000
      4          8           0       -0.411183    0.909683   -0.000000
      5          6           0       -0.411183    2.072683   -0.000000
      6          8           0       -0.411183    3.235682   -0.000000
 ---------------------------------------------------------------------

 SCF Done:  E(ROHF) =  -375.202522132     A.U. after   17 cycles
 E2 =    -0.1239463722D+01 EUMP2 =    -0.37644198585318D+03
 CCSD(T)
 CCSD(T)= -0.37647912440D+03

 The electronic state is 2-A".
 Alpha  occ. eigenvalues --  -20.40505 -20.39823 -20.38961 -20.38518 -11.18379
 Alpha  occ. eigenvalues --  -11.16602  -1.29221  -1.27759  -1.23756  -1.22118
 Alpha  occ. eigenvalues --   -0.60051  -0.55718  -0.52528  -0.50315  -0.48998
 Alpha  occ. eigenvalues --   -0.48125  -0.47287  -0.44838  -0.35037  -0.32565
 Alpha  occ. eigenvalues --   -0.31287  -0.29145   0.17250
 Alpha virt. eigenvalues --    0.31672   0.35185   0.37554   0.42178   0.43358
 Alpha virt. eigenvalues --    0.51718   0.55153   0.57109   0.58816   0.59581
 Alpha virt. eigenvalues --    0.63829   0.75073   0.77649   0.84997   0.86549

 Mulliken charges and spin densities:
               1          2
     1  O   -0.444616   0.061512
     2  C    0.248868   0.391164
     3  O   -0.328775   0.069942
     4  O   -0.274914   0.066100
     5  C    0.245544   0.357391
     6  O   -0.446108   0.053892
 Sum of Mulliken charges =  -1.00000   1.00000

 Dipole moment (field-independent basis, Debye):
    X=             -0.3618    Y=              0.3857    Z=             -0.0000  Tot=              0.5288
 Quadrupole moment (field-independent basis, Debye-Ang):
   XX=            -36.5569   YY=            -67.8739   ZZ=            -33.8433
   XY=              8.8372   XZ=             -0.0000   YZ=              0.0000

 9859\MP4SDQ=-376.4268878\CCSD=-376.4200199\CCSD(T)=-376.4791244\RMSD=2
 Normal termination of Gaussian 16 at Tue Feb 20 13:21:07 2024.
