 Gaussian 16, Revision A.03,
 Gaussian 16:  ES64L-G16RevA.03 25-Dec-2016

 --------------------
 #p ROCCSD(T)/cc-pVTZ
 --------------------

 ----------
 CO2_CO2_25
 ----------
 Symbolic Z-matrix:
 Charge = -1 Multiplicity = 2

                         Standard orientation:
 ---------------------------------------------------------------------
 Center     Atomic      Atomic             Coordinates (Angstroms)
 Number     Number       Type             X           Y           Z
 ---------------------------------------------------------------------
      1          8           0        1.233548   -2.475048    0.000000
      2          6           0        0.411183   -1.652682    0.000000
      3          8           0       -0.411183   -0.830317    0.000000
      4          8           0       -0.411183    0.489683   -0.000000
      5          6           0       -0.411183    1.652682   -0.000000
      6          8           0       -0.411183    2.815682   -0.000000
 ---------------------------------------------------------------------

 SCF Done:  E(ROHF) =  -374.826805290     A.U. after   21 cycles
 E2 =    -0.1273695918D+01 EUMP2 =    -0.37610050120738D+03
 CCSD(T)
 CCSD(T)= -0.37613697917D+03

 The electronic state is 2-A".
 Alpha  occ. eigenvalues --  -20.47539 -20.39746 -20.33480 -20.32326 -11.16708
 Alpha  occ. eigenvalues --  -11.07410  -1.40279  -1.26283  -1.21573  -1.17087
 Alpha  occ. eigenvalues --   -0.80951  -0.56164  -0.55419  -0.53390  -0.48161
 Alpha  occ. eigenvalues --   -0.45892  -0.42738  -0.37754  -0.37447  -0.28596
 Alpha  occ. eigenvalues --   -0.25574  -0.07629   0.08835
 Alpha virt. eigenvalues --    0.34629   0.39509   0.40936   0.43155   0.46501
 Alpha virt. eigenvalues --    0.51504   0.57355   0.57439   0.61327   0.62658
 Alpha virt. eigenvalues --    0.67858   0.75116   0.84112   0.86766   0.89227

 Mulliken charges and spin densities:
               1          2
     1  O   -0.451804   0.007202
     2  C    0.245777   0.030202
     3  O   -0.052957   0.004233
     4  O   -0.270420   0.076311
     5  C    0.056792   0.758513
     6  O   -0.527387   0.123539
 Sum of Mulliken charges =  -1.00000   1.00000

 Dipole moment (field-independent basis, Debye):
    X=              0.0486    Y=             -2.7135    Z=              0.0000  Tot=              2.7139
 Quadrupole moment (field-independent basis, Debye-Ang):
   XX=            -36.5927   YY=            -67.4302   ZZ=            -33.0892
   XY=              8.4383   XZ=             -0.0000   YZ=              0.0000

 5012\MP4SDQ=-376.080044\CCSD=-376.0716566\CCSD(T)=-376.1369792\RMSD=3.
 Normal termination of Gaussian 16 at Mon Feb 19 15:37:17 2024.
