 Gaussian 16, Revision A.03,
 Gaussian 16:  ES64L-G16RevA.03 25-Dec-2016

 --------------------
 #p ROCCSD(T)/cc-pVTZ
 --------------------

 -----------
 CO2_CO2_150
 -----------
 Symbolic Z-matrix:
 Charge = -1 Multiplicity = 2

                         Standard orientation:
 ---------------------------------------------------------------------
 Center     Atomic      Atomic             Coordinates (Angstroms)
 Number     Number       Type             X           Y           Z
 ---------------------------------------------------------------------
      1          8           0        0.000000    0.000000    3.826000
      2          6           0        0.000000    0.000000    2.663000
      3          8           0        0.000000    0.000000    1.500000
      4          8           0        0.000000    0.000000   -1.500000
      5          6           0        0.000000    0.000000   -2.663000
      6          8           0        0.000000    0.000000   -3.826000
 ---------------------------------------------------------------------

 SCF Done:  E(ROHF) =  -375.219129602     A.U. after   12 cycles
 E2 =    -0.1234017423D+01 EUMP2 =    -0.37645314702519D+03
 CCSD(T)
 CCSD(T)= -0.37648975030D+03

 Unable to determine electronic state:  an orbital has unidentified symmetry.
 Alpha  occ. eigenvalues --  -20.41233 -20.41233 -20.40937 -20.40936 -11.19337
 Alpha  occ. eigenvalues --  -11.19337  -1.29958  -1.29917  -1.24490  -1.24403
 Alpha  occ. eigenvalues --   -0.58800  -0.57937  -0.52296  -0.51175  -0.51030
 Alpha  occ. eigenvalues --   -0.50868  -0.48607  -0.48515  -0.35709  -0.35064
 Alpha  occ. eigenvalues --   -0.32101  -0.31857   0.17713
 Alpha virt. eigenvalues --    0.28390   0.34871   0.35404   0.41283   0.41654
 Alpha virt. eigenvalues --    0.49986   0.54025   0.57152   0.57488   0.58822
 Alpha virt. eigenvalues --    0.59282   0.75055   0.75060   0.80740   0.85937

 Mulliken charges and spin densities:
               1          2
     1  O   -0.424440   0.057375
     2  C    0.253634   0.377426
     3  O   -0.329194   0.065199
     4  O   -0.329194   0.065199
     5  C    0.253634   0.377426
     6  O   -0.424440   0.057375
 Sum of Mulliken charges =  -1.00000   1.00000

 Dipole moment (field-independent basis, Debye):
    X=             -0.0000    Y=              0.0000    Z=             -0.0000  Tot=              0.0000
 Quadrupole moment (field-independent basis, Debye-Ang):
   XX=            -31.6548   YY=            -33.8696   ZZ=            -84.4940
   XY=              0.0000   XZ=              0.0000   YZ=              0.0000

 \CCSD(T)=-376.4897503\RMSD=2.833e-09\PG=D*H [C*(O1C1O1.O1C1O1)]\\@
 Normal termination of Gaussian 16 at Tue Feb 20 09:31:39 2024.
