 Gaussian 16, Revision A.03,
 Gaussian 16:  ES64L-G16RevA.03 25-Dec-2016

 ------------------
 #p CCSD(T)/cc-pVTZ
 ------------------

 -
 B
 -
 Symbolic Z-matrix:
 Charge =  0 Multiplicity = 2

                         Standard orientation:
 ---------------------------------------------------------------------
 Center     Atomic      Atomic             Coordinates (Angstroms)
 Number     Number       Type             X           Y           Z
 ---------------------------------------------------------------------
      1          5           0        0.000000    0.000000    0.000000
 ---------------------------------------------------------------------

 SCF Done:  E(UHF) =  -24.5320678050     A.U. after    9 cycles
 E2 =    -0.4408124227D-01 EUMP2 =    -0.24576149047312D+02
 CCSD(T)
 CCSD(T)= -0.24598101015D+02

 Unable to determine electronic state:  an orbital has unidentified symmetry.
 Alpha  occ. eigenvalues --   -7.70060  -0.54473  -0.31804
 Alpha virt. eigenvalues --    0.04651   0.04651   0.28364   0.33875   0.33875
 Alpha virt. eigenvalues --    0.35273   0.53574   0.53881   0.53881   0.55338
 Alpha virt. eigenvalues --    0.55338   1.47799   1.50806   1.50806   1.91574

  Beta  occ. eigenvalues --   -7.68568  -0.44619
  Beta virt. eigenvalues --    0.05718   0.05718   0.09896   0.34938   0.34938
  Beta virt. eigenvalues --    0.37782   0.39038   0.55543   0.55543   0.58470
  Beta virt. eigenvalues --    0.58470   0.59586   1.51783   1.51783   1.56222

 Mulliken charges and spin densities:
               1          2
     1  B    0.000000   1.000000
 Sum of Mulliken charges =   0.00000   1.00000

 Dipole moment (field-independent basis, Debye):
    X=              0.0000    Y=              0.0000    Z=              0.0000  Tot=              0.0000
 Quadrupole moment (field-independent basis, Debye-Ang):
   XX=             -5.9467   YY=             -5.9467   ZZ=             -9.2435
   XY=             -0.0000   XZ=             -0.0000   YZ=              0.0000

 .5936304\CCSD=-24.596786\CCSD(T)=-24.598101\S2=0.760383\S2-1=0.751663\
 Normal termination of Gaussian 16 at Tue Feb 13 12:26:47 2024.
