 Gaussian 16, Revision A.03,
 Gaussian 16:  ES64L-G16RevA.03 25-Dec-2016

 --------------------
 #p ROCCSD(T)/cc-pVTZ
 --------------------

 -------
 B_Ar_54
 -------
 Symbolic Z-matrix:
 Charge =  0 Multiplicity = 2

                         Standard orientation:
 ---------------------------------------------------------------------
 Center     Atomic      Atomic             Coordinates (Angstroms)
 Number     Number       Type             X           Y           Z
 ---------------------------------------------------------------------
      1          5           0        0.000000    0.000000   -1.893913
      2         18           0        0.000000    0.000000    0.526087
 ---------------------------------------------------------------------

 SCF Done:  E(ROHF) =  -551.321539882     A.U. after   10 cycles
 E2 =    -0.2625048516D+00 EUMP2 =    -0.55158404473315D+03
 CCSD(T)
 CCSD(T)= -0.55162915765D+03

 Unable to determine electronic state:  an orbital has unidentified symmetry.
 Alpha  occ. eigenvalues -- -118.63768 -12.34969  -9.59863  -9.59851  -9.59840
 Alpha  occ. eigenvalues --   -7.68364  -1.30906  -0.65881  -0.61966  -0.61852
 Alpha  occ. eigenvalues --   -0.49404  -0.29711
 Alpha virt. eigenvalues --    0.05145   0.08877   0.29563   0.31736   0.34672
 Alpha virt. eigenvalues --    0.36886   0.48563   0.49515   0.50524   0.53737
 Alpha virt. eigenvalues --    0.53762   0.57020   0.57134   0.70615   0.71184

 Mulliken charges and spin densities:
               1          2
     1  B   -0.070824   0.998900
     2  Ar   0.070824   0.001100
 Sum of Mulliken charges =  -0.00000   1.00000

 Dipole moment (field-independent basis, Debye):
    X=              0.0000    Y=              0.0000    Z=              1.1604  Tot=              1.1604
 Quadrupole moment (field-independent basis, Debye-Ang):
   XX=            -17.5637   YY=            -20.9318   ZZ=            -20.1748
   XY=              0.0000   XZ=              0.0000   YZ=              0.0000

 13\CCSD(T)=-551.6291576\RMSD=9.980e-09\PG=C*V [C*(B1Ar1)]\\@
 Normal termination of Gaussian 16 at Tue Feb 13 12:32:19 2024.
