 Gaussian 16, Revision A.03,
 Gaussian 16:  ES64L-G16RevA.03 25-Dec-2016

 --------------------
 #p ROCCSD(T)/cc-pVTZ
 --------------------

 ------
 B_Ar_2
 ------
 Symbolic Z-matrix:
 Charge =  0 Multiplicity = 2

                         Standard orientation:
 ---------------------------------------------------------------------
 Center     Atomic      Atomic             Coordinates (Angstroms)
 Number     Number       Type             X           Y           Z
 ---------------------------------------------------------------------
      1          5           0        0.000000    0.000000   -0.673043
      2         18           0        0.000000    0.000000    0.186957
 ---------------------------------------------------------------------

 SCF Done:  E(ROHF) =  -549.130645785     A.U. after   13 cycles
 E2 =    -0.2953491214D+00 EUMP2 =    -0.54942599490588D+03
 CCSD(T)
 CCSD(T)= -0.54945903218D+03

 Unable to determine electronic state:  an orbital has unidentified symmetry.
 Alpha  occ. eigenvalues -- -118.77275 -12.56658  -9.83696  -9.79084  -9.78937
 Alpha  occ. eigenvalues --   -7.80630  -1.57820  -0.97195  -0.93001  -0.87097
 Alpha  occ. eigenvalues --   -0.31407  -0.24733
 Alpha virt. eigenvalues --    0.14314   0.15700   0.17938   0.18617   0.33165
 Alpha virt. eigenvalues --    0.39746   0.39908   0.43148   0.54135   0.55815
 Alpha virt. eigenvalues --    0.69950   0.71984   0.74270   0.78512   0.83962

 Mulliken charges and spin densities:
               1          2
     1  B   -1.774296   0.366958
     2  Ar   1.774296   0.633042
 Sum of Mulliken charges =  -0.00000   1.00000

 Dipole moment (field-independent basis, Debye):
    X=              0.0000    Y=              0.0000    Z=              4.7679  Tot=              4.7679
 Quadrupole moment (field-independent basis, Debye-Ang):
   XX=            -17.6478   YY=            -15.8522   ZZ=            -23.0018
   XY=              0.0000   XZ=              0.0000   YZ=              0.0000

 6\CCSD(T)=-549.4590322\RMSD=6.199e-09\PG=C*V [C*(B1Ar1)]\\@
 Normal termination of Gaussian 16 at Tue Feb 13 12:25:46 2024.
