 Gaussian 16, Revision A.03,
 Gaussian 16:  ES64L-G16RevA.03 25-Dec-2016

 --------------------
 #p ROCCSD(T)/cc-pVTZ
 --------------------

 -------
 B_Ar_44
 -------
 Symbolic Z-matrix:
 Charge =  0 Multiplicity = 2

                         Standard orientation:
 ---------------------------------------------------------------------
 Center     Atomic      Atomic             Coordinates (Angstroms)
 Number     Number       Type             X           Y           Z
 ---------------------------------------------------------------------
      1          5           0        0.000000    0.000000   -1.659130
      2         18           0        0.000000    0.000000    0.460870
 ---------------------------------------------------------------------

 SCF Done:  E(ROHF) =  -551.299220344     A.U. after   11 cycles
 E2 =    -0.2684103694D+00 EUMP2 =    -0.55156763071339D+03
 CCSD(T)
 CCSD(T)= -0.55161226560D+03

 Unable to determine electronic state:  an orbital has unidentified symmetry.
 Alpha  occ. eigenvalues -- -118.66435 -12.37659  -9.62556  -9.62532  -9.62507
 Alpha  occ. eigenvalues --   -7.67003  -1.34065  -0.71039  -0.64769  -0.64426
 Alpha  occ. eigenvalues --   -0.45928  -0.28677
 Alpha virt. eigenvalues --    0.05855   0.11981   0.29583   0.29859   0.34676
 Alpha virt. eigenvalues --    0.37012   0.45627   0.50569   0.51954   0.52834
 Alpha virt. eigenvalues --    0.52863   0.54644   0.54844   0.70585   0.70586

 Mulliken charges and spin densities:
               1          2
     1  B   -0.165752   0.996293
     2  Ar   0.165752   0.003707
 Sum of Mulliken charges =  -0.00000   1.00000

 Dipole moment (field-independent basis, Debye):
    X=              0.0000    Y=              0.0000    Z=              2.2479  Tot=              2.2479
 Quadrupole moment (field-independent basis, Debye-Ang):
   XX=            -17.5489   YY=            -20.9055   ZZ=            -22.1624
   XY=              0.0000   XZ=              0.0000   YZ=              0.0000

 \CCSD(T)=-551.6122656\RMSD=2.734e-09\PG=C*V [C*(B1Ar1)]\\@
 Normal termination of Gaussian 16 at Tue Feb 13 12:31:03 2024.
