 Gaussian 16, Revision A.03,
 Gaussian 16:  ES64L-G16RevA.03 25-Dec-2016

 --------------------
 #p ROCCSD(T)/cc-pVTZ
 --------------------

 -------
 B_Ar_12
 -------
 Symbolic Z-matrix:
 Charge =  0 Multiplicity = 2

                         Standard orientation:
 ---------------------------------------------------------------------
 Center     Atomic      Atomic             Coordinates (Angstroms)
 Number     Number       Type             X           Y           Z
 ---------------------------------------------------------------------
      1          5           0        0.000000    0.000000   -0.907826
      2         18           0        0.000000    0.000000    0.252174
 ---------------------------------------------------------------------

 SCF Done:  E(ROHF) =  -550.743409474     A.U. after   12 cycles
 E2 =    -0.2917159883D+00 EUMP2 =    -0.55103512546252D+03
 CCSD(T)
 CCSD(T)= -0.55107155567D+03

 Unable to determine electronic state:  an orbital has unidentified symmetry.
 Alpha  occ. eigenvalues -- -118.77209 -12.50894  -9.76068  -9.75347  -9.75314
 Alpha  occ. eigenvalues --   -7.61037  -1.59062  -0.95041  -0.85340  -0.81997
 Alpha  occ. eigenvalues --   -0.32997  -0.24109
 Alpha virt. eigenvalues --    0.10662   0.15611   0.21867   0.24105   0.33037
 Alpha virt. eigenvalues --    0.35942   0.42175   0.42268   0.51817   0.53328
 Alpha virt. eigenvalues --    0.61904   0.65164   0.67411   0.75450   0.78200

 Mulliken charges and spin densities:
               1          2
     1  B   -1.221681   0.785492
     2  Ar   1.221681   0.214508
 Sum of Mulliken charges =   0.00000   1.00000

 Dipole moment (field-independent basis, Debye):
    X=              0.0000    Y=              0.0000    Z=              5.7888  Tot=              5.7888
 Quadrupole moment (field-independent basis, Debye-Ang):
   XX=            -19.5087   YY=            -17.0548   ZZ=            -24.9020
   XY=              0.0000   XZ=              0.0000   YZ=              0.0000

 12\CCSD(T)=-551.0715557\RMSD=2.819e-09\PG=C*V [C*(B1Ar1)]\\@
 Normal termination of Gaussian 16 at Tue Feb 13 12:27:01 2024.
