 Gaussian 16, Revision A.03,
 Gaussian 16:  ES64L-G16RevA.03 25-Dec-2016

 --------------------
 #p ROCCSD(T)/cc-pVTZ
 --------------------

 ------
 B_Ar_3
 ------
 Symbolic Z-matrix:
 Charge =  0 Multiplicity = 2

                         Standard orientation:
 ---------------------------------------------------------------------
 Center     Atomic      Atomic             Coordinates (Angstroms)
 Number     Number       Type             X           Y           Z
 ---------------------------------------------------------------------
      1          5           0        0.000000    0.000000   -0.696522
      2         18           0        0.000000    0.000000    0.193478
 ---------------------------------------------------------------------

 SCF Done:  E(ROHF) =  -549.410086576     A.U. after   13 cycles
 E2 =    -0.2956381527D+00 EUMP2 =    -0.54970572472823D+03
 CCSD(T)
 CCSD(T)= -0.54973875476D+03

 Unable to determine electronic state:  an orbital has unidentified symmetry.
 Alpha  occ. eigenvalues -- -118.76426 -12.55026  -9.81651  -9.77842  -9.77719
 Alpha  occ. eigenvalues --   -7.75828  -1.58716  -0.95434  -0.91251  -0.88916
 Alpha  occ. eigenvalues --   -0.31602  -0.24438
 Alpha virt. eigenvalues --    0.13959   0.15752   0.18258   0.19235   0.33183
 Alpha virt. eigenvalues --    0.39904   0.40191   0.42241   0.53920   0.55596
 Alpha virt. eigenvalues --    0.69662   0.71389   0.73635   0.77227   0.83530

 Mulliken charges and spin densities:
               1          2
     1  B   -1.697282   0.424410
     2  Ar   1.697282   0.575590
 Sum of Mulliken charges =  -0.00000   1.00000

 Dipole moment (field-independent basis, Debye):
    X=              0.0000    Y=              0.0000    Z=              4.8834  Tot=              4.8834
 Quadrupole moment (field-independent basis, Debye-Ang):
   XX=            -16.0093   YY=            -17.8461   ZZ=            -23.1009
   XY=              0.0000   XZ=              0.0000   YZ=              0.0000

 4\CCSD(T)=-549.7387548\RMSD=5.674e-09\PG=C*V [C*(B1Ar1)]\\@
 Normal termination of Gaussian 16 at Tue Feb 13 12:25:53 2024.
