 Gaussian 16, Revision A.03,
 Gaussian 16:  ES64L-G16RevA.03 25-Dec-2016

 --------------------
 #p ROCCSD(T)/cc-pVTZ
 --------------------

 ------
 B_Ar_1
 ------
 Symbolic Z-matrix:
 Charge =  0 Multiplicity = 2

                         Standard orientation:
 ---------------------------------------------------------------------
 Center     Atomic      Atomic             Coordinates (Angstroms)
 Number     Number       Type             X           Y           Z
 ---------------------------------------------------------------------
      1          5           0        0.000000    0.000000   -0.649565
      2         18           0        0.000000    0.000000    0.180435
 ---------------------------------------------------------------------

 SCF Done:  E(ROHF) =  -548.811273173     A.U. after   13 cycles
 E2 =    -0.2948382835D+00 EUMP2 =    -0.54910611145669D+03
 CCSD(T)
 CCSD(T)= -0.54913926345D+03

 Unable to determine electronic state:  an orbital has unidentified symmetry.
 Alpha  occ. eigenvalues -- -118.78663 -12.58851  -9.86407  -9.80803  -9.80634
 Alpha  occ. eigenvalues --   -7.86593  -1.56825  -0.99201  -0.95017  -0.85023
 Alpha  occ. eigenvalues --   -0.31157  -0.25122
 Alpha virt. eigenvalues --    0.14627   0.15623   0.17634   0.17972   0.33135
 Alpha virt. eigenvalues --    0.39478   0.39574   0.44202   0.54329   0.56006
 Alpha virt. eigenvalues --    0.70181   0.72516   0.74854   0.80045   0.84308

 Mulliken charges and spin densities:
               1          2
     1  B   -1.862371   0.307401
     2  Ar   1.862371   0.692599
 Sum of Mulliken charges =  -0.00000   1.00000

 Dipole moment (field-independent basis, Debye):
    X=              0.0000    Y=              0.0000    Z=              4.6572  Tot=              4.6572
 Quadrupole moment (field-independent basis, Debye-Ang):
   XX=            -15.6910   YY=            -17.4564   ZZ=            -22.9490
   XY=              0.0000   XZ=              0.0000   YZ=              0.0000

 \CCSD(T)=-549.1392635\RMSD=5.881e-09\PG=C*V [C*(B1Ar1)]\\@
 Normal termination of Gaussian 16 at Tue Feb 13 12:25:38 2024.
