 Gaussian 16, Revision A.03,
 Gaussian 16:  ES64L-G16RevA.03 25-Dec-2016

 --------------------
 #p ROCCSD(T)/cc-pVTZ
 --------------------

 -------
 B_Ar_75
 -------
 Symbolic Z-matrix:
 Charge =  0 Multiplicity = 2

                         Standard orientation:
 ---------------------------------------------------------------------
 Center     Atomic      Atomic             Coordinates (Angstroms)
 Number     Number       Type             X           Y           Z
 ---------------------------------------------------------------------
      1          5           0        0.000000    0.000000   -2.386957
      2         18           0        0.000000    0.000000    0.663043
 ---------------------------------------------------------------------

 SCF Done:  E(ROHF) =  -551.338057589     A.U. after   10 cycles
 E2 =    -0.2565466925D+00 EUMP2 =    -0.55159460428191D+03
 CCSD(T)
 CCSD(T)= -0.55164020175D+03

 Unable to determine electronic state:  an orbital has unidentified symmetry.
 Alpha  occ. eigenvalues -- -118.61840 -12.33010  -9.57904  -9.57902  -9.57900
 Alpha  occ. eigenvalues --   -7.69737  -1.28623  -0.60947  -0.59911  -0.59898
 Alpha  occ. eigenvalues --   -0.52963  -0.30646
 Alpha virt. eigenvalues --    0.04487   0.05784   0.28796   0.33450   0.33985
 Alpha virt. eigenvalues --    0.37614   0.49393   0.50165   0.53049   0.53977
 Alpha virt. eigenvalues --    0.54366   0.58733   0.59713   0.59919   0.72125

 Mulliken charges and spin densities:
               1          2
     1  B   -0.012534   0.999865
     2  Ar   0.012534   0.000135
 Sum of Mulliken charges =  -0.00000   1.00000

 Dipole moment (field-independent basis, Debye):
    X=              0.0000    Y=              0.0000    Z=              0.2739  Tot=              0.2739
 Quadrupole moment (field-independent basis, Debye-Ang):
   XX=            -17.5925   YY=            -20.9566   ZZ=            -18.2350
   XY=              0.0000   XZ=              0.0000   YZ=              0.0000

 5\CCSD(T)=-551.6402017\RMSD=8.515e-09\PG=C*V [C*(B1Ar1)]\\@
 Normal termination of Gaussian 16 at Tue Feb 13 12:34:58 2024.
