 Gaussian 16, Revision A.03,
 Gaussian 16:  ES64L-G16RevA.03 25-Dec-2016

 --------------------
 #p ROCCSD(T)/cc-pVTZ
 --------------------

 -------
 B_Ar_53
 -------
 Symbolic Z-matrix:
 Charge =  0 Multiplicity = 2

                         Standard orientation:
 ---------------------------------------------------------------------
 Center     Atomic      Atomic             Coordinates (Angstroms)
 Number     Number       Type             X           Y           Z
 ---------------------------------------------------------------------
      1          5           0        0.000000    0.000000   -1.870435
      2         18           0        0.000000    0.000000    0.519565
 ---------------------------------------------------------------------

 SCF Done:  E(ROHF) =  -551.319916966     A.U. after   11 cycles
 E2 =    -0.2629920776D+00 EUMP2 =    -0.55158290904376D+03
 CCSD(T)
 CCSD(T)= -0.55162798420D+03

 Unable to determine electronic state:  an orbital has unidentified symmetry.
 Alpha  occ. eigenvalues -- -118.63958 -12.35161  -9.60055  -9.60042  -9.60031
 Alpha  occ. eigenvalues --   -7.68252  -1.31130  -0.66290  -0.62167  -0.62038
 Alpha  occ. eigenvalues --   -0.49118  -0.29629
 Alpha virt. eigenvalues --    0.05201   0.09129   0.29603   0.31568   0.34696
 Alpha virt. eigenvalues --    0.36871   0.48251   0.49599   0.50633   0.53689
 Alpha virt. eigenvalues --    0.53714   0.56791   0.56915   0.71086   0.71122

 Mulliken charges and spin densities:
               1          2
     1  B   -0.077238   0.998764
     2  Ar   0.077238   0.001236
 Sum of Mulliken charges =  -0.00000   1.00000

 Dipole moment (field-independent basis, Debye):
    X=              0.0000    Y=              0.0000    Z=              1.2426  Tot=              1.2426
 Quadrupole moment (field-independent basis, Debye-Ang):
   XX=            -20.9296   YY=            -17.5618   ZZ=            -20.3367
   XY=              0.0000   XZ=              0.0000   YZ=              0.0000

 Normal termination of Gaussian 16 at Tue Feb 13 12:32:11 2024.
