 Gaussian 16, Revision A.03,
 Gaussian 16:  ES64L-G16RevA.03 25-Dec-2016

 --------------------
 #p ROCCSD(T)/cc-pVTZ
 --------------------

 -------
 B_Ar_76
 -------
 Symbolic Z-matrix:
 Charge =  0 Multiplicity = 2

                         Standard orientation:
 ---------------------------------------------------------------------
 Center     Atomic      Atomic             Coordinates (Angstroms)
 Number     Number       Type             X           Y           Z
 ---------------------------------------------------------------------
      1          5           0        0.000000    0.000000   -2.410435
      2         18           0        0.000000    0.000000    0.669565
 ---------------------------------------------------------------------

 SCF Done:  E(ROHF) =  -551.338345663     A.U. after   10 cycles
 E2 =    -0.2564061577D+00 EUMP2 =    -0.55159475182069D+03
 CCSD(T)
 CCSD(T)= -0.55164036187D+03

 Unable to determine electronic state:  an orbital has unidentified symmetry.
 Alpha  occ. eigenvalues -- -118.61802 -12.32971  -9.57866  -9.57863  -9.57862
 Alpha  occ. eigenvalues --   -7.69768  -1.28578  -0.60834  -0.59872  -0.59858
 Alpha  occ. eigenvalues --   -0.53044  -0.30666
 Alpha virt. eigenvalues --    0.04473   0.05707   0.28771   0.33496   0.33959
 Alpha virt. eigenvalues --    0.37599   0.49456   0.50224   0.52979   0.53974
 Alpha virt. eigenvalues --    0.54358   0.58613   0.59717   0.59941   0.72151

 Mulliken charges and spin densities:
               1          2
     1  B   -0.011663   0.999876
     2  Ar   0.011663   0.000124
 Sum of Mulliken charges =  -0.00000   1.00000

 Dipole moment (field-independent basis, Debye):
    X=              0.0000    Y=              0.0000    Z=              0.2565  Tot=              0.2565
 Quadrupole moment (field-independent basis, Debye-Ang):
   XX=            -17.5931   YY=            -20.9569   ZZ=            -18.1912
   XY=              0.0000   XZ=              0.0000   YZ=              0.0000

 58\CCSD(T)=-551.6403619\RMSD=8.291e-09\PG=C*V [C*(B1Ar1)]\\@
 Normal termination of Gaussian 16 at Tue Feb 13 12:35:05 2024.
