 Gaussian 16, Revision A.03,
 Gaussian 16:  ES64L-G16RevA.03 25-Dec-2016

 --------------------
 #p ROCCSD(T)/cc-pVTZ
 --------------------

 -------
 B_Ar_84
 -------
 Symbolic Z-matrix:
 Charge =  0 Multiplicity = 2

                         Standard orientation:
 ---------------------------------------------------------------------
 Center     Atomic      Atomic             Coordinates (Angstroms)
 Number     Number       Type             X           Y           Z
 ---------------------------------------------------------------------
      1          5           0        0.000000    0.000000   -2.598261
      2         18           0        0.000000    0.000000    0.721739
 ---------------------------------------------------------------------

 SCF Done:  E(ROHF) =  -551.339930019     A.U. after   10 cycles
 E2 =    -0.2555403244D+00 EUMP2 =    -0.55159547034330D+03
 CCSD(T)
 CCSD(T)= -0.55164115993D+03

 Unable to determine electronic state:  an orbital has unidentified symmetry.
 Alpha  occ. eigenvalues -- -118.61574 -12.32739  -9.57633  -9.57632  -9.57632
 Alpha  occ. eigenvalues --   -7.69954  -1.28311  -0.60152  -0.59636  -0.59617
 Alpha  occ. eigenvalues --   -0.53521  -0.30784
 Alpha virt. eigenvalues --    0.04390   0.05217   0.28614   0.33792   0.33842
 Alpha virt. eigenvalues --    0.37157   0.50107   0.50847   0.51620   0.53945
 Alpha virt. eigenvalues --    0.54121   0.59343   0.59369   0.59714   0.72161

 Mulliken charges and spin densities:
               1          2
     1  B   -0.006885   0.999932
     2  Ar   0.006885   0.000068
 Sum of Mulliken charges =   0.00000   1.00000

 Dipole moment (field-independent basis, Debye):
    X=              0.0000    Y=              0.0000    Z=              0.1555  Tot=              0.1555
 Quadrupole moment (field-independent basis, Debye-Ang):
   XX=            -20.9577   YY=            -17.5961   ZZ=            -17.9273
   XY=              0.0000   XZ=              0.0000   YZ=              0.0000

 Normal termination of Gaussian 16 at Tue Feb 13 12:36:06 2024.
