 Gaussian 16, Revision A.03,
 Gaussian 16:  ES64L-G16RevA.03 25-Dec-2016

 --------------------
 #p ROCCSD(T)/cc-pVTZ
 --------------------

 -------
 B_Ar_41
 -------
 Symbolic Z-matrix:
 Charge =  0 Multiplicity = 2

                         Standard orientation:
 ---------------------------------------------------------------------
 Center     Atomic      Atomic             Coordinates (Angstroms)
 Number     Number       Type             X           Y           Z
 ---------------------------------------------------------------------
      1          5           0        0.000000    0.000000   -1.588696
      2         18           0        0.000000    0.000000    0.441304
 ---------------------------------------------------------------------

 SCF Done:  E(ROHF) =  -551.289282782     A.U. after   11 cycles
 E2 =    -0.2705639027D+00 EUMP2 =    -0.55155984668514D+03
 CCSD(T)
 CCSD(T)= -0.55160428312D+03

 Unable to determine electronic state:  an orbital has unidentified symmetry.
 Alpha  occ. eigenvalues -- -118.67623 -12.38857  -9.63755  -9.63727  -9.63696
 Alpha  occ. eigenvalues --   -7.66487  -1.35506  -0.73106  -0.66019  -0.65565
 Alpha  occ. eigenvalues --   -0.44617  -0.28270
 Alpha virt. eigenvalues --    0.06132   0.13131   0.28846   0.29849   0.34501
 Alpha virt. eigenvalues --    0.37040   0.45001   0.50850   0.52307   0.52339
 Alpha virt. eigenvalues --    0.52357   0.54146   0.54293   0.70478   0.70479

 Mulliken charges and spin densities:
               1          2
     1  B   -0.211265   0.994563
     2  Ar   0.211265   0.005437
 Sum of Mulliken charges =  -0.00000   1.00000

 Dipole moment (field-independent basis, Debye):
    X=              0.0000    Y=              0.0000    Z=              2.6975  Tot=              2.6975
 Quadrupole moment (field-independent basis, Debye-Ang):
   XX=            -17.5475   YY=            -20.8945   ZZ=            -22.9018
   XY=              0.0000   XZ=              0.0000   YZ=              0.0000

 35\CCSD(T)=-551.6042831\RMSD=3.502e-09\PG=C*V [C*(B1Ar1)]\\@
 Normal termination of Gaussian 16 at Tue Feb 13 12:30:40 2024.
