 Gaussian 16, Revision A.03,
 Gaussian 16:  ES64L-G16RevA.03 25-Dec-2016

 --------------------
 #p ROCCSD(T)/cc-pVTZ
 --------------------

 -------
 B_Ar_70
 -------
 Symbolic Z-matrix:
 Charge =  0 Multiplicity = 2

                         Standard orientation:
 ---------------------------------------------------------------------
 Center     Atomic      Atomic             Coordinates (Angstroms)
 Number     Number       Type             X           Y           Z
 ---------------------------------------------------------------------
      1          5           0        0.000000    0.000000   -2.269565
      2         18           0        0.000000    0.000000    0.630435
 ---------------------------------------------------------------------

 SCF Done:  E(ROHF) =  -551.336186720     A.U. after   10 cycles
 E2 =    -0.2573910199D+00 EUMP2 =    -0.55159357773995D+03
 CCSD(T)
 CCSD(T)= -0.55163910123D+03

 Unable to determine electronic state:  an orbital has unidentified symmetry.
 Alpha  occ. eigenvalues -- -118.62071 -12.33246  -9.58140  -9.58136  -9.58134
 Alpha  occ. eigenvalues --   -7.69545  -1.28898  -0.61638  -0.60150  -0.60147
 Alpha  occ. eigenvalues --   -0.52462  -0.30523
 Alpha virt. eigenvalues --    0.04575   0.06238   0.28941   0.33205   0.34135
 Alpha virt. eigenvalues --    0.37566   0.49152   0.49952   0.52855   0.53986
 Alpha virt. eigenvalues --    0.54188   0.59517   0.59637   0.60371   0.71969

 Mulliken charges and spin densities:
               1          2
     1  B   -0.018319   0.999792
     2  Ar   0.018319   0.000208
 Sum of Mulliken charges =  -0.00000   1.00000

 Dipole moment (field-independent basis, Debye):
    X=              0.0000    Y=              0.0000    Z=              0.3832  Tot=              0.3832
 Quadrupole moment (field-independent basis, Debye-Ang):
   XX=            -17.5884   YY=            -20.9541   ZZ=            -18.5021
   XY=              0.0000   XZ=              0.0000   YZ=              0.0000

 9\CCSD(T)=-551.6391012\RMSD=9.017e-09\PG=C*V [C*(B1Ar1)]\\@
 Normal termination of Gaussian 16 at Tue Feb 13 12:34:20 2024.
