 Gaussian 16, Revision A.03,
 Gaussian 16:  ES64L-G16RevA.03 25-Dec-2016

 --------------------
 #p ROCCSD(T)/cc-pVTZ
 --------------------

 -------
 B_Ar_61
 -------
 Symbolic Z-matrix:
 Charge =  0 Multiplicity = 2

                         Standard orientation:
 ---------------------------------------------------------------------
 Center     Atomic      Atomic             Coordinates (Angstroms)
 Number     Number       Type             X           Y           Z
 ---------------------------------------------------------------------
      1          5           0        0.000000    0.000000   -2.058261
      2         18           0        0.000000    0.000000    0.571739
 ---------------------------------------------------------------------

 SCF Done:  E(ROHF) =  -551.330141317     A.U. after   11 cycles
 E2 =    -0.2597065730D+00 EUMP2 =    -0.55158984789020D+03
 CCSD(T)
 CCSD(T)= -0.55163517972D+03

 Unable to determine electronic state:  an orbital has unidentified symmetry.
 Alpha  occ. eigenvalues -- -118.62773 -12.33960  -9.58855  -9.58847  -9.58842
 Alpha  occ. eigenvalues --   -7.69010  -1.29731  -0.63555  -0.60904  -0.60865
 Alpha  occ. eigenvalues --   -0.51064  -0.30166
 Alpha virt. eigenvalues --    0.04827   0.07442   0.29273   0.32598   0.34450
 Alpha virt. eigenvalues --    0.37156   0.49124   0.50009   0.50710   0.53934
 Alpha virt. eigenvalues --    0.53971   0.58443   0.58468   0.65882   0.71584

 Mulliken charges and spin densities:
               1          2
     1  B   -0.038629   0.999494
     2  Ar   0.038629   0.000506
 Sum of Mulliken charges =   0.00000   1.00000

 Dipole moment (field-independent basis, Debye):
    X=              0.0000    Y=              0.0000    Z=              0.7142  Tot=              0.7142
 Quadrupole moment (field-independent basis, Debye-Ang):
   XX=            -20.9446   YY=            -17.5764   ZZ=            -19.2521
   XY=              0.0000   XZ=              0.0000   YZ=              0.0000

 94\CCSD(T)=-551.6351797\RMSD=1.368e-09\PG=C*V [C*(B1Ar1)]\\@
 Normal termination of Gaussian 16 at Tue Feb 13 12:33:12 2024.
