 Gaussian 16, Revision A.03,
 Gaussian 16:  ES64L-G16RevA.03 25-Dec-2016

 --------------------
 #p ROCCSD(T)/cc-pVTZ
 --------------------

 -------
 B_Ar_89
 -------
 Symbolic Z-matrix:
 Charge =  0 Multiplicity = 2

                         Standard orientation:
 ---------------------------------------------------------------------
 Center     Atomic      Atomic             Coordinates (Angstroms)
 Number     Number       Type             X           Y           Z
 ---------------------------------------------------------------------
      1          5           0        0.000000    0.000000   -2.715652
      2         18           0        0.000000    0.000000    0.754348
 ---------------------------------------------------------------------

 SCF Done:  E(ROHF) =  -551.340471878     A.U. after   10 cycles
 E2 =    -0.2551758032D+00 EUMP2 =    -0.55159564768158D+03
 CCSD(T)
 CCSD(T)= -0.55164137188D+03

 Unable to determine electronic state:  an orbital has unidentified symmetry.
 Alpha  occ. eigenvalues -- -118.61476 -12.32640  -9.57534  -9.57533  -9.57533
 Alpha  occ. eigenvalues --   -7.70027  -1.28200  -0.59881  -0.59536  -0.59518
 Alpha  occ. eigenvalues --   -0.53699  -0.30830
 Alpha virt. eigenvalues --    0.04357   0.04997   0.28553   0.33728   0.34041
 Alpha virt. eigenvalues --    0.36615   0.50598   0.50817   0.51325   0.53928
 Alpha virt. eigenvalues --    0.54049   0.58882   0.59283   0.60259   0.72054

 Mulliken charges and spin densities:
               1          2
     1  B   -0.005163   0.999951
     2  Ar   0.005163   0.000049
 Sum of Mulliken charges =  -0.00000   1.00000

 Dipole moment (field-independent basis, Debye):
    X=              0.0000    Y=              0.0000    Z=              0.1167  Tot=              0.1167
 Quadrupole moment (field-independent basis, Debye-Ang):
   XX=            -20.9574   YY=            -17.5969   ZZ=            -17.8217
   XY=              0.0000   XZ=              0.0000   YZ=              0.0000

 3\CCSD(T)=-551.6413719\RMSD=4.027e-09\PG=C*V [C*(B1Ar1)]\\@
 Normal termination of Gaussian 16 at Tue Feb 13 12:36:44 2024.
