 Gaussian 16, Revision A.03,
 Gaussian 16:  ES64L-G16RevA.03 25-Dec-2016

 --------------------
 #p ROCCSD(T)/cc-pVTZ
 --------------------

 -------
 B_Ar_40
 -------
 Symbolic Z-matrix:
 Charge =  0 Multiplicity = 2

                         Standard orientation:
 ---------------------------------------------------------------------
 Center     Atomic      Atomic             Coordinates (Angstroms)
 Number     Number       Type             X           Y           Z
 ---------------------------------------------------------------------
      1          5           0        0.000000    0.000000   -1.565217
      2         18           0        0.000000    0.000000    0.434783
 ---------------------------------------------------------------------

 SCF Done:  E(ROHF) =  -551.285550451     A.U. after   11 cycles
 E2 =    -0.2713038822D+00 EUMP2 =    -0.55155685433360D+03
 CCSD(T)
 CCSD(T)= -0.55160121723D+03

 Unable to determine electronic state:  an orbital has unidentified symmetry.
 Alpha  occ. eigenvalues -- -118.68062 -12.39300  -9.64199  -9.64169  -9.64136
 Alpha  occ. eigenvalues --   -7.66304  -1.36046  -0.73852  -0.66483  -0.65987
 Alpha  occ. eigenvalues --   -0.44155  -0.28126
 Alpha virt. eigenvalues --    0.06231   0.13520   0.28618   0.29827   0.34413
 Alpha virt. eigenvalues --    0.37022   0.44853   0.50908   0.52095   0.52128
 Alpha virt. eigenvalues --    0.52409   0.54096   0.54167   0.70460   0.70461

 Mulliken charges and spin densities:
               1          2
     1  B   -0.228635   0.993814
     2  Ar   0.228635   0.006186
 Sum of Mulliken charges =  -0.00000   1.00000

 Dipole moment (field-independent basis, Debye):
    X=              0.0000    Y=              0.0000    Z=              2.8593  Tot=              2.8593
 Quadrupole moment (field-independent basis, Debye-Ang):
   XX=            -17.5474   YY=            -20.8902   ZZ=            -23.1573
   XY=              0.0000   XZ=              0.0000   YZ=              0.0000

 Normal termination of Gaussian 16 at Tue Feb 13 12:30:32 2024.
