 Gaussian 16, Revision A.03,
 Gaussian 16:  ES64L-G16RevA.03 25-Dec-2016

 --------------------
 #p ROCCSD(T)/cc-pVTZ
 --------------------

 -------
 B_Ar_45
 -------
 Symbolic Z-matrix:
 Charge =  0 Multiplicity = 2

                         Standard orientation:
 ---------------------------------------------------------------------
 Center     Atomic      Atomic             Coordinates (Angstroms)
 Number     Number       Type             X           Y           Z
 ---------------------------------------------------------------------
      1          5           0        0.000000    0.000000   -1.682609
      2         18           0        0.000000    0.000000    0.467391
 ---------------------------------------------------------------------

 SCF Done:  E(ROHF) =  -551.302149614     A.U. after   11 cycles
 E2 =    -0.2677231599D+00 EUMP2 =    -0.55156987277349D+03
 CCSD(T)
 CCSD(T)= -0.55161456717D+03

 Unable to determine electronic state:  an orbital has unidentified symmetry.
 Alpha  occ. eigenvalues -- -118.66082 -12.37304  -9.62199  -9.62177  -9.62154
 Alpha  occ. eigenvalues --   -7.67163  -1.33643  -0.70406  -0.64399  -0.64088
 Alpha  occ. eigenvalues --   -0.46338  -0.28803
 Alpha virt. eigenvalues --    0.05769   0.11614   0.29832   0.29847   0.34710
 Alpha virt. eigenvalues --    0.36987   0.45881   0.50456   0.51790   0.52978
 Alpha virt. eigenvalues --    0.53006   0.54866   0.55063   0.70634   0.70634

 Mulliken charges and spin densities:
               1          2
     1  B   -0.152619   0.996732
     2  Ar   0.152619   0.003268
 Sum of Mulliken charges =  -0.00000   1.00000

 Dipole moment (field-independent basis, Debye):
    X=              0.0000    Y=              0.0000    Z=              2.1108  Tot=              2.1108
 Quadrupole moment (field-independent basis, Debye-Ang):
   XX=            -17.5498   YY=            -20.9087   ZZ=            -21.9281
   XY=              0.0000   XZ=              0.0000   YZ=              0.0000

 3\CCSD(T)=-551.6145672\RMSD=2.508e-09\PG=C*V [C*(B1Ar1)]\\@
 Normal termination of Gaussian 16 at Tue Feb 13 12:31:10 2024.
