 Gaussian 16, Revision A.03,
 Gaussian 16:  ES64L-G16RevA.03 25-Dec-2016

 --------------------
 #p ROCCSD(T)/cc-pVTZ
 --------------------

 -------
 B_Ar_71
 -------
 Symbolic Z-matrix:
 Charge =  0 Multiplicity = 2

                         Standard orientation:
 ---------------------------------------------------------------------
 Center     Atomic      Atomic             Coordinates (Angstroms)
 Number     Number       Type             X           Y           Z
 ---------------------------------------------------------------------
      1          5           0        0.000000    0.000000   -2.293043
      2         18           0        0.000000    0.000000    0.636957
 ---------------------------------------------------------------------

 SCF Done:  E(ROHF) =  -551.336626011     A.U. after   10 cycles
 E2 =    -0.2572013630D+00 EUMP2 =    -0.55159382737402D+03
 CCSD(T)
 CCSD(T)= -0.55163936726D+03

 Unable to determine electronic state:  an orbital has unidentified symmetry.
 Alpha  occ. eigenvalues -- -118.62018 -12.33192  -9.58086  -9.58083  -9.58081
 Alpha  occ. eigenvalues --   -7.69589  -1.28835  -0.61482  -0.60096  -0.60090
 Alpha  occ. eigenvalues --   -0.52575  -0.30551
 Alpha virt. eigenvalues --    0.04555   0.06137   0.28910   0.33257   0.34103
 Alpha virt. eigenvalues --    0.37590   0.49189   0.49983   0.52969   0.53985
 Alpha virt. eigenvalues --    0.54234   0.59579   0.59716   0.59921   0.72003

 Mulliken charges and spin densities:
               1          2
     1  B   -0.016939   0.999810
     2  Ar   0.016939   0.000190
 Sum of Mulliken charges =  -0.00000   1.00000

 Dipole moment (field-independent basis, Debye):
    X=              0.0000    Y=              0.0000    Z=              0.3580  Tot=              0.3580
 Quadrupole moment (field-independent basis, Debye-Ang):
   XX=            -17.5894   YY=            -20.9548   ZZ=            -18.4416
   XY=              0.0000   XZ=              0.0000   YZ=              0.0000

 \CCSD(T)=-551.6393673\RMSD=8.989e-09\PG=C*V [C*(B1Ar1)]\\@
 Normal termination of Gaussian 16 at Tue Feb 13 12:34:27 2024.
