 Gaussian 16, Revision A.03,
 Gaussian 16:  ES64L-G16RevA.03 25-Dec-2016

 --------------------
 #p ROCCSD(T)/cc-pVTZ
 --------------------

 -------
 B_Ar_55
 -------
 Symbolic Z-matrix:
 Charge =  0 Multiplicity = 2

                         Standard orientation:
 ---------------------------------------------------------------------
 Center     Atomic      Atomic             Coordinates (Angstroms)
 Number     Number       Type             X           Y           Z
 ---------------------------------------------------------------------
      1          5           0        0.000000    0.000000   -1.917391
      2         18           0        0.000000    0.000000    0.532609
 ---------------------------------------------------------------------

 SCF Done:  E(ROHF) =  -551.323052387     A.U. after   10 cycles
 E2 =    -0.2620406225D+00 EUMP2 =    -0.55158509300931D+03
 CCSD(T)
 CCSD(T)= -0.55163024188D+03

 Unable to determine electronic state:  an orbital has unidentified symmetry.
 Alpha  occ. eigenvalues -- -118.63591 -12.34790  -9.59684  -9.59673  -9.59663
 Alpha  occ. eigenvalues --   -7.68471  -1.30698  -0.65494  -0.61779  -0.61678
 Alpha  occ. eigenvalues --   -0.49677  -0.29788
 Alpha virt. eigenvalues --    0.05091   0.08639   0.29522   0.31892   0.34646
 Alpha virt. eigenvalues --    0.36907   0.48875   0.49437   0.50423   0.53780
 Alpha virt. eigenvalues --    0.53805   0.57245   0.57346   0.69984   0.71246

 Mulliken charges and spin densities:
               1          2
     1  B   -0.064935   0.999019
     2  Ar   0.064935   0.000981
 Sum of Mulliken charges =  -0.00000   1.00000

 Dipole moment (field-independent basis, Debye):
    X=              0.0000    Y=              0.0000    Z=              1.0833  Tot=              1.0833
 Quadrupole moment (field-independent basis, Debye-Ang):
   XX=            -17.5656   YY=            -20.9339   ZZ=            -20.0209
   XY=              0.0000   XZ=              0.0000   YZ=              0.0000

 \CCSD(T)=-551.6302419\RMSD=8.808e-09\PG=C*V [C*(B1Ar1)]\\@
 Normal termination of Gaussian 16 at Tue Feb 13 12:32:26 2024.
