 Gaussian 16, Revision A.03,
 Gaussian 16:  ES64L-G16RevA.03 25-Dec-2016

 --------------------
 #p ROCCSD(T)/cc-pVTZ
 --------------------

 -------
 B_Ar_69
 -------
 Symbolic Z-matrix:
 Charge =  0 Multiplicity = 2

                         Standard orientation:
 ---------------------------------------------------------------------
 Center     Atomic      Atomic             Coordinates (Angstroms)
 Number     Number       Type             X           Y           Z
 ---------------------------------------------------------------------
      1          5           0        0.000000    0.000000   -2.246087
      2         18           0        0.000000    0.000000    0.623913
 ---------------------------------------------------------------------

 SCF Done:  E(ROHF) =  -551.335709664     A.U. after   10 cycles
 E2 =    -0.2575923121D+00 EUMP2 =    -0.55159330197603D+03
 CCSD(T)
 CCSD(T)= -0.55163880819D+03

 Unable to determine electronic state:  an orbital has unidentified symmetry.
 Alpha  occ. eigenvalues -- -118.62128 -12.33304  -9.58198  -9.58194  -9.58192
 Alpha  occ. eigenvalues --   -7.69499  -1.28965  -0.61805  -0.60209  -0.60209
 Alpha  occ. eigenvalues --   -0.52340  -0.30493
 Alpha virt. eigenvalues --    0.04596   0.06345   0.28974   0.33151   0.34168
 Alpha virt. eigenvalues --    0.37536   0.49122   0.49928   0.52704   0.53985
 Alpha virt. eigenvalues --    0.54146   0.59443   0.59546   0.60868   0.71933

 Mulliken charges and spin densities:
               1          2
     1  B   -0.019834   0.999771
     2  Ar   0.019834   0.000229
 Sum of Mulliken charges =  -0.00000   1.00000

 Dipole moment (field-independent basis, Debye):
    X=              0.0000    Y=              0.0000    Z=              0.4103  Tot=              0.4103
 Quadrupole moment (field-independent basis, Debye-Ang):
   XX=            -20.9534   YY=            -17.5874   ZZ=            -18.5664
   XY=              0.0000   XZ=              0.0000   YZ=              0.0000

 \CCSD(T)=-551.6388082\RMSD=9.032e-09\PG=C*V [C*(B1Ar1)]\\@
 Normal termination of Gaussian 16 at Tue Feb 13 12:34:12 2024.
