 Gaussian 16, Revision A.03,
 Gaussian 16:  ES64L-G16RevA.03 25-Dec-2016

 --------------------
 #p ROCCSD(T)/cc-pVTZ
 --------------------

 -------
 B_Ar_50
 -------
 Symbolic Z-matrix:
 Charge =  0 Multiplicity = 2

                         Standard orientation:
 ---------------------------------------------------------------------
 Center     Atomic      Atomic             Coordinates (Angstroms)
 Number     Number       Type             X           Y           Z
 ---------------------------------------------------------------------
      1          5           0        0.000000    0.000000   -1.800000
      2         18           0        0.000000    0.000000    0.500000
 ---------------------------------------------------------------------

 SCF Done:  E(ROHF) =  -551.314320799     A.U. after   11 cycles
 E2 =    -0.2645944961D+00 EUMP2 =    -0.55157891529554D+03
 CCSD(T)
 CCSD(T)= -0.55162386535D+03

 Unable to determine electronic state:  an orbital has unidentified symmetry.
 Alpha  occ. eigenvalues -- -118.64620 -12.35830  -9.60724  -9.60708  -9.60693
 Alpha  occ. eigenvalues --   -7.67885  -1.31910  -0.67649  -0.62865  -0.62681
 Alpha  occ. eigenvalues --   -0.48180  -0.29356
 Alpha virt. eigenvalues --    0.05390   0.09960   0.29715   0.30993   0.34745
 Alpha virt. eigenvalues --    0.36873   0.47323   0.49890   0.51013   0.53498
 Alpha virt. eigenvalues --    0.53523   0.56075   0.56229   0.70927   0.70930

 Mulliken charges and spin densities:
               1          2
     1  B   -0.100041   0.998235
     2  Ar   0.100041   0.001765
 Sum of Mulliken charges =  -0.00000   1.00000

 Dipole moment (field-independent basis, Debye):
    X=              0.0000    Y=              0.0000    Z=              1.5224  Tot=              1.5224
 Quadrupole moment (field-independent basis, Debye-Ang):
   XX=            -17.5565   YY=            -20.9225   ZZ=            -20.8716
   XY=              0.0000   XZ=              0.0000   YZ=              0.0000

 8\CCSD(T)=-551.6238653\RMSD=1.486e-09\PG=C*V [C*(B1Ar1)]\\@
 Normal termination of Gaussian 16 at Tue Feb 13 12:31:48 2024.
