 Gaussian 16, Revision A.03,
 Gaussian 16:  ES64L-G16RevA.03 25-Dec-2016

 --------------------
 #p ROCCSD(T)/cc-pVTZ
 --------------------

 -------
 B_Ar_10
 -------
 Symbolic Z-matrix:
 Charge =  0 Multiplicity = 2

                         Standard orientation:
 ---------------------------------------------------------------------
 Center     Atomic      Atomic             Coordinates (Angstroms)
 Number     Number       Type             X           Y           Z
 ---------------------------------------------------------------------
      1          5           0        0.000000    0.000000   -0.860870
      2         18           0        0.000000    0.000000    0.239130
 ---------------------------------------------------------------------

 SCF Done:  E(ROHF) =  -550.574590864     A.U. after   12 cycles
 E2 =    -0.2932856142D+00 EUMP2 =    -0.55086787647795D+03
 CCSD(T)
 CCSD(T)= -0.55090320431D+03

 Unable to determine electronic state:  an orbital has unidentified symmetry.
 Alpha  occ. eigenvalues -- -118.76739 -12.51167  -9.76471  -9.75421  -9.75411
 Alpha  occ. eigenvalues --   -7.61848  -1.60087  -0.94925  -0.87077  -0.83466
 Alpha  occ. eigenvalues --   -0.32652  -0.23962
 Alpha virt. eigenvalues --    0.11312   0.15677   0.20979   0.23076   0.33127
 Alpha virt. eigenvalues --    0.36790   0.41697   0.41827   0.52281   0.53831
 Alpha virt. eigenvalues --    0.64148   0.66569   0.68792   0.74844   0.79421

 Mulliken charges and spin densities:
               1          2
     1  B   -1.311183   0.729672
     2  Ar   1.311183   0.270328
 Sum of Mulliken charges =   0.00000   1.00000

 Dipole moment (field-independent basis, Debye):
    X=              0.0000    Y=              0.0000    Z=              5.6433  Tot=              5.6433
 Quadrupole moment (field-independent basis, Debye-Ang):
   XX=            -19.1926   YY=            -16.8860   ZZ=            -24.4587
   XY=              0.0000   XZ=              0.0000   YZ=              0.0000

 1\CCSD(T)=-550.9032043\RMSD=3.158e-09\PG=C*V [C*(B1Ar1)]\\@
 Normal termination of Gaussian 16 at Tue Feb 13 12:26:46 2024.
