 Gaussian 16, Revision A.03,
 Gaussian 16:  ES64L-G16RevA.03 25-Dec-2016

 --------------------
 #p ROCCSD(T)/cc-pVTZ
 --------------------

 -------
 B_Ar_15
 -------
 Symbolic Z-matrix:
 Charge =  0 Multiplicity = 2

                         Standard orientation:
 ---------------------------------------------------------------------
 Center     Atomic      Atomic             Coordinates (Angstroms)
 Number     Number       Type             X           Y           Z
 ---------------------------------------------------------------------
      1          5           0        0.000000    0.000000   -0.978261
      2         18           0        0.000000    0.000000    0.271739
 ---------------------------------------------------------------------

 SCF Done:  E(ROHF) =  -550.921439692     A.U. after   12 cycles
 E2 =    -0.2891686973D+00 EUMP2 =    -0.55121060838935D+03
 CCSD(T)
 CCSD(T)= -0.55124873073D+03

 Unable to determine electronic state:  an orbital has unidentified symmetry.
 Alpha  occ. eigenvalues -- -118.77606 -12.50464  -9.75522  -9.75109  -9.75053
 Alpha  occ. eigenvalues --   -7.60798  -1.56854  -0.94346  -0.82958  -0.80047
 Alpha  occ. eigenvalues --   -0.33610  -0.24426
 Alpha virt. eigenvalues --    0.09826   0.15552   0.23221   0.25628   0.32808
 Alpha virt. eigenvalues --    0.34980   0.43019   0.43076   0.51158   0.52620
 Alpha virt. eigenvalues --    0.58505   0.63116   0.65362   0.76350   0.76485

 Mulliken charges and spin densities:
               1          2
     1  B   -1.089925   0.849478
     2  Ar   1.089925   0.150522
 Sum of Mulliken charges =  -0.00000   1.00000

 Dipole moment (field-independent basis, Debye):
    X=              0.0000    Y=              0.0000    Z=              5.9121  Tot=              5.9121
 Quadrupole moment (field-independent basis, Debye-Ang):
   XX=            -17.2465   YY=            -19.9034   ZZ=            -25.5004
   XY=              0.0000   XZ=              0.0000   YZ=              0.0000

 \CCSD(T)=-551.2487307\RMSD=2.448e-09\PG=C*V [C*(B1Ar1)]\\@
 Normal termination of Gaussian 16 at Tue Feb 13 12:27:23 2024.
