 Gaussian 16, Revision A.03,
 Gaussian 16:  ES64L-G16RevA.03 25-Dec-2016

 --------------------
 #p ROCCSD(T)/cc-pVTZ
 --------------------

 -------
 B_Ar_72
 -------
 Symbolic Z-matrix:
 Charge =  0 Multiplicity = 2

                         Standard orientation:
 ---------------------------------------------------------------------
 Center     Atomic      Atomic             Coordinates (Angstroms)
 Number     Number       Type             X           Y           Z
 ---------------------------------------------------------------------
      1          5           0        0.000000    0.000000   -2.316522
      2         18           0        0.000000    0.000000    0.643478
 ---------------------------------------------------------------------

 SCF Done:  E(ROHF) =  -551.337030269     A.U. after   10 cycles
 E2 =    -0.2570227008D+00 EUMP2 =    -0.55159405296981D+03
 CCSD(T)
 CCSD(T)= -0.55163960842D+03

 Unable to determine electronic state:  an orbital has unidentified symmetry.
 Alpha  occ. eigenvalues -- -118.61969 -12.33141  -9.58036  -9.58033  -9.58031
 Alpha  occ. eigenvalues --   -7.69629  -1.28776  -0.61336  -0.60045  -0.60037
 Alpha  occ. eigenvalues --   -0.52682  -0.30578
 Alpha virt. eigenvalues --    0.04536   0.06042   0.28880   0.33307   0.34072
 Alpha virt. eigenvalues --    0.37608   0.49232   0.50019   0.53046   0.53984
 Alpha virt. eigenvalues --    0.54282   0.59525   0.59630   0.59785   0.72036

 Mulliken charges and spin densities:
               1          2
     1  B   -0.015681   0.999826
     2  Ar   0.015681   0.000174
 Sum of Mulliken charges =   0.00000   1.00000

 Dipole moment (field-independent basis, Debye):
    X=              0.0000    Y=              0.0000    Z=              0.3346  Tot=              0.3346
 Quadrupole moment (field-independent basis, Debye-Ang):
   XX=            -20.9553   YY=            -17.5903   ZZ=            -18.3849
   XY=              0.0000   XZ=              0.0000   YZ=              0.0000

 \CCSD(T)=-551.6396084\RMSD=8.932e-09\PG=C*V [C*(B1Ar1)]\\@
 Normal termination of Gaussian 16 at Tue Feb 13 12:34:35 2024.
