 Gaussian 16, Revision A.03,
 Gaussian 16:  ES64L-G16RevA.03 25-Dec-2016

 --------------------
 #p ROCCSD(T)/cc-pVTZ
 --------------------

 -------
 B_Ar_33
 -------
 Symbolic Z-matrix:
 Charge =  0 Multiplicity = 2

                         Standard orientation:
 ---------------------------------------------------------------------
 Center     Atomic      Atomic             Coordinates (Angstroms)
 Number     Number       Type             X           Y           Z
 ---------------------------------------------------------------------
      1          5           0        0.000000    0.000000   -1.400870
      2         18           0        0.000000    0.000000    0.389130
 ---------------------------------------------------------------------

 SCF Done:  E(ROHF) =  -551.251729412     A.U. after   11 cycles
 E2 =    -0.2764735056D+00 EUMP2 =    -0.55152820291732D+03
 CCSD(T)
 CCSD(T)= -0.55157190403D+03

 Unable to determine electronic state:  an orbital has unidentified symmetry.
 Alpha  occ. eigenvalues -- -118.71604 -12.42906  -9.67815  -9.67770  -9.67719
 Alpha  occ. eigenvalues --   -7.64862  -1.40704  -0.79804  -0.70376  -0.69486
 Alpha  occ. eigenvalues --   -0.40687  -0.27033
 Alpha virt. eigenvalues --    0.06988   0.15791   0.27906   0.29252   0.33218
 Alpha virt. eigenvalues --    0.36242   0.45126   0.50061   0.50116   0.50504
 Alpha virt. eigenvalues --    0.51623   0.54626   0.55610   0.70725   0.70728

 Mulliken charges and spin densities:
               1          2
     1  B   -0.385829   0.984551
     2  Ar   0.385829   0.015449
 Sum of Mulliken charges =   0.00000   1.00000

 Dipole moment (field-independent basis, Debye):
    X=              0.0000    Y=              0.0000    Z=              4.0999  Tot=              4.0999
 Quadrupole moment (field-independent basis, Debye-Ang):
   XX=            -20.8366   YY=            -17.5493   ZZ=            -24.9181
   XY=              0.0000   XZ=              0.0000   YZ=              0.0000

 29\CCSD(T)=-551.571904\RMSD=5.169e-09\PG=C*V [C*(B1Ar1)]\\@
 Normal termination of Gaussian 16 at Tue Feb 13 12:29:39 2024.
