 Gaussian 16, Revision A.03,
 Gaussian 16:  ES64L-G16RevA.03 25-Dec-2016

 --------------------
 #p ROCCSD(T)/cc-pVTZ
 --------------------

 -------
 B_Ar_17
 -------
 Symbolic Z-matrix:
 Charge =  0 Multiplicity = 2

                         Standard orientation:
 ---------------------------------------------------------------------
 Center     Atomic      Atomic             Coordinates (Angstroms)
 Number     Number       Type             X           Y           Z
 ---------------------------------------------------------------------
      1          5           0        0.000000    0.000000   -1.025217
      2         18           0        0.000000    0.000000    0.284783
 ---------------------------------------------------------------------

 SCF Done:  E(ROHF) =  -551.004492632     A.U. after   12 cycles
 E2 =    -0.2875001212D+00 EUMP2 =    -0.55129199275342D+03
 CCSD(T)
 CCSD(T)= -0.55133117357D+03

 Unable to determine electronic state:  an orbital has unidentified symmetry.
 Alpha  occ. eigenvalues -- -118.77612 -12.50068  -9.75082  -9.74793  -9.74728
 Alpha  occ. eigenvalues --   -7.61008  -1.55115  -0.93422  -0.81462  -0.78841
 Alpha  occ. eigenvalues --   -0.34097  -0.24671
 Alpha virt. eigenvalues --    0.09358   0.15559   0.24115   0.26631   0.32548
 Alpha virt. eigenvalues --    0.34548   0.43672   0.43711   0.50768   0.52200
 Alpha virt. eigenvalues --    0.56295   0.61812   0.64021   0.75429   0.75445

 Mulliken charges and spin densities:
               1          2
     1  B   -1.001574   0.881666
     2  Ar   1.001574   0.118334
 Sum of Mulliken charges =  -0.00000   1.00000

 Dipole moment (field-independent basis, Debye):
    X=              0.0000    Y=              0.0000    Z=              5.9243  Tot=              5.9243
 Quadrupole moment (field-independent basis, Debye-Ang):
   XX=            -17.3393   YY=            -20.1159   ZZ=            -25.8227
   XY=              0.0000   XZ=              0.0000   YZ=              0.0000

 36\CCSD(T)=-551.3311736\RMSD=2.140e-09\PG=C*V [C*(B1Ar1)]\\@
 Normal termination of Gaussian 16 at Tue Feb 13 12:27:39 2024.
