 Gaussian 16, Revision A.03,
 Gaussian 16:  ES64L-G16RevA.03 25-Dec-2016

 --------------------
 #p ROCCSD(T)/cc-pVTZ
 --------------------

 -------
 B_Ar_32
 -------
 Symbolic Z-matrix:
 Charge =  0 Multiplicity = 2

                         Standard orientation:
 ---------------------------------------------------------------------
 Center     Atomic      Atomic             Coordinates (Angstroms)
 Number     Number       Type             X           Y           Z
 ---------------------------------------------------------------------
      1          5           0        0.000000    0.000000   -1.377391
      2         18           0        0.000000    0.000000    0.382609
 ---------------------------------------------------------------------

 SCF Done:  E(ROHF) =  -551.245431750     A.U. after   11 cycles
 E2 =    -0.2771761429D+00 EUMP2 =    -0.55152260789285D+03
 CCSD(T)
 CCSD(T)= -0.55156618374D+03

 Unable to determine electronic state:  an orbital has unidentified symmetry.
 Alpha  occ. eigenvalues -- -118.72147 -12.43467  -9.68379  -9.68331  -9.68277
 Alpha  occ. eigenvalues --   -7.64633  -1.41487  -0.80736  -0.71011  -0.70050
 Alpha  occ. eigenvalues --   -0.40178  -0.26871
 Alpha virt. eigenvalues --    0.07105   0.15969   0.28011   0.29092   0.32951
 Alpha virt. eigenvalues --    0.36045   0.45380   0.49696   0.49758   0.50384
 Alpha virt. eigenvalues --    0.51499   0.54867   0.55972   0.70835   0.70839

 Mulliken charges and spin densities:
               1          2
     1  B   -0.413946   0.982383
     2  Ar   0.413946   0.017617
 Sum of Mulliken charges =   0.00000   1.00000

 Dipole moment (field-independent basis, Debye):
    X=              0.0000    Y=              0.0000    Z=              4.2808  Tot=              4.2808
 Quadrupole moment (field-independent basis, Debye-Ang):
   XX=            -20.8232   YY=            -17.5490   ZZ=            -25.1408
   XY=              0.0000   XZ=              0.0000   YZ=              0.0000

 89\CCSD(T)=-551.5661837\RMSD=5.140e-09\PG=C*V [C*(B1Ar1)]\\@
 Normal termination of Gaussian 16 at Tue Feb 13 12:29:31 2024.
