 Gaussian 16, Revision A.03,
 Gaussian 16:  ES64L-G16RevA.03 25-Dec-2016

 --------------------
 #p ROCCSD(T)/cc-pVTZ
 --------------------

 -------
 B_Ar_90
 -------
 Symbolic Z-matrix:
 Charge =  0 Multiplicity = 2

                         Standard orientation:
 ---------------------------------------------------------------------
 Center     Atomic      Atomic             Coordinates (Angstroms)
 Number     Number       Type             X           Y           Z
 ---------------------------------------------------------------------
      1          5           0        0.000000    0.000000   -2.739130
      2         18           0        0.000000    0.000000    0.760870
 ---------------------------------------------------------------------

 SCF Done:  E(ROHF) =  -551.340552952     A.U. after   10 cycles
 E2 =    -0.2551149996D+00 EUMP2 =    -0.55159566795140D+03
 CCSD(T)
 CCSD(T)= -0.55164139801D+03

 Unable to determine electronic state:  an orbital has unidentified symmetry.
 Alpha  occ. eigenvalues -- -118.61460 -12.32623  -9.57518  -9.57517  -9.57517
 Alpha  occ. eigenvalues --   -7.70039  -1.28181  -0.59837  -0.59519  -0.59501
 Alpha  occ. eigenvalues --   -0.53727  -0.30838
 Alpha virt. eigenvalues --    0.04352   0.04960   0.28544   0.33718   0.34079
 Alpha virt. eigenvalues --    0.36490   0.50699   0.50699   0.51425   0.53925
 Alpha virt. eigenvalues --    0.54040   0.58769   0.59178   0.60436   0.72039

 Mulliken charges and spin densities:
               1          2
     1  B   -0.004890   0.999954
     2  Ar   0.004890   0.000046
 Sum of Mulliken charges =  -0.00000   1.00000

 Dipole moment (field-independent basis, Debye):
    X=              0.0000    Y=              0.0000    Z=              0.1105  Tot=              0.1105
 Quadrupole moment (field-independent basis, Debye-Ang):
   XX=            -20.9573   YY=            -17.5969   ZZ=            -17.8046
   XY=              0.0000   XZ=              0.0000   YZ=              0.0000

 Normal termination of Gaussian 16 at Tue Feb 13 12:36:52 2024.
