 Gaussian 16, Revision A.03,
 Gaussian 16:  ES64L-G16RevA.03 25-Dec-2016

 --------------------
 #p ROCCSD(T)/cc-pVTZ
 --------------------

 -------
 B_Ar_99
 -------
 Symbolic Z-matrix:
 Charge =  0 Multiplicity = 2

                         Standard orientation:
 ---------------------------------------------------------------------
 Center     Atomic      Atomic             Coordinates (Angstroms)
 Number     Number       Type             X           Y           Z
 ---------------------------------------------------------------------
      1          5           0        0.000000    0.000000   -2.950435
      2         18           0        0.000000    0.000000    0.819565
 ---------------------------------------------------------------------

 SCF Done:  E(ROHF) =  -551.341017308     A.U. after   10 cycles
 E2 =    -0.2547015589D+00 EUMP2 =    -0.55159571886717D+03
 CCSD(T)
 CCSD(T)= -0.55164148963D+03

 Unable to determine electronic state:  an orbital has unidentified symmetry.
 Alpha  occ. eigenvalues -- -118.61340 -12.32504  -9.57398  -9.57397  -9.57397
 Alpha  occ. eigenvalues --   -7.70115  -1.28051  -0.59553  -0.59400  -0.59385
 Alpha  occ. eigenvalues --   -0.53894  -0.30886
 Alpha virt. eigenvalues --    0.04318   0.04689   0.28497   0.33672   0.34369
 Alpha virt. eigenvalues --    0.35283   0.50289   0.51617   0.52333   0.53901
 Alpha virt. eigenvalues --    0.53990   0.57661   0.58122   0.61706   0.71985

 Mulliken charges and spin densities:
               1          2
     1  B   -0.003117   0.999972
     2  Ar   0.003117   0.000028
 Sum of Mulliken charges =  -0.00000   1.00000

 Dipole moment (field-independent basis, Debye):
    X=              0.0000    Y=              0.0000    Z=              0.0704  Tot=              0.0704
 Quadrupole moment (field-independent basis, Debye-Ang):
   XX=            -20.9563   YY=            -17.5971   ZZ=            -17.6952
   XY=              0.0000   XZ=              0.0000   YZ=              0.0000

 9\CCSD(T)=-551.6414896\RMSD=2.292e-09\PG=C*V [C*(B1Ar1)]\\@
 Normal termination of Gaussian 16 at Tue Feb 13 12:38:00 2024.
