 Gaussian 16, Revision A.03,
 Gaussian 16:  ES64L-G16RevA.03 25-Dec-2016

 --------------------
 #p ROCCSD(T)/cc-pVTZ
 --------------------

 -------
 B_Ar_57
 -------
 Symbolic Z-matrix:
 Charge =  0 Multiplicity = 2

                         Standard orientation:
 ---------------------------------------------------------------------
 Center     Atomic      Atomic             Coordinates (Angstroms)
 Number     Number       Type             X           Y           Z
 ---------------------------------------------------------------------
      1          5           0        0.000000    0.000000   -1.964348
      2         18           0        0.000000    0.000000    0.545652
 ---------------------------------------------------------------------

 SCF Done:  E(ROHF) =  -551.325770768     A.U. after   10 cycles
 E2 =    -0.2611792027D+00 EUMP2 =    -0.55158694997120D+03
 CCSD(T)
 CCSD(T)= -0.55163216576D+03

 Unable to determine electronic state:  an orbital has unidentified symmetry.
 Alpha  occ. eigenvalues -- -118.63276 -12.34471  -9.59365  -9.59355  -9.59347
 Alpha  occ. eigenvalues --   -7.68669  -1.30326  -0.64776  -0.61443  -0.61367
 Alpha  occ. eigenvalues --   -0.50186  -0.29929
 Alpha virt. eigenvalues --    0.04993   0.08197   0.29439   0.32168   0.34586
 Alpha virt. eigenvalues --    0.36971   0.49303   0.49496   0.50249   0.53848
 Alpha virt. eigenvalues --    0.53875   0.57674   0.57752   0.68653   0.71366

 Mulliken charges and spin densities:
               1          2
     1  B   -0.054580   0.999218
     2  Ar   0.054580   0.000782
 Sum of Mulliken charges =  -0.00000   1.00000

 Dipole moment (field-independent basis, Debye):
    X=              0.0000    Y=              0.0000    Z=              0.9434  Tot=              0.9434
 Quadrupole moment (field-independent basis, Debye-Ang):
   XX=            -20.9379   YY=            -17.5693   ZZ=            -19.7361
   XY=              0.0000   XZ=              0.0000   YZ=              0.0000

 Normal termination of Gaussian 16 at Tue Feb 13 12:32:41 2024.
