 Gaussian 16, Revision A.03,
 Gaussian 16:  ES64L-G16RevA.03 25-Dec-2016

 --------------------
 #p ROCCSD(T)/cc-pVTZ
 --------------------

 ------
 B_Ar_8
 ------
 Symbolic Z-matrix:
 Charge =  0 Multiplicity = 2

                         Standard orientation:
 ---------------------------------------------------------------------
 Center     Atomic      Atomic             Coordinates (Angstroms)
 Number     Number       Type             X           Y           Z
 ---------------------------------------------------------------------
      1          5           0        0.000000    0.000000   -0.813913
      2         18           0        0.000000    0.000000    0.226087
 ---------------------------------------------------------------------

 SCF Done:  E(ROHF) =  -550.349797580     A.U. after   13 cycles
 E2 =    -0.2945797165D+00 EUMP2 =    -0.55064437729599D+03
 CCSD(T)
 CCSD(T)= -0.55067872474D+03

 Unable to determine electronic state:  an orbital has unidentified symmetry.
 Alpha  occ. eigenvalues -- -118.76215 -12.51572  -9.77078  -9.75566  -9.75547
 Alpha  occ. eigenvalues --   -7.63557  -1.60583  -0.94221  -0.89006  -0.85159
 Alpha  occ. eigenvalues --   -0.32343  -0.23902
 Alpha virt. eigenvalues --    0.12031   0.15743   0.20125   0.22029   0.33179
 Alpha virt. eigenvalues --    0.37822   0.41271   0.41467   0.52751   0.54344
 Alpha virt. eigenvalues --    0.66266   0.67985   0.70184   0.74584   0.80669

 Mulliken charges and spin densities:
               1          2
     1  B   -1.405523   0.660946
     2  Ar   1.405523   0.339054
 Sum of Mulliken charges =   0.00000   1.00000

 Dipole moment (field-independent basis, Debye):
    X=              0.0000    Y=              0.0000    Z=              5.4555  Tot=              5.4555
 Quadrupole moment (field-independent basis, Debye-Ang):
   XX=            -16.6809   YY=            -18.8372   ZZ=            -24.0109
   XY=              0.0000   XZ=              0.0000   YZ=              0.0000

 3\CCSD(T)=-550.6787247\RMSD=3.267e-09\PG=C*V [C*(B1Ar1)]\\@
 Normal termination of Gaussian 16 at Tue Feb 13 12:26:31 2024.
