 Gaussian 16, Revision A.03,
 Gaussian 16:  ES64L-G16RevA.03 25-Dec-2016

 --------------------
 #p ROCCSD(T)/cc-pVTZ
 --------------------

 -------
 B_Ar_67
 -------
 Symbolic Z-matrix:
 Charge =  0 Multiplicity = 2

                         Standard orientation:
 ---------------------------------------------------------------------
 Center     Atomic      Atomic             Coordinates (Angstroms)
 Number     Number       Type             X           Y           Z
 ---------------------------------------------------------------------
      1          5           0        0.000000    0.000000   -2.199130
      2         18           0        0.000000    0.000000    0.610870
 ---------------------------------------------------------------------

 SCF Done:  E(ROHF) =  -551.334630398     A.U. after   10 cycles
 E2 =    -0.2580324988D+00 EUMP2 =    -0.55159266289697D+03
 CCSD(T)
 CCSD(T)= -0.55163813178D+03

 Unable to determine electronic state:  an orbital has unidentified symmetry.
 Alpha  occ. eigenvalues -- -118.62255 -12.33433  -9.58328  -9.58323  -9.58320
 Alpha  occ. eigenvalues --   -7.69398  -1.29116  -0.62168  -0.60346  -0.60339
 Alpha  occ. eigenvalues --   -0.52075  -0.30427
 Alpha virt. eigenvalues --    0.04643   0.06576   0.29043   0.33037   0.34236
 Alpha virt. eigenvalues --    0.37459   0.49080   0.49902   0.52310   0.53982
 Alpha virt. eigenvalues --    0.54084   0.59262   0.59331   0.61976   0.71857

 Mulliken charges and spin densities:
               1          2
     1  B   -0.023320   0.999724
     2  Ar   0.023320   0.000276
 Sum of Mulliken charges =  -0.00000   1.00000

 Dipole moment (field-independent basis, Debye):
    X=              0.0000    Y=              0.0000    Z=              0.4708  Tot=              0.4708
 Quadrupole moment (field-independent basis, Debye-Ang):
   XX=            -20.9518   YY=            -17.5851   ZZ=            -18.7079
   XY=              0.0000   XZ=              0.0000   YZ=              0.0000

 49\CCSD(T)=-551.6381318\RMSD=9.121e-09\PG=C*V [C*(B1Ar1)]\\@
 Normal termination of Gaussian 16 at Tue Feb 13 12:33:57 2024.
