 Gaussian 16, Revision A.03,
 Gaussian 16:  ES64L-G16RevA.03 25-Dec-2016

 --------------------
 #p ROCCSD(T)/cc-pVTZ
 --------------------

 -------
 B_Ar_81
 -------
 Symbolic Z-matrix:
 Charge =  0 Multiplicity = 2

                         Standard orientation:
 ---------------------------------------------------------------------
 Center     Atomic      Atomic             Coordinates (Angstroms)
 Number     Number       Type             X           Y           Z
 ---------------------------------------------------------------------
      1          5           0        0.000000    0.000000   -2.527826
      2         18           0        0.000000    0.000000    0.702174
 ---------------------------------------------------------------------

 SCF Done:  E(ROHF) =  -551.339463068     A.U. after   10 cycles
 E2 =    -0.2558174179D+00 EUMP2 =    -0.55159528048544D+03
 CCSD(T)
 CCSD(T)= -0.55164094424D+03

 Unable to determine electronic state:  an orbital has unidentified symmetry.
 Alpha  occ. eigenvalues -- -118.61647 -12.32813  -9.57708  -9.57706  -9.57705
 Alpha  occ. eigenvalues --   -7.69896  -1.28396  -0.60365  -0.59711  -0.59693
 Alpha  occ. eigenvalues --   -0.53375  -0.30747
 Alpha virt. eigenvalues --    0.04416   0.05377   0.28664   0.33716   0.33845
 Alpha virt. eigenvalues --    0.37391   0.49838   0.50587   0.52211   0.53957
 Alpha virt. eigenvalues --    0.54197   0.58855   0.59574   0.59877   0.72237

 Mulliken charges and spin densities:
               1          2
     1  B   -0.008305   0.999916
     2  Ar   0.008305   0.000084
 Sum of Mulliken charges =  -0.00000   1.00000

 Dipole moment (field-independent basis, Debye):
    X=              0.0000    Y=              0.0000    Z=              0.1866  Tot=              0.1866
 Quadrupole moment (field-independent basis, Debye-Ang):
   XX=            -20.9577   YY=            -17.5953   ZZ=            -18.0103
   XY=              0.0000   XZ=              0.0000   YZ=              0.0000

 38\CCSD(T)=-551.6409442\RMSD=6.719e-09\PG=C*V [C*(B1Ar1)]\\@
 Normal termination of Gaussian 16 at Tue Feb 13 12:35:43 2024.
