 Gaussian 16, Revision A.03,
 Gaussian 16:  ES64L-G16RevA.03 25-Dec-2016

 --------------------
 #p ROCCSD(T)/cc-pVTZ
 --------------------

 -------
 B_Ar_91
 -------
 Symbolic Z-matrix:
 Charge =  0 Multiplicity = 2

                         Standard orientation:
 ---------------------------------------------------------------------
 Center     Atomic      Atomic             Coordinates (Angstroms)
 Number     Number       Type             X           Y           Z
 ---------------------------------------------------------------------
      1          5           0        0.000000    0.000000   -2.762609
      2         18           0        0.000000    0.000000    0.767391
 ---------------------------------------------------------------------

 SCF Done:  E(ROHF) =  -551.340626661     A.U. after   10 cycles
 E2 =    -0.2550576745D+00 EUMP2 =    -0.55159568433518D+03
 CCSD(T)
 CCSD(T)= -0.55164141994D+03

 Unable to determine electronic state:  an orbital has unidentified symmetry.
 Alpha  occ. eigenvalues -- -118.61444 -12.32607  -9.57502  -9.57501  -9.57501
 Alpha  occ. eigenvalues --   -7.70050  -1.28164  -0.59796  -0.59503  -0.59485
 Alpha  occ. eigenvalues --   -0.53752  -0.30845
 Alpha virt. eigenvalues --    0.04347   0.04923   0.28536   0.33710   0.34116
 Alpha virt. eigenvalues --    0.36360   0.50597   0.50802   0.51526   0.53922
 Alpha virt. eigenvalues --    0.54031   0.58652   0.59070   0.60609   0.72027

 Mulliken charges and spin densities:
               1          2
     1  B   -0.004637   0.999956
     2  Ar   0.004637   0.000044
 Sum of Mulliken charges =  -0.00000   1.00000

 Dipole moment (field-independent basis, Debye):
    X=              0.0000    Y=              0.0000    Z=              0.1047  Tot=              0.1047
 Quadrupole moment (field-independent basis, Debye-Ang):
   XX=            -17.5970   YY=            -20.9572   ZZ=            -17.7887
   XY=              0.0000   XZ=              0.0000   YZ=              0.0000

 94\CCSD(T)=-551.6414199\RMSD=3.528e-09\PG=C*V [C*(B1Ar1)]\\@
 Normal termination of Gaussian 16 at Tue Feb 13 12:36:59 2024.
