 Gaussian 16, Revision A.03,
 Gaussian 16:  ES64L-G16RevA.03 25-Dec-2016

 --------------------
 #p ROCCSD(T)/cc-pVTZ
 --------------------

 -------
 B_Ar_25
 -------
 Symbolic Z-matrix:
 Charge =  0 Multiplicity = 2

                         Standard orientation:
 ---------------------------------------------------------------------
 Center     Atomic      Atomic             Coordinates (Angstroms)
 Number     Number       Type             X           Y           Z
 ---------------------------------------------------------------------
      1          5           0        0.000000    0.000000   -1.213043
      2         18           0        0.000000    0.000000    0.336957
 ---------------------------------------------------------------------

 SCF Done:  E(ROHF) =  -551.181457123     A.U. after   11 cycles
 E2 =    -0.2817792886D+00 EUMP2 =    -0.55146323641137D+03
 CCSD(T)
 CCSD(T)= -0.55150549490D+03

 Unable to determine electronic state:  an orbital has unidentified symmetry.
 Alpha  occ. eigenvalues -- -118.75639 -12.47219  -9.72155  -9.72067  -9.71998
 Alpha  occ. eigenvalues --   -7.62874  -1.47593  -0.87352  -0.75761  -0.74165
 Alpha  occ. eigenvalues --   -0.36849  -0.25776
 Alpha virt. eigenvalues --    0.07988   0.16026   0.27306   0.30131   0.30419
 Alpha virt. eigenvalues --    0.34657   0.46753   0.46828   0.48994   0.49938
 Alpha virt. eigenvalues --    0.51208   0.57390   0.59164   0.72271   0.72275

 Mulliken charges and spin densities:
               1          2
     1  B   -0.655576   0.956285
     2  Ar   0.655576   0.043715
 Sum of Mulliken charges =  -0.00000   1.00000

 Dipole moment (field-independent basis, Debye):
    X=              0.0000    Y=              0.0000    Z=              5.3821  Tot=              5.3821
 Quadrupole moment (field-independent basis, Debye-Ang):
   XX=            -20.6430   YY=            -17.5202   ZZ=            -26.1715
   XY=              0.0000   XZ=              0.0000   YZ=              0.0000

 62\CCSD(T)=-551.5054949\RMSD=8.544e-09\PG=C*V [C*(B1Ar1)]\\@
 Normal termination of Gaussian 16 at Tue Feb 13 12:28:39 2024.
