 Gaussian 16, Revision A.03,
 Gaussian 16:  ES64L-G16RevA.03 25-Dec-2016

 --------------------
 #p ROCCSD(T)/cc-pVTZ
 --------------------

 -------
 B_Ar_77
 -------
 Symbolic Z-matrix:
 Charge =  0 Multiplicity = 2

                         Standard orientation:
 ---------------------------------------------------------------------
 Center     Atomic      Atomic             Coordinates (Angstroms)
 Number     Number       Type             X           Y           Z
 ---------------------------------------------------------------------
      1          5           0        0.000000    0.000000   -2.433913
      2         18           0        0.000000    0.000000    0.676087
 ---------------------------------------------------------------------

 SCF Done:  E(ROHF) =  -551.338609911     A.U. after   10 cycles
 E2 =    -0.2562738295D+00 EUMP2 =    -0.55159488374042D+03
 CCSD(T)
 CCSD(T)= -0.55164050573D+03

 Unable to determine electronic state:  an orbital has unidentified symmetry.
 Alpha  occ. eigenvalues -- -118.61767 -12.32935  -9.57830  -9.57828  -9.57827
 Alpha  occ. eigenvalues --   -7.69797  -1.28537  -0.60727  -0.59836  -0.59821
 Alpha  occ. eigenvalues --   -0.53120  -0.30685
 Alpha virt. eigenvalues --    0.04460   0.05634   0.28747   0.33541   0.33934
 Alpha virt. eigenvalues --    0.37576   0.49525   0.50288   0.52876   0.53971
 Alpha virt. eigenvalues --    0.54335   0.58562   0.59710   0.59950   0.72177

 Mulliken charges and spin densities:
               1          2
     1  B   -0.010867   0.999885
     2  Ar   0.010867   0.000115
 Sum of Mulliken charges =  -0.00000   1.00000

 Dipole moment (field-independent basis, Debye):
    X=              0.0000    Y=              0.0000    Z=              0.2404  Tot=              0.2404
 Quadrupole moment (field-independent basis, Debye-Ang):
   XX=            -20.9571   YY=            -17.5937   ZZ=            -18.1501
   XY=              0.0000   XZ=              0.0000   YZ=              0.0000

 13\CCSD(T)=-551.6405057\RMSD=8.030e-09\PG=C*V [C*(B1Ar1)]\\@
 Normal termination of Gaussian 16 at Tue Feb 13 12:35:13 2024.
