 Gaussian 16, Revision A.03,
 Gaussian 16:  ES64L-G16RevA.03 25-Dec-2016

 --------------------
 #p ROCCSD(T)/cc-pVTZ
 --------------------

 -------
 B_Ar_26
 -------
 Symbolic Z-matrix:
 Charge =  0 Multiplicity = 2

                         Standard orientation:
 ---------------------------------------------------------------------
 Center     Atomic      Atomic             Coordinates (Angstroms)
 Number     Number       Type             X           Y           Z
 ---------------------------------------------------------------------
      1          5           0        0.000000    0.000000   -1.236522
      2         18           0        0.000000    0.000000    0.343478
 ---------------------------------------------------------------------

 SCF Done:  E(ROHF) =  -551.193591334     A.U. after   11 cycles
 E2 =    -0.2811373787D+00 EUMP2 =    -0.55147472871268D+03
 CCSD(T)
 CCSD(T)= -0.55151723809D+03

 Unable to determine electronic state:  an orbital has unidentified symmetry.
 Alpha  occ. eigenvalues -- -118.75207 -12.46729  -9.71661  -9.71582  -9.71514
 Alpha  occ. eigenvalues --   -7.63137  -1.46669  -0.86431  -0.75063  -0.73573
 Alpha  occ. eigenvalues --   -0.37284  -0.25926
 Alpha virt. eigenvalues --    0.07852   0.16102   0.27631   0.29744   0.30842
 Alpha virt. eigenvalues --    0.34822   0.47087   0.47253   0.48406   0.49938
 Alpha virt. eigenvalues --    0.51181   0.56948   0.58640   0.71991   0.71995

 Mulliken charges and spin densities:
               1          2
     1  B   -0.616320   0.961540
     2  Ar   0.616320   0.038460
 Sum of Mulliken charges =  -0.00000   1.00000

 Dipole moment (field-independent basis, Debye):
    X=              0.0000    Y=              0.0000    Z=              5.2522  Tot=              5.2522
 Quadrupole moment (field-independent basis, Debye-Ang):
   XX=            -20.6807   YY=            -17.5288   ZZ=            -26.0948
   XY=              0.0000   XZ=              0.0000   YZ=              0.0000

 49\CCSD(T)=-551.5172381\RMSD=5.801e-09\PG=C*V [C*(B1Ar1)]\\@
 Normal termination of Gaussian 16 at Tue Feb 13 12:28:46 2024.
