 Gaussian 16, Revision A.03,
 Gaussian 16:  ES64L-G16RevA.03 25-Dec-2016

 --------------------
 #p ROCCSD(T)/cc-pVTZ
 --------------------

 -------
 B_Ar_58
 -------
 Symbolic Z-matrix:
 Charge =  0 Multiplicity = 2

                         Standard orientation:
 ---------------------------------------------------------------------
 Center     Atomic      Atomic             Coordinates (Angstroms)
 Number     Number       Type             X           Y           Z
 ---------------------------------------------------------------------
      1          5           0        0.000000    0.000000   -1.987826
      2         18           0        0.000000    0.000000    0.552174
 ---------------------------------------------------------------------

 SCF Done:  E(ROHF) =  -551.326988424     A.U. after   10 cycles
 E2 =    -0.2607808181D+00 EUMP2 =    -0.55158776924227D+03
 CCSD(T)
 CCSD(T)= -0.55163301615D+03

 Unable to determine electronic state:  an orbital has unidentified symmetry.
 Alpha  occ. eigenvalues -- -118.63135 -12.34328  -9.59222  -9.59213  -9.59206
 Alpha  occ. eigenvalues --   -7.68761  -1.30160  -0.64446  -0.61293  -0.61227
 Alpha  occ. eigenvalues --   -0.50423  -0.29994
 Alpha virt. eigenvalues --    0.04947   0.07992   0.29397   0.32289   0.34553
 Alpha virt. eigenvalues --    0.37011   0.49247   0.49805   0.50176   0.53875
 Alpha virt. eigenvalues --    0.53904   0.57878   0.57943   0.67966   0.71423

 Mulliken charges and spin densities:
               1          2
     1  B   -0.050045   0.999300
     2  Ar   0.050045   0.000700
 Sum of Mulliken charges =  -0.00000   1.00000

 Dipole moment (field-independent basis, Debye):
    X=              0.0000    Y=              0.0000    Z=              0.8801  Tot=              0.8801
 Quadrupole moment (field-independent basis, Debye-Ang):
   XX=            -20.9397   YY=            -17.5711   ZZ=            -19.6048
   XY=              0.0000   XZ=              0.0000   YZ=              0.0000

 3\CCSD(T)=-551.6330162\RMSD=9.255e-09\PG=C*V [C*(B1Ar1)]\\@
 Normal termination of Gaussian 16 at Tue Feb 13 12:32:49 2024.
