 Gaussian 16, Revision A.03,
 Gaussian 16:  ES64L-G16RevA.03 25-Dec-2016

 --------------------
 #p ROCCSD(T)/cc-pVTZ
 --------------------

 -------
 B_Ar_16
 -------
 Symbolic Z-matrix:
 Charge =  0 Multiplicity = 2

                         Standard orientation:
 ---------------------------------------------------------------------
 Center     Atomic      Atomic             Coordinates (Angstroms)
 Number     Number       Type             X           Y           Z
 ---------------------------------------------------------------------
      1          5           0        0.000000    0.000000   -1.001739
      2         18           0        0.000000    0.000000    0.278261
 ---------------------------------------------------------------------

 SCF Done:  E(ROHF) =  -550.965865387     A.U. after   12 cycles
 E2 =    -0.2883251494D+00 EUMP2 =    -0.55125419053666D+03
 CCSD(T)
 CCSD(T)= -0.55129285313D+03

 Unable to determine electronic state:  an orbital has unidentified symmetry.
 Alpha  occ. eigenvalues -- -118.77636 -12.50280  -9.75314  -9.74969  -9.74908
 Alpha  occ. eigenvalues --   -7.60877  -1.56003  -0.93924  -0.82203  -0.79438
 Alpha  occ. eigenvalues --   -0.33845  -0.24546
 Alpha virt. eigenvalues --    0.09584   0.15550   0.23670   0.26131   0.32693
 Alpha virt. eigenvalues --    0.34741   0.43337   0.43384   0.50957   0.52404
 Alpha virt. eigenvalues --    0.57390   0.62457   0.64688   0.75918   0.75954

 Mulliken charges and spin densities:
               1          2
     1  B   -1.045844   0.866481
     2  Ar   1.045844   0.133519
 Sum of Mulliken charges =   0.00000   1.00000

 Dipole moment (field-independent basis, Debye):
    X=              0.0000    Y=              0.0000    Z=              5.9255  Tot=              5.9255
 Quadrupole moment (field-independent basis, Debye-Ang):
   XX=            -17.2960   YY=            -20.0145   ZZ=            -25.6709
   XY=              0.0000   XZ=              0.0000   YZ=              0.0000

 56\CCSD(T)=-551.2928531\RMSD=2.285e-09\PG=C*V [C*(B1Ar1)]\\@
 Normal termination of Gaussian 16 at Tue Feb 13 12:27:31 2024.
