 Gaussian 16, Revision A.03,
 Gaussian 16:  ES64L-G16RevA.03 25-Dec-2016

 --------------------
 #p ROCCSD(T)/cc-pVTZ
 --------------------

 -------
 B_Ar_20
 -------
 Symbolic Z-matrix:
 Charge =  0 Multiplicity = 2

                         Standard orientation:
 ---------------------------------------------------------------------
 Center     Atomic      Atomic             Coordinates (Angstroms)
 Number     Number       Type             X           Y           Z
 ---------------------------------------------------------------------
      1          5           0        0.000000    0.000000   -1.095652
      2         18           0        0.000000    0.000000    0.304348
 ---------------------------------------------------------------------

 SCF Done:  E(ROHF) =  -551.093058209     A.U. after   12 cycles
 E2 =    -0.2851779771D+00 EUMP2 =    -0.55137823618567D+03
 CCSD(T)
 CCSD(T)= -0.55141880446D+03

 Unable to determine electronic state:  an orbital has unidentified symmetry.
 Alpha  occ. eigenvalues -- -118.77226 -12.49242  -9.74214  -9.74039  -9.73968
 Alpha  occ. eigenvalues --   -7.61600  -1.52322  -0.91507  -0.79292  -0.77088
 Alpha  occ. eigenvalues --   -0.34972  -0.25066
 Alpha virt. eigenvalues --    0.08767   0.15658   0.25408   0.28108   0.31882
 Alpha virt. eigenvalues --    0.34269   0.44772   0.44787   0.50298   0.51683
 Alpha virt. eigenvalues --    0.53188   0.59985   0.62082   0.74063   0.74064

 Mulliken charges and spin densities:
               1          2
     1  B   -0.868343   0.918037
     2  Ar   0.868343   0.081963
 Sum of Mulliken charges =  -0.00000   1.00000

 Dipole moment (field-independent basis, Debye):
    X=              0.0000    Y=              0.0000    Z=              5.8310  Tot=              5.8310
 Quadrupole moment (field-independent basis, Debye-Ang):
   XX=            -17.4366   YY=            -20.3677   ZZ=            -26.1470
   XY=              0.0000   XZ=              0.0000   YZ=              0.0000

 5\CCSD(T)=-551.4188045\RMSD=1.981e-09\PG=C*V [C*(B1Ar1)]\\@
 Normal termination of Gaussian 16 at Tue Feb 13 12:28:01 2024.
