 Gaussian 16, Revision A.03,
 Gaussian 16:  ES64L-G16RevA.03 25-Dec-2016

 --------------------
 #p ROCCSD(T)/cc-pVTZ
 --------------------

 -------
 B_Ar_39
 -------
 Symbolic Z-matrix:
 Charge =  0 Multiplicity = 2

                         Standard orientation:
 ---------------------------------------------------------------------
 Center     Atomic      Atomic             Coordinates (Angstroms)
 Number     Number       Type             X           Y           Z
 ---------------------------------------------------------------------
      1          5           0        0.000000    0.000000   -1.541739
      2         18           0        0.000000    0.000000    0.428261
 ---------------------------------------------------------------------

 SCF Done:  E(ROHF) =  -551.281586153     A.U. after   11 cycles
 E2 =    -0.2720499680D+00 EUMP2 =    -0.55155363612131D+03
 CCSD(T)
 CCSD(T)= -0.55159792130D+03

 Unable to determine electronic state:  an orbital has unidentified symmetry.
 Alpha  occ. eigenvalues -- -118.68520 -12.39764  -9.64664  -9.64632  -9.64596
 Alpha  occ. eigenvalues --   -7.66115  -1.36618  -0.74626  -0.66972  -0.66430
 Alpha  occ. eigenvalues --   -0.43682  -0.27978
 Alpha virt. eigenvalues --    0.06332   0.13906   0.28408   0.29793   0.34307
 Alpha virt. eigenvalues --    0.36983   0.44744   0.50937   0.51864   0.51899
 Alpha virt. eigenvalues --    0.52395   0.54082   0.54132   0.70453   0.70454

 Mulliken charges and spin densities:
               1          2
     1  B   -0.247183   0.992958
     2  Ar   0.247183   0.007042
 Sum of Mulliken charges =  -0.00000   1.00000

 Dipole moment (field-independent basis, Debye):
    X=              0.0000    Y=              0.0000    Z=              3.0265  Tot=              3.0265
 Quadrupole moment (field-independent basis, Debye-Ang):
   XX=            -17.5475   YY=            -20.8853   ZZ=            -23.4153
   XY=              0.0000   XZ=              0.0000   YZ=              0.0000

 65\CCSD(T)=-551.5979213\RMSD=4.059e-09\PG=C*V [C*(B1Ar1)]\\@
 Normal termination of Gaussian 16 at Tue Feb 13 12:30:25 2024.
