 Gaussian 16, Revision A.03,
 Gaussian 16:  ES64L-G16RevA.03 25-Dec-2016

 --------------------
 #p ROCCSD(T)/cc-pVTZ
 --------------------

 -------
 B_Ar_23
 -------
 Symbolic Z-matrix:
 Charge =  0 Multiplicity = 2

                         Standard orientation:
 ---------------------------------------------------------------------
 Center     Atomic      Atomic             Coordinates (Angstroms)
 Number     Number       Type             X           Y           Z
 ---------------------------------------------------------------------
      1          5           0        0.000000    0.000000   -1.166087
      2         18           0        0.000000    0.000000    0.323913
 ---------------------------------------------------------------------

 SCF Done:  E(ROHF) =  -551.152519526     A.U. after   12 cycles
 E2 =    -0.2830866088D+00 EUMP2 =    -0.55143560613473D+03
 CCSD(T)
 CCSD(T)= -0.55147728022D+03

 Unable to determine electronic state:  an orbital has unidentified symmetry.
 Alpha  occ. eigenvalues -- -118.76400 -12.48119  -9.73067  -9.72954  -9.72882
 Alpha  occ. eigenvalues --   -7.62348  -1.49471  -0.89122  -0.77166  -0.75342
 Alpha  occ. eigenvalues --   -0.36036  -0.25484
 Alpha virt. eigenvalues --    0.08277   0.15863   0.26596   0.29527   0.30893
 Alpha virt. eigenvalues --    0.34402   0.45966   0.45984   0.50011   0.50482
 Alpha virt. eigenvalues --    0.51333   0.58354   0.60275   0.72910   0.72913

 Mulliken charges and spin densities:
               1          2
     1  B   -0.737987   0.943652
     2  Ar   0.737987   0.056348
 Sum of Mulliken charges =  -0.00000   1.00000

 Dipole moment (field-independent basis, Debye):
    X=              0.0000    Y=              0.0000    Z=              5.6038  Tot=              5.6038
 Quadrupole moment (field-independent basis, Debye-Ang):
   XX=            -17.4960   YY=            -20.5516   ZZ=            -26.2436
   XY=              0.0000   XZ=              0.0000   YZ=              0.0000

 3\CCSD(T)=-551.4772802\RMSD=1.809e-09\PG=C*V [C*(B1Ar1)]\\@
 Normal termination of Gaussian 16 at Tue Feb 13 12:28:24 2024.
