 Gaussian 16, Revision A.03,
 Gaussian 16:  ES64L-G16RevA.03 25-Dec-2016

 --------------------
 #p ROCCSD(T)/cc-pVTZ
 --------------------

 -------
 B_Ar_38
 -------
 Symbolic Z-matrix:
 Charge =  0 Multiplicity = 2

                         Standard orientation:
 ---------------------------------------------------------------------
 Center     Atomic      Atomic             Coordinates (Angstroms)
 Number     Number       Type             X           Y           Z
 ---------------------------------------------------------------------
      1          5           0        0.000000    0.000000   -1.518261
      2         18           0        0.000000    0.000000    0.421739
 ---------------------------------------------------------------------

 SCF Done:  E(ROHF) =  -551.277373341     A.U. after   11 cycles
 E2 =    -0.2727988816D+00 EUMP2 =    -0.55155017222241D+03
 CCSD(T)
 CCSD(T)= -0.55159437513D+03

 Unable to determine electronic state:  an orbital has unidentified symmetry.
 Alpha  occ. eigenvalues -- -118.68998 -12.40248  -9.65149  -9.65115  -9.65077
 Alpha  occ. eigenvalues --   -7.65921  -1.37221  -0.75428  -0.67484  -0.66893
 Alpha  occ. eigenvalues --   -0.43199  -0.27826
 Alpha virt. eigenvalues --    0.06436   0.14283   0.28222   0.29745   0.34181
 Alpha virt. eigenvalues --    0.36922   0.44679   0.50934   0.51613   0.51650
 Alpha virt. eigenvalues --    0.52318   0.54047   0.54253   0.70458   0.70460

 Mulliken charges and spin densities:
               1          2
     1  B   -0.266956   0.991979
     2  Ar   0.266956   0.008021
 Sum of Mulliken charges =   0.00000   1.00000

 Dipole moment (field-independent basis, Debye):
    X=              0.0000    Y=              0.0000    Z=              3.1985  Tot=              3.1985
 Quadrupole moment (field-independent basis, Debye-Ang):
   XX=            -20.8798   YY=            -17.5478   ZZ=            -23.6744
   XY=              0.0000   XZ=              0.0000   YZ=              0.0000

 66\CCSD(T)=-551.5943751\RMSD=4.330e-09\PG=C*V [C*(B1Ar1)]\\@
 Normal termination of Gaussian 16 at Tue Feb 13 12:30:17 2024.
