 Gaussian 16, Revision A.03,
 Gaussian 16:  ES64L-G16RevA.03 25-Dec-2016

 --------------------
 #p ROCCSD(T)/cc-pVTZ
 --------------------

 -------
 B_Ar_96
 -------
 Symbolic Z-matrix:
 Charge =  0 Multiplicity = 2

                         Standard orientation:
 ---------------------------------------------------------------------
 Center     Atomic      Atomic             Coordinates (Angstroms)
 Number     Number       Type             X           Y           Z
 ---------------------------------------------------------------------
      1          5           0        0.000000    0.000000   -2.880000
      2         18           0        0.000000    0.000000    0.800000
 ---------------------------------------------------------------------

 SCF Done:  E(ROHF) =  -551.340905155     A.U. after   10 cycles
 E2 =    -0.2548162978D+00 EUMP2 =    -0.55159572145266D+03
 CCSD(T)
 CCSD(T)= -0.55164148073D+03

 Unable to determine electronic state:  an orbital has unidentified symmetry.
 Alpha  occ. eigenvalues -- -118.61375 -12.32538  -9.57432  -9.57432  -9.57432
 Alpha  occ. eigenvalues --   -7.70095  -1.28088  -0.59629  -0.59435  -0.59418
 Alpha  occ. eigenvalues --   -0.53852  -0.30873
 Alpha virt. eigenvalues --    0.04327   0.04767   0.28507   0.33680   0.34285
 Alpha virt. eigenvalues --    0.35681   0.50307   0.51316   0.52033   0.53908
 Alpha virt. eigenvalues --    0.54001   0.58036   0.58486   0.61362   0.71990

 Mulliken charges and spin densities:
               1          2
     1  B   -0.003598   0.999967
     2  Ar   0.003598   0.000033
 Sum of Mulliken charges =   0.00000   1.00000

 Dipole moment (field-independent basis, Debye):
    X=              0.0000    Y=              0.0000    Z=              0.0812  Tot=              0.0812
 Quadrupole moment (field-independent basis, Debye-Ang):
   XX=            -17.5971   YY=            -20.9567   ZZ=            -17.7241
   XY=              0.0000   XZ=              0.0000   YZ=              0.0000

 69\CCSD(T)=-551.6414807\RMSD=2.640e-09\PG=C*V [C*(B1Ar1)]\\@
 Normal termination of Gaussian 16 at Tue Feb 13 12:37:37 2024.
