 Gaussian 16, Revision A.03,
 Gaussian 16:  ES64L-G16RevA.03 25-Dec-2016

 --------------------
 #p ROCCSD(T)/cc-pVTZ
 --------------------

 -------
 B_Ar_42
 -------
 Symbolic Z-matrix:
 Charge =  0 Multiplicity = 2

                         Standard orientation:
 ---------------------------------------------------------------------
 Center     Atomic      Atomic             Coordinates (Angstroms)
 Number     Number       Type             X           Y           Z
 ---------------------------------------------------------------------
      1          5           0        0.000000    0.000000   -1.612174
      2         18           0        0.000000    0.000000    0.447826
 ---------------------------------------------------------------------

 SCF Done:  E(ROHF) =  -551.292797266     A.U. after   11 cycles
 E2 =    -0.2698331352D+00 EUMP2 =    -0.55156263040108D+03
 CCSD(T)
 CCSD(T)= -0.55160713651D+03

 Unable to determine electronic state:  an orbital has unidentified symmetry.
 Alpha  occ. eigenvalues -- -118.67206 -12.38436  -9.63333  -9.63307  -9.63278
 Alpha  occ. eigenvalues --   -7.66664  -1.34996  -0.72388  -0.65579  -0.65164
 Alpha  occ. eigenvalues --   -0.45067  -0.28411
 Alpha virt. eigenvalues --    0.06037   0.12742   0.29086   0.29861   0.34573
 Alpha virt. eigenvalues --    0.37042   0.45183   0.50771   0.52251   0.52500
 Alpha virt. eigenvalues --    0.52531   0.54269   0.54453   0.70506   0.70506

 Mulliken charges and spin densities:
               1          2
     1  B   -0.195026   0.995218
     2  Ar   0.195026   0.004782
 Sum of Mulliken charges =  -0.00000   1.00000

 Dipole moment (field-independent basis, Debye):
    X=              0.0000    Y=              0.0000    Z=              2.5414  Tot=              2.5414
 Quadrupole moment (field-independent basis, Debye-Ang):
   XX=            -17.5477   YY=            -20.8985   ZZ=            -22.6501
   XY=              0.0000   XZ=              0.0000   YZ=              0.0000

 66\CCSD(T)=-551.6071365\RMSD=3.219e-09\PG=C*V [C*(B1Ar1)]\\@
 Normal termination of Gaussian 16 at Tue Feb 13 12:30:48 2024.
