 Gaussian 16, Revision A.03,
 Gaussian 16:  ES64L-G16RevA.03 25-Dec-2016

 --------------------
 #p ROCCSD(T)/cc-pVTZ
 --------------------

 ------
 B_Ar_9
 ------
 Symbolic Z-matrix:
 Charge =  0 Multiplicity = 2

                         Standard orientation:
 ---------------------------------------------------------------------
 Center     Atomic      Atomic             Coordinates (Angstroms)
 Number     Number       Type             X           Y           Z
 ---------------------------------------------------------------------
      1          5           0        0.000000    0.000000   -0.837391
      2         18           0        0.000000    0.000000    0.232609
 ---------------------------------------------------------------------

 SCF Done:  E(ROHF) =  -550.470225589     A.U. after   13 cycles
 E2 =    -0.2939772195D+00 EUMP2 =    -0.55076420280884D+03
 CCSD(T)
 CCSD(T)= -0.55079901920D+03

 Unable to determine electronic state:  an orbital has unidentified symmetry.
 Alpha  occ. eigenvalues -- -118.76474 -12.51342  -9.76736  -9.75471  -9.75468
 Alpha  occ. eigenvalues --   -7.62563  -1.60411  -0.94654  -0.88013  -0.84279
 Alpha  occ. eigenvalues --   -0.32494  -0.23919
 Alpha virt. eigenvalues --    0.11664   0.15711   0.20546   0.22555   0.33158
 Alpha virt. eigenvalues --    0.37283   0.41479   0.41636   0.52516   0.54087
 Alpha virt. eigenvalues --    0.65232   0.67277   0.69487   0.74658   0.80044

 Mulliken charges and spin densities:
               1          2
     1  B   -1.357499   0.697047
     2  Ar   1.357499   0.302953
 Sum of Mulliken charges =  -0.00000   1.00000

 Dipole moment (field-independent basis, Debye):
    X=              0.0000    Y=              0.0000    Z=              5.5541  Tot=              5.5541
 Quadrupole moment (field-independent basis, Debye-Ang):
   XX=            -16.7881   YY=            -19.0195   ZZ=            -24.2335
   XY=              0.0000   XZ=              0.0000   YZ=              0.0000

 CCSD(T)=-550.7990192\RMSD=3.115e-09\PG=C*V [C*(B1Ar1)]\\@
 Normal termination of Gaussian 16 at Tue Feb 13 12:26:38 2024.
