 Gaussian 16, Revision A.03,
 Gaussian 16:  ES64L-G16RevA.03 25-Dec-2016

 --------------------
 #p ROCCSD(T)/cc-pVTZ
 --------------------

 -------
 B_Ar_51
 -------
 Symbolic Z-matrix:
 Charge =  0 Multiplicity = 2

                         Standard orientation:
 ---------------------------------------------------------------------
 Center     Atomic      Atomic             Coordinates (Angstroms)
 Number     Number       Type             X           Y           Z
 ---------------------------------------------------------------------
      1          5           0        0.000000    0.000000   -1.823478
      2         18           0        0.000000    0.000000    0.506522
 ---------------------------------------------------------------------

 SCF Done:  E(ROHF) =  -551.316314112     A.U. after   11 cycles
 E2 =    -0.2640367758D+00 EUMP2 =    -0.55158035088817D+03
 CCSD(T)
 CCSD(T)= -0.55162534474D+03

 Unable to determine electronic state:  an orbital has unidentified symmetry.
 Alpha  occ. eigenvalues -- -118.64383 -12.35591  -9.60485  -9.60470  -9.60456
 Alpha  occ. eigenvalues --   -7.68012  -1.31631  -0.67173  -0.62616  -0.62452
 Alpha  occ. eigenvalues --   -0.48506  -0.29452
 Alpha virt. eigenvalues --    0.05324   0.09670   0.29679   0.31197   0.34733
 Alpha virt. eigenvalues --    0.36865   0.47630   0.49788   0.50878   0.53570
 Alpha virt. eigenvalues --    0.53595   0.56317   0.56462   0.70990   0.70994

 Mulliken charges and spin densities:
               1          2
     1  B   -0.091804   0.998434
     2  Ar   0.091804   0.001566
 Sum of Mulliken charges =  -0.00000   1.00000

 Dipole moment (field-independent basis, Debye):
    X=              0.0000    Y=              0.0000    Z=              1.4234  Tot=              1.4234
 Quadrupole moment (field-independent basis, Debye-Ang):
   XX=            -20.9249   YY=            -17.5582   ZZ=            -20.6850
   XY=              0.0000   XZ=              0.0000   YZ=              0.0000

 7\CCSD(T)=-551.6253447\RMSD=1.318e-09\PG=C*V [C*(B1Ar1)]\\@
 Normal termination of Gaussian 16 at Tue Feb 13 12:31:56 2024.
