 Gaussian 16, Revision A.03,
 Gaussian 16:  ES64L-G16RevA.03 25-Dec-2016

 --------------------
 #p ROCCSD(T)/cc-pVTZ
 --------------------

 -------
 B_Ar_65
 -------
 Symbolic Z-matrix:
 Charge =  0 Multiplicity = 2

                         Standard orientation:
 ---------------------------------------------------------------------
 Center     Atomic      Atomic             Coordinates (Angstroms)
 Number     Number       Type             X           Y           Z
 ---------------------------------------------------------------------
      1          5           0        0.000000    0.000000   -2.152174
      2         18           0        0.000000    0.000000    0.597826
 ---------------------------------------------------------------------

 SCF Done:  E(ROHF) =  -551.333362522     A.U. after   10 cycles
 E2 =    -0.2585275664D+00 EUMP2 =    -0.55159189008825D+03
 CCSD(T)
 CCSD(T)= -0.55163731768D+03

 Unable to determine electronic state:  an orbital has unidentified symmetry.
 Alpha  occ. eigenvalues -- -118.62402 -12.33583  -9.58478  -9.58472  -9.58468
 Alpha  occ. eigenvalues --   -7.69283  -1.29292  -0.62578  -0.60505  -0.60490
 Alpha  occ. eigenvalues --   -0.51775  -0.30351
 Alpha virt. eigenvalues --    0.04696   0.06834   0.29116   0.32910   0.34306
 Alpha virt. eigenvalues --    0.37365   0.49066   0.49905   0.51826   0.53973
 Alpha virt. eigenvalues --    0.54041   0.59038   0.59074   0.63204   0.71773

 Mulliken charges and spin densities:
               1          2
     1  B   -0.027518   0.999664
     2  Ar   0.027518   0.000336
 Sum of Mulliken charges =  -0.00000   1.00000

 Dipole moment (field-independent basis, Debye):
    X=              0.0000    Y=              0.0000    Z=              0.5407  Tot=              0.5407
 Quadrupole moment (field-independent basis, Debye-Ang):
   XX=            -17.5825   YY=            -20.9498   ZZ=            -18.8680
   XY=              0.0000   XZ=              0.0000   YZ=              0.0000

 72\CCSD(T)=-551.6373177\RMSD=9.483e-09\PG=C*V [C*(B1Ar1)]\\@
 Normal termination of Gaussian 16 at Tue Feb 13 12:33:42 2024.
