 Gaussian 16, Revision A.03,
 Gaussian 16:  ES64L-G16RevA.03 25-Dec-2016

 --------------------
 #p ROCCSD(T)/cc-pVTZ
 --------------------

 ------
 B_Ar_7
 ------
 Symbolic Z-matrix:
 Charge =  0 Multiplicity = 2

                         Standard orientation:
 ---------------------------------------------------------------------
 Center     Atomic      Atomic             Coordinates (Angstroms)
 Number     Number       Type             X           Y           Z
 ---------------------------------------------------------------------
      1          5           0        0.000000    0.000000   -0.790435
      2         18           0        0.000000    0.000000    0.219565
 ---------------------------------------------------------------------

 SCF Done:  E(ROHF) =  -550.210874792     A.U. after   13 cycles
 E2 =    -0.2950735654D+00 EUMP2 =    -0.55050594835784D+03
 CCSD(T)
 CCSD(T)= -0.55053988130D+03

 Unable to determine electronic state:  an orbital has unidentified symmetry.
 Alpha  occ. eigenvalues -- -118.75990 -12.51890  -9.77534  -9.75723  -9.75685
 Alpha  occ. eigenvalues --   -7.64903  -1.60586  -0.93606  -0.90070  -0.86124
 Alpha  occ. eigenvalues --   -0.32198  -0.23917
 Alpha virt. eigenvalues --    0.12411   0.15769   0.19717   0.21496   0.33193
 Alpha virt. eigenvalues --    0.38402   0.41069   0.41324   0.52987   0.54602
 Alpha virt. eigenvalues --    0.67220   0.68692   0.70884   0.74657   0.81290

 Mulliken charges and spin densities:
               1          2
     1  B   -1.455859   0.621165
     2  Ar   1.455859   0.378835
 Sum of Mulliken charges =  -0.00000   1.00000

 Dipole moment (field-independent basis, Debye):
    X=              0.0000    Y=              0.0000    Z=              5.3491  Tot=              5.3491
 Quadrupole moment (field-independent basis, Debye-Ang):
   XX=            -18.6471   YY=            -16.5643   ZZ=            -23.7951
   XY=              0.0000   XZ=              0.0000   YZ=              0.0000

 3\CCSD(T)=-550.5398813\RMSD=2.903e-09\PG=C*V [C*(B1Ar1)]\\@
 Normal termination of Gaussian 16 at Tue Feb 13 12:26:23 2024.
