 Gaussian 16, Revision A.03,
 Gaussian 16:  ES64L-G16RevA.03 25-Dec-2016

 --------------------
 #p ROCCSD(T)/cc-pVTZ
 --------------------

 -------
 B_Ar_79
 -------
 Symbolic Z-matrix:
 Charge =  0 Multiplicity = 2

                         Standard orientation:
 ---------------------------------------------------------------------
 Center     Atomic      Atomic             Coordinates (Angstroms)
 Number     Number       Type             X           Y           Z
 ---------------------------------------------------------------------
      1          5           0        0.000000    0.000000   -2.480870
      2         18           0        0.000000    0.000000    0.689130
 ---------------------------------------------------------------------

 SCF Done:  E(ROHF) =  -551.339074053     A.U. after   10 cycles
 E2 =    -0.2560319103D+00 EUMP2 =    -0.55159510596349D+03
 CCSD(T)
 CCSD(T)= -0.55164074997D+03

 Unable to determine electronic state:  an orbital has unidentified symmetry.
 Alpha  occ. eigenvalues -- -118.61703 -12.32870  -9.57765  -9.57763  -9.57762
 Alpha  occ. eigenvalues --   -7.69850  -1.28462  -0.60534  -0.59770  -0.59753
 Alpha  occ. eigenvalues --   -0.53257  -0.30718
 Alpha virt. eigenvalues --    0.04436   0.05499   0.28703   0.33630   0.33887
 Alpha virt. eigenvalues --    0.37502   0.49674   0.50430   0.52583   0.53964
 Alpha virt. eigenvalues --    0.54266   0.58630   0.59663   0.59935   0.72221

 Mulliken charges and spin densities:
               1          2
     1  B   -0.009474   0.999902
     2  Ar   0.009474   0.000098
 Sum of Mulliken charges =   0.00000   1.00000

 Dipole moment (field-independent basis, Debye):
    X=              0.0000    Y=              0.0000    Z=              0.2115  Tot=              0.2115
 Quadrupole moment (field-independent basis, Debye-Ang):
   XX=            -17.5946   YY=            -20.9575   ZZ=            -18.0756
   XY=              0.0000   XZ=              0.0000   YZ=              0.0000

 \CCSD(T)=-551.64075\RMSD=7.416e-09\PG=C*V [C*(B1Ar1)]\\@
 Normal termination of Gaussian 16 at Tue Feb 13 12:35:28 2024.
