 Gaussian 16, Revision A.03,
 Gaussian 16:  ES64L-G16RevA.03 25-Dec-2016

 --------------------
 #p ROCCSD(T)/cc-pVTZ
 --------------------

 -------
 B_Ar_73
 -------
 Symbolic Z-matrix:
 Charge =  0 Multiplicity = 2

                         Standard orientation:
 ---------------------------------------------------------------------
 Center     Atomic      Atomic             Coordinates (Angstroms)
 Number     Number       Type             X           Y           Z
 ---------------------------------------------------------------------
      1          5           0        0.000000    0.000000   -2.340000
      2         18           0        0.000000    0.000000    0.650000
 ---------------------------------------------------------------------

 SCF Done:  E(ROHF) =  -551.337402051     A.U. after   10 cycles
 E2 =    -0.2568544204D+00 EUMP2 =    -0.55159425647121D+03
 CCSD(T)
 CCSD(T)= -0.55163982667D+03

 Unable to determine electronic state:  an orbital has unidentified symmetry.
 Alpha  occ. eigenvalues -- -118.61923 -12.33094  -9.57989  -9.57986  -9.57984
 Alpha  occ. eigenvalues --   -7.69668  -1.28721  -0.61198  -0.59997  -0.59988
 Alpha  occ. eigenvalues --   -0.52782  -0.30602
 Alpha virt. eigenvalues --    0.04519   0.05951   0.28851   0.33356   0.34042
 Alpha virt. eigenvalues --    0.37618   0.49280   0.50062   0.53084   0.53982
 Alpha virt. eigenvalues --    0.54325   0.59191   0.59669   0.59841   0.72067

 Mulliken charges and spin densities:
               1          2
     1  B   -0.014534   0.999840
     2  Ar   0.014534   0.000160
 Sum of Mulliken charges =  -0.00000   1.00000

 Dipole moment (field-independent basis, Debye):
    X=              0.0000    Y=              0.0000    Z=              0.3129  Tot=              0.3129
 Quadrupole moment (field-independent basis, Debye-Ang):
   XX=            -20.9558   YY=            -17.5911   ZZ=            -18.3317
   XY=              0.0000   XZ=              0.0000   YZ=              0.0000

 67\CCSD(T)=-551.6398267\RMSD=8.836e-09\PG=C*V [C*(B1Ar1)]\\@
 Normal termination of Gaussian 16 at Tue Feb 13 12:34:42 2024.
