 Gaussian 16, Revision A.03,
 Gaussian 16:  ES64L-G16RevA.03 25-Dec-2016

 --------------------
 #p ROCCSD(T)/cc-pVTZ
 --------------------

 -------
 B_Ar_83
 -------
 Symbolic Z-matrix:
 Charge =  0 Multiplicity = 2

                         Standard orientation:
 ---------------------------------------------------------------------
 Center     Atomic      Atomic             Coordinates (Angstroms)
 Number     Number       Type             X           Y           Z
 ---------------------------------------------------------------------
      1          5           0        0.000000    0.000000   -2.574783
      2         18           0        0.000000    0.000000    0.715217
 ---------------------------------------------------------------------

 SCF Done:  E(ROHF) =  -551.339788255     A.U. after   10 cycles
 E2 =    -0.2556272097D+00 EUMP2 =    -0.55159541546454D+03
 CCSD(T)
 CCSD(T)= -0.55164109691D+03

 Unable to determine electronic state:  an orbital has unidentified symmetry.
 Alpha  occ. eigenvalues -- -118.61597 -12.32762  -9.57657  -9.57655  -9.57655
 Alpha  occ. eigenvalues --   -7.69936  -1.28338  -0.60218  -0.59660  -0.59641
 Alpha  occ. eigenvalues --   -0.53476  -0.30773
 Alpha virt. eigenvalues --    0.04398   0.05267   0.28629   0.33801   0.33809
 Alpha virt. eigenvalues --    0.37244   0.50015   0.50757   0.51814   0.53949
 Alpha virt. eigenvalues --    0.54142   0.59169   0.59446   0.59778   0.72188

 Mulliken charges and spin densities:
               1          2
     1  B   -0.007319   0.999927
     2  Ar   0.007319   0.000073
 Sum of Mulliken charges =  -0.00000   1.00000

 Dipole moment (field-independent basis, Debye):
    X=              0.0000    Y=              0.0000    Z=              0.1651  Tot=              0.1651
 Quadrupole moment (field-independent basis, Debye-Ang):
   XX=            -17.5959   YY=            -20.9577   ZZ=            -17.9531
   XY=              0.0000   XZ=              0.0000   YZ=              0.0000

 69\CCSD(T)=-551.6410969\RMSD=5.990e-09\PG=C*V [C*(B1Ar1)]\\@
 Normal termination of Gaussian 16 at Tue Feb 13 12:35:58 2024.
