 Gaussian 16, Revision A.03,
 Gaussian 16:  ES64L-G16RevA.03 25-Dec-2016

 --------------------
 #p ROCCSD(T)/cc-pVTZ
 --------------------

 -------
 B_Ar_62
 -------
 Symbolic Z-matrix:
 Charge =  0 Multiplicity = 2

                         Standard orientation:
 ---------------------------------------------------------------------
 Center     Atomic      Atomic             Coordinates (Angstroms)
 Number     Number       Type             X           Y           Z
 ---------------------------------------------------------------------
      1          5           0        0.000000    0.000000   -2.081739
      2         18           0        0.000000    0.000000    0.578261
 ---------------------------------------------------------------------

 SCF Done:  E(ROHF) =  -551.331042615     A.U. after   11 cycles
 E2 =    -0.2593862561D+00 EUMP2 =    -0.55159042887130D+03
 CCSD(T)
 CCSD(T)= -0.55163578640D+03

 Unable to determine electronic state:  an orbital has unidentified symmetry.
 Alpha  occ. eigenvalues -- -118.62669 -12.33855  -9.58749  -9.58742  -9.58737
 Alpha  occ. eigenvalues --   -7.69084  -1.29609  -0.63290  -0.60793  -0.60760
 Alpha  occ. eigenvalues --   -0.51257  -0.30217
 Alpha virt. eigenvalues --    0.04791   0.07277   0.29233   0.32685   0.34414
 Alpha virt. eigenvalues --    0.37209   0.49098   0.49970   0.51001   0.53947
 Alpha virt. eigenvalues --    0.53989   0.58615   0.58625   0.65194   0.71634

 Mulliken charges and spin densities:
               1          2
     1  B   -0.035460   0.999544
     2  Ar   0.035460   0.000456
 Sum of Mulliken charges =  -0.00000   1.00000

 Dipole moment (field-independent basis, Debye):
    X=              0.0000    Y=              0.0000    Z=              0.6661  Tot=              0.6661
 Quadrupole moment (field-independent basis, Debye-Ang):
   XX=            -20.9460   YY=            -17.5780   ZZ=            -19.1474
   XY=              0.0000   XZ=              0.0000   YZ=              0.0000

 05\CCSD(T)=-551.6357864\RMSD=1.261e-09\PG=C*V [C*(B1Ar1)]\\@
 Normal termination of Gaussian 16 at Tue Feb 13 12:33:19 2024.
