 Gaussian 16, Revision A.03,
 Gaussian 16:  ES64L-G16RevA.03 25-Dec-2016

 --------------------
 #p ROCCSD(T)/cc-pVTZ
 --------------------

 -------
 B_Ar_27
 -------
 Symbolic Z-matrix:
 Charge =  0 Multiplicity = 2

                         Standard orientation:
 ---------------------------------------------------------------------
 Center     Atomic      Atomic             Coordinates (Angstroms)
 Number     Number       Type             X           Y           Z
 ---------------------------------------------------------------------
      1          5           0        0.000000    0.000000   -1.260000
      2         18           0        0.000000    0.000000    0.350000
 ---------------------------------------------------------------------

 SCF Done:  E(ROHF) =  -551.204465785     A.U. after   11 cycles
 E2 =    -0.2804966563D+00 EUMP2 =    -0.55148496244108D+03
 CCSD(T)
 CCSD(T)= -0.55152769793D+03

 Unable to determine electronic state:  an orbital has unidentified symmetry.
 Alpha  occ. eigenvalues -- -118.74744 -12.46218  -9.71146  -9.71075  -9.71008
 Alpha  occ. eigenvalues --   -7.63398  -1.45759  -0.85493  -0.74369  -0.72979
 Alpha  occ. eigenvalues --   -0.37736  -0.26078
 Alpha virt. eigenvalues --    0.07720   0.16162   0.27934   0.29366   0.31248
 Alpha virt. eigenvalues --    0.35006   0.47186   0.47678   0.48115   0.49962
 Alpha virt. eigenvalues --    0.51177   0.56531   0.58139   0.71736   0.71741

 Mulliken charges and spin densities:
               1          2
     1  B   -0.578555   0.966187
     2  Ar   0.578555   0.033813
 Sum of Mulliken charges =   0.00000   1.00000

 Dipole moment (field-independent basis, Debye):
    X=              0.0000    Y=              0.0000    Z=              5.1111  Tot=              5.1111
 Quadrupole moment (field-independent basis, Debye-Ang):
   XX=            -20.7138   YY=            -17.5354   ZZ=            -25.9919
   XY=              0.0000   XZ=              0.0000   YZ=              0.0000

 6\CCSD(T)=-551.5276979\RMSD=4.224e-09\PG=C*V [C*(B1Ar1)]\\@
 Normal termination of Gaussian 16 at Tue Feb 13 12:28:54 2024.
