 Gaussian 16, Revision A.03,
 Gaussian 16:  ES64L-G16RevA.03 25-Dec-2016

 --------------------
 #p ROCCSD(T)/cc-pVTZ
 --------------------

 --------
 B_Ar_100
 --------
 Symbolic Z-matrix:
 Charge =  0 Multiplicity = 2

                         Standard orientation:
 ---------------------------------------------------------------------
 Center     Atomic      Atomic             Coordinates (Angstroms)
 Number     Number       Type             X           Y           Z
 ---------------------------------------------------------------------
      1          5           0        0.000000    0.000000   -2.973913
      2         18           0        0.000000    0.000000    0.826087
 ---------------------------------------------------------------------

 SCF Done:  E(ROHF) =  -551.341047830     A.U. after   10 cycles
 E2 =    -0.2546674574D+00 EUMP2 =    -0.55159571528780D+03
 CCSD(T)
 CCSD(T)= -0.55164148950D+03

 Unable to determine electronic state:  an orbital has unidentified symmetry.
 Alpha  occ. eigenvalues -- -118.61330 -12.32493  -9.57387  -9.57387  -9.57387
 Alpha  occ. eigenvalues --   -7.70121  -1.28040  -0.59530  -0.59390  -0.59375
 Alpha  occ. eigenvalues --   -0.53906  -0.30890
 Alpha virt. eigenvalues --    0.04315   0.04666   0.28495   0.33670   0.34391
 Alpha virt. eigenvalues --    0.35158   0.50305   0.51716   0.52431   0.53898
 Alpha virt. eigenvalues --    0.53987   0.57537   0.58002   0.61800   0.71985

 Mulliken charges and spin densities:
               1          2
     1  B   -0.002974   0.999973
     2  Ar   0.002974   0.000027
 Sum of Mulliken charges =  -0.00000   1.00000

 Dipole moment (field-independent basis, Debye):
    X=              0.0000    Y=              0.0000    Z=              0.0672  Tot=              0.0672
 Quadrupole moment (field-independent basis, Debye-Ang):
   XX=            -20.9562   YY=            -17.5971   ZZ=            -17.6869
   XY=              0.0000   XZ=              0.0000   YZ=              0.0000

 79\CCSD(T)=-551.6414895\RMSD=2.198e-09\PG=C*V [C*(B1Ar1)]\\@
 Normal termination of Gaussian 16 at Tue Feb 13 12:38:08 2024.
