 Gaussian 16, Revision A.03,
 Gaussian 16:  ES64L-G16RevA.03 25-Dec-2016

 --------------------
 #p ROCCSD(T)/cc-pVTZ
 --------------------

 -------
 B_Ar_22
 -------
 Symbolic Z-matrix:
 Charge =  0 Multiplicity = 2

                         Standard orientation:
 ---------------------------------------------------------------------
 Center     Atomic      Atomic             Coordinates (Angstroms)
 Number     Number       Type             X           Y           Z
 ---------------------------------------------------------------------
      1          5           0        0.000000    0.000000   -1.142609
      2         18           0        0.000000    0.000000    0.317391
 ---------------------------------------------------------------------

 SCF Done:  E(ROHF) =  -551.135177160     A.U. after   12 cycles
 E2 =    -0.2837619941D+00 EUMP2 =    -0.55141893915407D+03
 CCSD(T)
 CCSD(T)= -0.55146027626D+03

 Unable to determine electronic state:  an orbital has unidentified symmetry.
 Alpha  occ. eigenvalues -- -118.76720 -12.48526  -9.73480  -9.73351  -9.73279
 Alpha  occ. eigenvalues --   -7.62090  -1.50420  -0.89958  -0.77872  -0.75926
 Alpha  occ. eigenvalues --   -0.35660  -0.25342
 Alpha virt. eigenvalues --    0.08431   0.15785   0.26215   0.29063   0.31251
 Alpha virt. eigenvalues --    0.34319   0.45566   0.45571   0.50084   0.51328
 Alpha virt. eigenvalues --    0.51429   0.58874   0.60860   0.73269   0.73271

 Mulliken charges and spin densities:
               1          2
     1  B   -0.780763   0.936103
     2  Ar   0.780763   0.063897
 Sum of Mulliken charges =  -0.00000   1.00000

 Dipole moment (field-independent basis, Debye):
    X=              0.0000    Y=              0.0000    Z=              5.6941  Tot=              5.6941
 Quadrupole moment (field-independent basis, Debye-Ang):
   XX=            -17.4797   YY=            -20.4970   ZZ=            -26.2384
   XY=              0.0000   XZ=              0.0000   YZ=              0.0000

 9\CCSD(T)=-551.4602763\RMSD=1.892e-09\PG=C*V [C*(B1Ar1)]\\@
 Normal termination of Gaussian 16 at Tue Feb 13 12:28:16 2024.
