 Gaussian 16, Revision A.03,
 Gaussian 16:  ES64L-G16RevA.03 25-Dec-2016

 --------------------
 #p ROCCSD(T)/cc-pVTZ
 --------------------

 -------
 B_Ar_21
 -------
 Symbolic Z-matrix:
 Charge =  0 Multiplicity = 2

                         Standard orientation:
 ---------------------------------------------------------------------
 Center     Atomic      Atomic             Coordinates (Angstroms)
 Number     Number       Type             X           Y           Z
 ---------------------------------------------------------------------
      1          5           0        0.000000    0.000000   -1.119130
      2         18           0        0.000000    0.000000    0.310870
 ---------------------------------------------------------------------

 SCF Done:  E(ROHF) =  -551.115486397     A.U. after   12 cycles
 E2 =    -0.2844579127D+00 EUMP2 =    -0.55139994430974D+03
 CCSD(T)
 CCSD(T)= -0.55144091298D+03

 Unable to determine electronic state:  an orbital has unidentified symmetry.
 Alpha  occ. eigenvalues -- -118.76996 -12.48900  -9.73863  -9.73713  -9.73641
 Alpha  occ. eigenvalues --   -7.61839  -1.51372  -0.90756  -0.78580  -0.76508
 Alpha  occ. eigenvalues --   -0.35306  -0.25203
 Alpha virt. eigenvalues --    0.08595   0.15716   0.25818   0.28590   0.31583
 Alpha virt. eigenvalues --    0.34273   0.45166   0.45172   0.50180   0.51546
 Alpha virt. eigenvalues --    0.52232   0.59418   0.61463   0.73653   0.73654

 Mulliken charges and spin densities:
               1          2
     1  B   -0.824292   0.927602
     2  Ar   0.824292   0.072398
 Sum of Mulliken charges =  -0.00000   1.00000

 Dipole moment (field-independent basis, Debye):
    X=              0.0000    Y=              0.0000    Z=              5.7700  Tot=              5.7700
 Quadrupole moment (field-independent basis, Debye-Ang):
   XX=            -17.4600   YY=            -20.4359   ZZ=            -26.2060
   XY=              0.0000   XZ=              0.0000   YZ=              0.0000

 6\CCSD(T)=-551.440913\RMSD=1.949e-09\PG=C*V [C*(B1Ar1)]\\@
 Normal termination of Gaussian 16 at Tue Feb 13 12:28:09 2024.
