 Gaussian 16, Revision A.03,
 Gaussian 16:  ES64L-G16RevA.03 25-Dec-2016

 --------------------
 #p ROCCSD(T)/cc-pVTZ
 --------------------

 -------
 B_Ar_13
 -------
 Symbolic Z-matrix:
 Charge =  0 Multiplicity = 2

                         Standard orientation:
 ---------------------------------------------------------------------
 Center     Atomic      Atomic             Coordinates (Angstroms)
 Number     Number       Type             X           Y           Z
 ---------------------------------------------------------------------
      1          5           0        0.000000    0.000000   -0.931304
      2         18           0        0.000000    0.000000    0.258696
 ---------------------------------------------------------------------

 SCF Done:  E(ROHF) =  -550.811358660     A.U. after   12 cycles
 E2 =    -0.2908763842D+00 EUMP2 =    -0.55110223504437D+03
 CCSD(T)
 CCSD(T)= -0.55113923370D+03

 Unable to determine electronic state:  an orbital has unidentified symmetry.
 Alpha  occ. eigenvalues -- -118.77389 -12.50764  -9.75891  -9.75293  -9.75251
 Alpha  occ. eigenvalues --   -7.60857  -1.58398  -0.94914  -0.84522  -0.81321
 Alpha  occ. eigenvalues --   -0.33187  -0.24205
 Alpha virt. eigenvalues --    0.10364   0.15584   0.22317   0.24615   0.32976
 Alpha virt. eigenvalues --    0.35582   0.42438   0.42517   0.51591   0.53084
 Alpha virt. eigenvalues --    0.60768   0.64472   0.66724   0.75833   0.77610

 Mulliken charges and spin densities:
               1          2
     1  B   -1.177699   0.809207
     2  Ar   1.177699   0.190793
 Sum of Mulliken charges =  -0.00000   1.00000

 Dipole moment (field-independent basis, Debye):
    X=              0.0000    Y=              0.0000    Z=              5.8433  Tot=              5.8433
 Quadrupole moment (field-independent basis, Debye-Ang):
   XX=            -17.1265   YY=            -19.6508   ZZ=            -25.1133
   XY=              0.0000   XZ=              0.0000   YZ=              0.0000

 \CCSD(T)=-551.1392337\RMSD=2.715e-09\PG=C*V [C*(B1Ar1)]\\@
 Normal termination of Gaussian 16 at Tue Feb 13 12:27:08 2024.
