 Gaussian 16, Revision A.03,
 Gaussian 16:  ES64L-G16RevA.03 25-Dec-2016

 --------------------
 #p ROCCSD(T)/cc-pVTZ
 --------------------

 -------
 B_Ar_34
 -------
 Symbolic Z-matrix:
 Charge =  0 Multiplicity = 2

                         Standard orientation:
 ---------------------------------------------------------------------
 Center     Atomic      Atomic             Coordinates (Angstroms)
 Number     Number       Type             X           Y           Z
 ---------------------------------------------------------------------
      1          5           0        0.000000    0.000000   -1.424348
      2         18           0        0.000000    0.000000    0.395652
 ---------------------------------------------------------------------

 SCF Done:  E(ROHF) =  -551.257576804     A.U. after   11 cycles
 E2 =    -0.2757574378D+00 EUMP2 =    -0.55153333424184D+03
 CCSD(T)
 CCSD(T)= -0.55157715067D+03

 Unable to determine electronic state:  an orbital has unidentified symmetry.
 Alpha  occ. eigenvalues -- -118.71063 -12.42350  -9.67258  -9.67216  -9.67167
 Alpha  occ. eigenvalues --   -7.65086  -1.39947  -0.78886  -0.69757  -0.68935
 Alpha  occ. eigenvalues --   -0.41196  -0.27194
 Alpha virt. eigenvalues --    0.06874   0.15564   0.27864   0.29390   0.33459
 Alpha virt. eigenvalues --    0.36423   0.44928   0.50410   0.50460   0.50624
 Alpha virt. eigenvalues --    0.51761   0.54420   0.55272   0.70635   0.70638

 Mulliken charges and spin densities:
               1          2
     1  B   -0.359226   0.986453
     2  Ar   0.359226   0.013547
 Sum of Mulliken charges =  -0.00000   1.00000

 Dipole moment (field-independent basis, Debye):
    X=              0.0000    Y=              0.0000    Z=              3.9176  Tot=              3.9176
 Quadrupole moment (field-independent basis, Debye-Ang):
   XX=            -20.8481   YY=            -17.5493   ZZ=            -24.6835
   XY=              0.0000   XZ=              0.0000   YZ=              0.0000

 93\CCSD(T)=-551.5771507\RMSD=5.120e-09\PG=C*V [C*(B1Ar1)]\\@
 Normal termination of Gaussian 16 at Tue Feb 13 12:29:47 2024.
