 Gaussian 16, Revision A.03,
 Gaussian 16:  ES64L-G16RevA.03 25-Dec-2016

 --------------------
 #p ROCCSD(T)/cc-pVTZ
 --------------------

 ------
 B_Ar_5
 ------
 Symbolic Z-matrix:
 Charge =  0 Multiplicity = 2

                         Standard orientation:
 ---------------------------------------------------------------------
 Center     Atomic      Atomic             Coordinates (Angstroms)
 Number     Number       Type             X           Y           Z
 ---------------------------------------------------------------------
      1          5           0        0.000000    0.000000   -0.743478
      2         18           0        0.000000    0.000000    0.206522
 ---------------------------------------------------------------------

 SCF Done:  E(ROHF) =  -549.866196079     A.U. after   13 cycles
 E2 =    -0.2956669313D+00 EUMP2 =    -0.55016186300999D+03
 CCSD(T)
 CCSD(T)= -0.55019517442D+03

 Unable to determine electronic state:  an orbital has unidentified symmetry.
 Alpha  occ. eigenvalues -- -118.75810 -12.52958  -9.78988  -9.76372  -9.76293
 Alpha  occ. eigenvalues --   -7.69014  -1.60029  -0.92482  -0.91749  -0.88381
 Alpha  occ. eigenvalues --   -0.31915  -0.24068
 Alpha virt. eigenvalues --    0.13192   0.15791   0.18951   0.20399   0.33200
 Alpha virt. eigenvalues --    0.39551   0.40659   0.41257   0.53459   0.55113
 Alpha virt. eigenvalues --    0.68747   0.70082   0.72280   0.75426   0.82481

 Mulliken charges and spin densities:
               1          2
     1  B   -1.566446   0.530132
     2  Ar   1.566446   0.469868
 Sum of Mulliken charges =   0.00000   1.00000

 Dipole moment (field-independent basis, Debye):
    X=              0.0000    Y=              0.0000    Z=              5.1200  Tot=              5.1200
 Quadrupole moment (field-independent basis, Debye-Ang):
   XX=            -18.2503   YY=            -16.3035   ZZ=            -23.4027
   XY=              0.0000   XZ=              0.0000   YZ=              0.0000

 Normal termination of Gaussian 16 at Tue Feb 13 12:26:08 2024.
