 Gaussian 16, Revision A.03,
 Gaussian 16:  ES64L-G16RevA.03 25-Dec-2016

 --------------------
 #p ROCCSD(T)/cc-pVTZ
 --------------------

 -------
 B_Ar_14
 -------
 Symbolic Z-matrix:
 Charge =  0 Multiplicity = 2

                         Standard orientation:
 ---------------------------------------------------------------------
 Center     Atomic      Atomic             Coordinates (Angstroms)
 Number     Number       Type             X           Y           Z
 ---------------------------------------------------------------------
      1          5           0        0.000000    0.000000   -0.954783
      2         18           0        0.000000    0.000000    0.265217
 ---------------------------------------------------------------------

 SCF Done:  E(ROHF) =  -550.870292532     A.U. after   12 cycles
 E2 =    -0.2900227274D+00 EUMP2 =    -0.55116031525918D+03
 CCSD(T)
 CCSD(T)= -0.55119788069D+03

 Unable to determine electronic state:  an orbital has unidentified symmetry.
 Alpha  occ. eigenvalues -- -118.77523 -12.50623  -9.75712  -9.75216  -9.75166
 Alpha  occ. eigenvalues --   -7.60785  -1.57657  -0.94679  -0.83730  -0.80673
 Alpha  occ. eigenvalues --   -0.33391  -0.24311
 Alpha virt. eigenvalues --    0.10086   0.15564   0.22769   0.25123   0.32901
 Alpha virt. eigenvalues --    0.35261   0.42720   0.42787   0.51370   0.52848
 Alpha virt. eigenvalues --    0.59633   0.63789   0.66041   0.76231   0.77038

 Mulliken charges and spin densities:
               1          2
     1  B   -1.133842   0.830458
     2  Ar   1.133842   0.169542
 Sum of Mulliken charges =  -0.00000   1.00000

 Dipole moment (field-independent basis, Debye):
    X=              0.0000    Y=              0.0000    Z=              5.8846  Tot=              5.8846
 Quadrupole moment (field-independent basis, Debye-Ang):
   XX=            -17.1902   YY=            -19.7823   ZZ=            -25.3137
   XY=              0.0000   XZ=              0.0000   YZ=              0.0000

 21\CCSD(T)=-551.1978807\RMSD=2.592e-09\PG=C*V [C*(B1Ar1)]\\@
 Normal termination of Gaussian 16 at Tue Feb 13 12:27:16 2024.
