 Gaussian 16, Revision A.03,
 Gaussian 16:  ES64L-G16RevA.03 25-Dec-2016

 --------------------
 #p ROCCSD(T)/cc-pVTZ
 --------------------

 -------
 B_Ar_94
 -------
 Symbolic Z-matrix:
 Charge =  0 Multiplicity = 2

                         Standard orientation:
 ---------------------------------------------------------------------
 Center     Atomic      Atomic             Coordinates (Angstroms)
 Number     Number       Type             X           Y           Z
 ---------------------------------------------------------------------
      1          5           0        0.000000    0.000000   -2.833043
      2         18           0        0.000000    0.000000    0.786957
 ---------------------------------------------------------------------

 SCF Done:  E(ROHF) =  -551.340809666     A.U. after   10 cycles
 E2 =    -0.2549045310D+00 EUMP2 =    -0.55159571419697D+03
 CCSD(T)
 CCSD(T)= -0.55164146475D+03

 Unable to determine electronic state:  an orbital has unidentified symmetry.
 Alpha  occ. eigenvalues -- -118.61401 -12.32564  -9.57458  -9.57458  -9.57457
 Alpha  occ. eigenvalues --   -7.70079  -1.28116  -0.59689  -0.59460  -0.59443
 Alpha  occ. eigenvalues --   -0.53817  -0.30863
 Alpha virt. eigenvalues --    0.04334   0.04825   0.28516   0.33690   0.34221
 Alpha virt. eigenvalues --    0.35955   0.50381   0.51111   0.51831   0.53913
 Alpha virt. eigenvalues --    0.54011   0.58287   0.58725   0.61085   0.72000

 Mulliken charges and spin densities:
               1          2
     1  B   -0.003973   0.999963
     2  Ar   0.003973   0.000037
 Sum of Mulliken charges =  -0.00000   1.00000

 Dipole moment (field-independent basis, Debye):
    X=              0.0000    Y=              0.0000    Z=              0.0896  Tot=              0.0896
 Quadrupole moment (field-independent basis, Debye-Ang):
   XX=            -17.5971   YY=            -20.9569   ZZ=            -17.7472
   XY=              0.0000   XZ=              0.0000   YZ=              0.0000

 6\CCSD(T)=-551.6414648\RMSD=2.940e-09\PG=C*V [C*(B1Ar1)]\\@
 Normal termination of Gaussian 16 at Tue Feb 13 12:37:22 2024.
