 Gaussian 16, Revision A.03,
 Gaussian 16:  ES64L-G16RevA.03 25-Dec-2016

 --------------------
 #p ROCCSD(T)/cc-pVTZ
 --------------------

 ------
 B_Ar_6
 ------
 Symbolic Z-matrix:
 Charge =  0 Multiplicity = 2

                         Standard orientation:
 ---------------------------------------------------------------------
 Center     Atomic      Atomic             Coordinates (Angstroms)
 Number     Number       Type             X           Y           Z
 ---------------------------------------------------------------------
      1          5           0        0.000000    0.000000   -0.766957
      2         18           0        0.000000    0.000000    0.213043
 ---------------------------------------------------------------------

 SCF Done:  E(ROHF) =  -550.050704645     A.U. after   13 cycles
 E2 =    -0.2954410823D+00 EUMP2 =    -0.55034614572766D+03
 CCSD(T)
 CCSD(T)= -0.55037972990D+03

 Unable to determine electronic state:  an orbital has unidentified symmetry.
 Alpha  occ. eigenvalues -- -118.75837 -12.52334  -9.78150  -9.75976  -9.75919
 Alpha  occ. eigenvalues --   -7.66686  -1.60404  -0.92790  -0.91222  -0.87190
 Alpha  occ. eigenvalues --   -0.32057  -0.23970
 Alpha virt. eigenvalues --    0.12800   0.15786   0.19325   0.20954   0.33200
 Alpha virt. eigenvalues --    0.39003   0.40867   0.41231   0.53224   0.54859
 Alpha virt. eigenvalues --    0.68058   0.69393   0.71583   0.74923   0.81897

 Mulliken charges and spin densities:
               1          2
     1  B   -1.509213   0.577568
     2  Ar   1.509213   0.422432
 Sum of Mulliken charges =  -0.00000   1.00000

 Dipole moment (field-independent basis, Debye):
    X=              0.0000    Y=              0.0000    Z=              5.2366  Tot=              5.2366
 Quadrupole moment (field-independent basis, Debye-Ang):
   XX=            -18.4508   YY=            -16.4384   ZZ=            -23.5907
   XY=              0.0000   XZ=              0.0000   YZ=              0.0000

 8\CCSD(T)=-550.3797299\RMSD=2.645e-09\PG=C*V [C*(B1Ar1)]\\@
 Normal termination of Gaussian 16 at Tue Feb 13 12:26:16 2024.
