 Gaussian 16, Revision A.03,
 Gaussian 16:  ES64L-G16RevA.03 25-Dec-2016

 --------------------
 #p ROCCSD(T)/cc-pVTZ
 --------------------

 -------
 B_Ar_92
 -------
 Symbolic Z-matrix:
 Charge =  0 Multiplicity = 2

                         Standard orientation:
 ---------------------------------------------------------------------
 Center     Atomic      Atomic             Coordinates (Angstroms)
 Number     Number       Type             X           Y           Z
 ---------------------------------------------------------------------
      1          5           0        0.000000    0.000000   -2.786087
      2         18           0        0.000000    0.000000    0.773913
 ---------------------------------------------------------------------

 SCF Done:  E(ROHF) =  -551.340693636     A.U. after   10 cycles
 E2 =    -0.2550036177D+00 EUMP2 =    -0.55159569725388D+03
 CCSD(T)
 CCSD(T)= -0.55164143811D+03

 Unable to determine electronic state:  an orbital has unidentified symmetry.
 Alpha  occ. eigenvalues -- -118.61429 -12.32592  -9.57486  -9.57486  -9.57486
 Alpha  occ. eigenvalues --   -7.70060  -1.28147  -0.59758  -0.59488  -0.59470
 Alpha  occ. eigenvalues --   -0.53776  -0.30851
 Alpha virt. eigenvalues --    0.04342   0.04889   0.28529   0.33702   0.34152
 Alpha virt. eigenvalues --    0.36227   0.50511   0.50905   0.51627   0.53919
 Alpha virt. eigenvalues --    0.54024   0.58533   0.58958   0.60775   0.72016

 Mulliken charges and spin densities:
               1          2
     1  B   -0.004400   0.999959
     2  Ar   0.004400   0.000041
 Sum of Mulliken charges =   0.00000   1.00000

 Dipole moment (field-independent basis, Debye):
    X=              0.0000    Y=              0.0000    Z=              0.0993  Tot=              0.0993
 Quadrupole moment (field-independent basis, Debye-Ang):
   XX=            -17.5971   YY=            -20.9571   ZZ=            -17.7739
   XY=              0.0000   XZ=              0.0000   YZ=              0.0000

 58\CCSD(T)=-551.6414381\RMSD=3.312e-09\PG=C*V [C*(B1Ar1)]\\@
 Normal termination of Gaussian 16 at Tue Feb 13 12:37:07 2024.
