 Gaussian 16, Revision A.03,
 Gaussian 16:  ES64L-G16RevA.03 25-Dec-2016

 --------------------
 #p ROCCSD(T)/cc-pVTZ
 --------------------

 -------
 B_Ar_35
 -------
 Symbolic Z-matrix:
 Charge =  0 Multiplicity = 2

                         Standard orientation:
 ---------------------------------------------------------------------
 Center     Atomic      Atomic             Coordinates (Angstroms)
 Number     Number       Type             X           Y           Z
 ---------------------------------------------------------------------
      1          5           0        0.000000    0.000000   -1.447826
      2         18           0        0.000000    0.000000    0.402174
 ---------------------------------------------------------------------

 SCF Done:  E(ROHF) =  -551.263025919     A.U. after   11 cycles
 E2 =    -0.2750294744D+00 EUMP2 =    -0.55153805539310D+03
 CCSD(T)
 CCSD(T)= -0.55158197860D+03

 Unable to determine electronic state:  an orbital has unidentified symmetry.
 Alpha  occ. eigenvalues -- -118.70529 -12.41804  -9.66710  -9.66670  -9.66624
 Alpha  occ. eigenvalues --   -7.65304  -1.39220  -0.77988  -0.69157  -0.68399
 Alpha  occ. eigenvalues --   -0.41704  -0.27355
 Alpha virt. eigenvalues --    0.06761   0.15293   0.27880   0.29506   0.33675
 Alpha virt. eigenvalues --    0.36584   0.44784   0.50734   0.50740   0.50786
 Alpha virt. eigenvalues --    0.51908   0.54255   0.54962   0.70565   0.70567

 Mulliken charges and spin densities:
               1          2
     1  B   -0.334086   0.988121
     2  Ar   0.334086   0.011879
 Sum of Mulliken charges =  -0.00000   1.00000

 Dipole moment (field-independent basis, Debye):
    X=              0.0000    Y=              0.0000    Z=              3.7351  Tot=              3.7351
 Quadrupole moment (field-independent basis, Debye-Ang):
   XX=            -20.8579   YY=            -17.5490   ZZ=            -24.4395
   XY=              0.0000   XZ=              0.0000   YZ=              0.0000

 8\CCSD(T)=-551.5819786\RMSD=4.995e-09\PG=C*V [C*(B1Ar1)]\\@
 Normal termination of Gaussian 16 at Tue Feb 13 12:29:54 2024.
