 Gaussian 16, Revision A.03,
 Gaussian 16:  ES64L-G16RevA.03 25-Dec-2016

 --------------------
 #p ROCCSD(T)/cc-pVTZ
 --------------------

 -------
 B_Ar_24
 -------
 Symbolic Z-matrix:
 Charge =  0 Multiplicity = 2

                         Standard orientation:
 ---------------------------------------------------------------------
 Center     Atomic      Atomic             Coordinates (Angstroms)
 Number     Number       Type             X           Y           Z
 ---------------------------------------------------------------------
      1          5           0        0.000000    0.000000   -1.189565
      2         18           0        0.000000    0.000000    0.330435
 ---------------------------------------------------------------------

 SCF Done:  E(ROHF) =  -551.167849585     A.U. after   11 cycles
 E2 =    -0.2824273412D+00 EUMP2 =    -0.55145027692627D+03
 CCSD(T)
 CCSD(T)= -0.55149225762D+03

 Unable to determine electronic state:  an orbital has unidentified symmetry.
 Alpha  occ. eigenvalues -- -118.76038 -12.47683  -9.72625  -9.72525  -9.72455
 Alpha  occ. eigenvalues --   -7.62610  -1.48528  -0.88251  -0.76462  -0.74755
 Alpha  occ. eigenvalues --   -0.36433  -0.25629
 Alpha virt. eigenvalues --    0.08129   0.15945   0.26961   0.29980   0.30517
 Alpha virt. eigenvalues --    0.34516   0.46365   0.46404   0.49699   0.49962
 Alpha virt. eigenvalues --    0.51259   0.57859   0.59709   0.72577   0.72581

 Mulliken charges and spin densities:
               1          2
     1  B   -0.696189   0.950350
     2  Ar   0.696189   0.049650
 Sum of Mulliken charges =  -0.00000   1.00000

 Dipole moment (field-independent basis, Debye):
    X=              0.0000    Y=              0.0000    Z=              5.4995  Tot=              5.4995
 Quadrupole moment (field-independent basis, Debye-Ang):
   XX=            -20.6001   YY=            -17.5094   ZZ=            -26.2213
   XY=              0.0000   XZ=              0.0000   YZ=              0.0000

 71\CCSD(T)=-551.4922576\RMSD=9.983e-09\PG=C*V [C*(B1Ar1)]\\@
 Normal termination of Gaussian 16 at Tue Feb 13 12:28:31 2024.
