 Gaussian 16, Revision A.03,
 Gaussian 16:  ES64L-G16RevA.03 25-Dec-2016

 --------------------
 #p ROCCSD(T)/cc-pVTZ
 --------------------

 -------
 B_Ar_68
 -------
 Symbolic Z-matrix:
 Charge =  0 Multiplicity = 2

                         Standard orientation:
 ---------------------------------------------------------------------
 Center     Atomic      Atomic             Coordinates (Angstroms)
 Number     Number       Type             X           Y           Z
 ---------------------------------------------------------------------
      1          5           0        0.000000    0.000000   -2.222609
      2         18           0        0.000000    0.000000    0.617391
 ---------------------------------------------------------------------

 SCF Done:  E(ROHF) =  -551.335191926     A.U. after   10 cycles
 E2 =    -0.2578059072D+00 EUMP2 =    -0.55159299783352D+03
 CCSD(T)
 CCSD(T)= -0.55163848586D+03

 Unable to determine electronic state:  an orbital has unidentified symmetry.
 Alpha  occ. eigenvalues -- -118.62189 -12.33366  -9.58261  -9.58256  -9.58253
 Alpha  occ. eigenvalues --   -7.69450  -1.29038  -0.61981  -0.60275  -0.60272
 Alpha  occ. eigenvalues --   -0.52212  -0.30461
 Alpha virt. eigenvalues --    0.04619   0.06457   0.29008   0.33096   0.34201
 Alpha virt. eigenvalues --    0.37500   0.49097   0.49912   0.52520   0.53984
 Alpha virt. eigenvalues --    0.54112   0.59358   0.59444   0.61405   0.71896

 Mulliken charges and spin densities:
               1          2
     1  B   -0.021496   0.999749
     2  Ar   0.021496   0.000251
 Sum of Mulliken charges =  -0.00000   1.00000

 Dipole moment (field-independent basis, Debye):
    X=              0.0000    Y=              0.0000    Z=              0.4394  Tot=              0.4394
 Quadrupole moment (field-independent basis, Debye-Ang):
   XX=            -20.9527   YY=            -17.5863   ZZ=            -18.6350
   XY=              0.0000   XZ=              0.0000   YZ=              0.0000

 7\CCSD(T)=-551.6384859\RMSD=9.056e-09\PG=C*V [C*(B1Ar1)]\\@
 Normal termination of Gaussian 16 at Tue Feb 13 12:34:04 2024.
