 Gaussian 16, Revision A.03,
 Gaussian 16:  ES64L-G16RevA.03 25-Dec-2016

 --------------------
 #p ROCCSD(T)/cc-pVTZ
 --------------------

 -------
 B_Ar_74
 -------
 Symbolic Z-matrix:
 Charge =  0 Multiplicity = 2

                         Standard orientation:
 ---------------------------------------------------------------------
 Center     Atomic      Atomic             Coordinates (Angstroms)
 Number     Number       Type             X           Y           Z
 ---------------------------------------------------------------------
      1          5           0        0.000000    0.000000   -2.363478
      2         18           0        0.000000    0.000000    0.656522
 ---------------------------------------------------------------------

 SCF Done:  E(ROHF) =  -551.337743747     A.U. after   10 cycles
 E2 =    -0.2566959367D+00 EUMP2 =    -0.55159443968343D+03
 CCSD(T)
 CCSD(T)= -0.55164002387D+03

 Unable to determine electronic state:  an orbital has unidentified symmetry.
 Alpha  occ. eigenvalues -- -118.61880 -12.33051  -9.57945  -9.57942  -9.57941
 Alpha  occ. eigenvalues --   -7.69703  -1.28670  -0.61069  -0.59953  -0.59941
 Alpha  occ. eigenvalues --   -0.52876  -0.30625
 Alpha virt. eigenvalues --    0.04502   0.05865   0.28823   0.33403   0.34013
 Alpha virt. eigenvalues --    0.37620   0.49334   0.50111   0.53084   0.53980
 Alpha virt. eigenvalues --    0.54354   0.58925   0.59697   0.59886   0.72097

 Mulliken charges and spin densities:
               1          2
     1  B   -0.013488   0.999853
     2  Ar   0.013488   0.000147
 Sum of Mulliken charges =  -0.00000   1.00000

 Dipole moment (field-independent basis, Debye):
    X=              0.0000    Y=              0.0000    Z=              0.2927  Tot=              0.2927
 Quadrupole moment (field-independent basis, Debye-Ang):
   XX=            -17.5918   YY=            -20.9562   ZZ=            -18.2818
   XY=              0.0000   XZ=              0.0000   YZ=              0.0000

 01\CCSD(T)=-551.6400239\RMSD=8.697e-09\PG=C*V [C*(B1Ar1)]\\@
 Normal termination of Gaussian 16 at Tue Feb 13 12:34:50 2024.
