 Gaussian 16, Revision A.03,
 Gaussian 16:  ES64L-G16RevA.03 25-Dec-2016

 --------------------
 #p ROCCSD(T)/cc-pVTZ
 --------------------

 -------
 B_Ar_98
 -------
 Symbolic Z-matrix:
 Charge =  0 Multiplicity = 2

                         Standard orientation:
 ---------------------------------------------------------------------
 Center     Atomic      Atomic             Coordinates (Angstroms)
 Number     Number       Type             X           Y           Z
 ---------------------------------------------------------------------
      1          5           0        0.000000    0.000000   -2.926957
      2         18           0        0.000000    0.000000    0.813043
 ---------------------------------------------------------------------

 SCF Done:  E(ROHF) =  -551.340983572     A.U. after   10 cycles
 E2 =    -0.2547376467D+00 EUMP2 =    -0.55159572121850D+03
 CCSD(T)
 CCSD(T)= -0.55164148835D+03

 Unable to determine electronic state:  an orbital has unidentified symmetry.
 Alpha  occ. eigenvalues -- -118.61351 -12.32515  -9.57409  -9.57408  -9.57408
 Alpha  occ. eigenvalues --   -7.70108  -1.28063  -0.59576  -0.59411  -0.59395
 Alpha  occ. eigenvalues --   -0.53881  -0.30882
 Alpha virt. eigenvalues --    0.04321   0.04714   0.28500   0.33674   0.34343
 Alpha virt. eigenvalues --    0.35413   0.50284   0.51518   0.52234   0.53903
 Alpha virt. eigenvalues --    0.53994   0.57785   0.58243   0.61602   0.71986

 Mulliken charges and spin densities:
               1          2
     1  B   -0.003268   0.999970
     2  Ar   0.003268   0.000030
 Sum of Mulliken charges =   0.00000   1.00000

 Dipole moment (field-independent basis, Debye):
    X=              0.0000    Y=              0.0000    Z=              0.0737  Tot=              0.0737
 Quadrupole moment (field-independent basis, Debye-Ang):
   XX=            -17.5971   YY=            -20.9564   ZZ=            -17.7041
   XY=              0.0000   XZ=              0.0000   YZ=              0.0000

 63\CCSD(T)=-551.6414884\RMSD=2.397e-09\PG=C*V [C*(B1Ar1)]\\@
 Normal termination of Gaussian 16 at Tue Feb 13 12:37:53 2024.
