 Gaussian 16, Revision A.03,
 Gaussian 16:  ES64L-G16RevA.03 25-Dec-2016

 --------------------
 #p ROCCSD(T)/cc-pVTZ
 --------------------

 -------
 B_Ar_78
 -------
 Symbolic Z-matrix:
 Charge =  0 Multiplicity = 2

                         Standard orientation:
 ---------------------------------------------------------------------
 Center     Atomic      Atomic             Coordinates (Angstroms)
 Number     Number       Type             X           Y           Z
 ---------------------------------------------------------------------
      1          5           0        0.000000    0.000000   -2.457391
      2         18           0        0.000000    0.000000    0.682609
 ---------------------------------------------------------------------

 SCF Done:  E(ROHF) =  -551.338852145     A.U. after   10 cycles
 E2 =    -0.2561492309D+00 EUMP2 =    -0.55159500137595D+03
 CCSD(T)
 CCSD(T)= -0.55164063467D+03

 Unable to determine electronic state:  an orbital has unidentified symmetry.
 Alpha  occ. eigenvalues -- -118.61734 -12.32902  -9.57797  -9.57794  -9.57794
 Alpha  occ. eigenvalues --   -7.69824  -1.28498  -0.60627  -0.59802  -0.59786
 Alpha  occ. eigenvalues --   -0.53191  -0.30702
 Alpha virt. eigenvalues --    0.04448   0.05565   0.28724   0.33586   0.33910
 Alpha virt. eigenvalues --    0.37544   0.49597   0.50357   0.52743   0.53967
 Alpha virt. eigenvalues --    0.54302   0.58571   0.59692   0.59949   0.72200

 Mulliken charges and spin densities:
               1          2
     1  B   -0.010140   0.999894
     2  Ar   0.010140   0.000106
 Sum of Mulliken charges =  -0.00000   1.00000

 Dipole moment (field-independent basis, Debye):
    X=              0.0000    Y=              0.0000    Z=              0.2254  Tot=              0.2254
 Quadrupole moment (field-independent basis, Debye-Ang):
   XX=            -20.9573   YY=            -17.5942   ZZ=            -18.1116
   XY=              0.0000   XZ=              0.0000   YZ=              0.0000

 \CCSD(T)=-551.6406347\RMSD=7.736e-09\PG=C*V [C*(B1Ar1)]\\@
 Normal termination of Gaussian 16 at Tue Feb 13 12:35:20 2024.
