 Gaussian 16, Revision A.03,
 Gaussian 16:  ES64L-G16RevA.03 25-Dec-2016

 --------------------
 #p ROCCSD(T)/cc-pVTZ
 --------------------

 -------
 B_Ar_86
 -------
 Symbolic Z-matrix:
 Charge =  0 Multiplicity = 2

                         Standard orientation:
 ---------------------------------------------------------------------
 Center     Atomic      Atomic             Coordinates (Angstroms)
 Number     Number       Type             X           Y           Z
 ---------------------------------------------------------------------
      1          5           0        0.000000    0.000000   -2.645217
      2         18           0        0.000000    0.000000    0.734783
 ---------------------------------------------------------------------

 SCF Done:  E(ROHF) =  -551.340177340     A.U. after   10 cycles
 E2 =    -0.2553813894D+00 EUMP2 =    -0.55159555872950D+03
 CCSD(T)
 CCSD(T)= -0.55164126331D+03

 Unable to determine electronic state:  an orbital has unidentified symmetry.
 Alpha  occ. eigenvalues -- -118.61532 -12.32696  -9.57591  -9.57589  -9.57589
 Alpha  occ. eigenvalues --   -7.69987  -1.28263  -0.60032  -0.59593  -0.59574
 Alpha  occ. eigenvalues --   -0.53601  -0.30804
 Alpha virt. eigenvalues --    0.04375   0.05122   0.28587   0.33763   0.33924
 Alpha virt. eigenvalues --    0.36961   0.50299   0.51033   0.51259   0.53938
 Alpha virt. eigenvalues --    0.54086   0.59193   0.59562   0.59708   0.72111

 Mulliken charges and spin densities:
               1          2
     1  B   -0.006115   0.999940
     2  Ar   0.006115   0.000060
 Sum of Mulliken charges =  -0.00000   1.00000

 Dipole moment (field-independent basis, Debye):
    X=              0.0000    Y=              0.0000    Z=              0.1383  Tot=              0.1383
 Quadrupole moment (field-independent basis, Debye-Ang):
   XX=            -20.9576   YY=            -17.5965   ZZ=            -17.8807
   XY=              0.0000   XZ=              0.0000   YZ=              0.0000

 23\CCSD(T)=-551.6412633\RMSD=4.936e-09\PG=C*V [C*(B1Ar1)]\\@
 Normal termination of Gaussian 16 at Tue Feb 13 12:36:21 2024.
