 Gaussian 16, Revision A.03,
 Gaussian 16:  ES64L-G16RevA.03 25-Dec-2016

 --------------------
 #p ROCCSD(T)/cc-pVTZ
 --------------------

 -------
 B_Ar_48
 -------
 Symbolic Z-matrix:
 Charge =  0 Multiplicity = 2

                         Standard orientation:
 ---------------------------------------------------------------------
 Center     Atomic      Atomic             Coordinates (Angstroms)
 Number     Number       Type             X           Y           Z
 ---------------------------------------------------------------------
      1          5           0        0.000000    0.000000   -1.753043
      2         18           0        0.000000    0.000000    0.486957
 ---------------------------------------------------------------------

 SCF Done:  E(ROHF) =  -551.309915520     A.U. after   11 cycles
 E2 =    -0.2657798783D+00 EUMP2 =    -0.55157569539821D+03
 CCSD(T)
 CCSD(T)= -0.55162055094D+03

 Unable to determine electronic state:  an orbital has unidentified symmetry.
 Alpha  occ. eigenvalues -- -118.65147 -12.36361  -9.61256  -9.61238  -9.61220
 Alpha  occ. eigenvalues --   -7.67613  -1.32532  -0.68674  -0.63419  -0.63190
 Alpha  occ. eigenvalues --   -0.47485  -0.29150
 Alpha virt. eigenvalues --    0.05532   0.10582   0.29779   0.30554   0.34753
 Alpha virt. eigenvalues --    0.36908   0.46722   0.50110   0.51306   0.53325
 Alpha virt. eigenvalues --    0.53351   0.55586   0.55758   0.70803   0.70805

 Mulliken charges and spin densities:
               1          2
     1  B   -0.118651   0.997748
     2  Ar   0.118651   0.002252
 Sum of Mulliken charges =  -0.00000   1.00000

 Dipole moment (field-independent basis, Debye):
    X=              0.0000    Y=              0.0000    Z=              1.7386  Tot=              1.7386
 Quadrupole moment (field-independent basis, Debye-Ang):
   XX=            -20.9173   YY=            -17.5534   ZZ=            -21.2700
   XY=              0.0000   XZ=              0.0000   YZ=              0.0000

 6\CCSD(T)=-551.6205509\RMSD=1.867e-09\PG=C*V [C*(B1Ar1)]\\@
 Normal termination of Gaussian 16 at Tue Feb 13 12:31:33 2024.
