 Gaussian 16, Revision A.03,
 Gaussian 16:  ES64L-G16RevA.03 25-Dec-2016

 --------------------
 #p ROCCSD(T)/cc-pVTZ
 --------------------

 -------
 B_Ar_46
 -------
 Symbolic Z-matrix:
 Charge =  0 Multiplicity = 2

                         Standard orientation:
 ---------------------------------------------------------------------
 Center     Atomic      Atomic             Coordinates (Angstroms)
 Number     Number       Type             X           Y           Z
 ---------------------------------------------------------------------
      1          5           0        0.000000    0.000000   -1.706087
      2         18           0        0.000000    0.000000    0.473913
 ---------------------------------------------------------------------

 SCF Done:  E(ROHF) =  -551.304903006     A.U. after   11 cycles
 E2 =    -0.2670546972D+00 EUMP2 =    -0.55157195770325D+03
 CCSD(T)
 CCSD(T)= -0.55161670860D+03

 Unable to determine electronic state:  an orbital has unidentified symmetry.
 Alpha  occ. eigenvalues -- -118.65750 -12.36969  -9.61864  -9.61844  -9.61822
 Alpha  occ. eigenvalues --   -7.67319  -1.33247  -0.69802  -0.64051  -0.63769
 Alpha  occ. eigenvalues --   -0.46735  -0.28924
 Alpha virt. eigenvalues --    0.05687   0.11257   0.29829   0.30079   0.34733
 Alpha virt. eigenvalues --    0.36959   0.46150   0.50341   0.51625   0.53107
 Alpha virt. eigenvalues --    0.53134   0.55100   0.55290   0.70687   0.70688

 Mulliken charges and spin densities:
               1          2
     1  B   -0.140424   0.997116
     2  Ar   0.140424   0.002884
 Sum of Mulliken charges =   0.00000   1.00000

 Dipole moment (field-independent basis, Debye):
    X=              0.0000    Y=              0.0000    Z=              1.9802  Tot=              1.9802
 Quadrupole moment (field-independent basis, Debye-Ang):
   XX=            -20.9117   YY=            -17.5508   ZZ=            -21.7009
   XY=              0.0000   XZ=              0.0000   YZ=              0.0000

 \CCSD(T)=-551.6167086\RMSD=2.227e-09\PG=C*V [C*(B1Ar1)]\\@
 Normal termination of Gaussian 16 at Tue Feb 13 12:31:18 2024.
