 Gaussian 16, Revision A.03,
 Gaussian 16:  ES64L-G16RevA.03 25-Dec-2016

 --------------------
 #p ROCCSD(T)/cc-pVTZ
 --------------------

 -------
 B_Ar_63
 -------
 Symbolic Z-matrix:
 Charge =  0 Multiplicity = 2

                         Standard orientation:
 ---------------------------------------------------------------------
 Center     Atomic      Atomic             Coordinates (Angstroms)
 Number     Number       Type             X           Y           Z
 ---------------------------------------------------------------------
      1          5           0        0.000000    0.000000   -2.105217
      2         18           0        0.000000    0.000000    0.584783
 ---------------------------------------------------------------------

 SCF Done:  E(ROHF) =  -551.331877013     A.U. after   11 cycles
 E2 =    -0.2590835104D+00 EUMP2 =    -0.55159096052325D+03
 CCSD(T)
 CCSD(T)= -0.55163634255D+03

 Unable to determine electronic state:  an orbital has unidentified symmetry.
 Alpha  occ. eigenvalues -- -118.62573 -12.33757  -9.58652  -9.58645  -9.58641
 Alpha  occ. eigenvalues --   -7.69154  -1.29495  -0.63039  -0.60690  -0.60664
 Alpha  occ. eigenvalues --   -0.51439  -0.30265
 Alpha virt. eigenvalues --    0.04757   0.07121   0.29193   0.32766   0.34378
 Alpha virt. eigenvalues --    0.37262   0.49080   0.49940   0.51286   0.53958
 Alpha virt. eigenvalues --    0.54006   0.58772   0.58777   0.64516   0.71682

 Mulliken charges and spin densities:
               1          2
     1  B   -0.032567   0.999589
     2  Ar   0.032567   0.000411
 Sum of Mulliken charges =  -0.00000   1.00000

 Dipole moment (field-independent basis, Debye):
    X=              0.0000    Y=              0.0000    Z=              0.6213  Tot=              0.6213
 Quadrupole moment (field-independent basis, Debye-Ang):
   XX=            -17.5796   YY=            -20.9474   ZZ=            -19.0486
   XY=              0.0000   XZ=              0.0000   YZ=              0.0000

 CCSD(T)=-551.6363426\RMSD=1.169e-09\PG=C*V [C*(B1Ar1)]\\@
 Normal termination of Gaussian 16 at Tue Feb 13 12:33:27 2024.
