 Gaussian 16, Revision A.03,
 Gaussian 16:  ES64L-G16RevA.03 25-Dec-2016

 --------------------
 #p ROCCSD(T)/cc-pVTZ
 --------------------

 -------
 B_Ar_95
 -------
 Symbolic Z-matrix:
 Charge =  0 Multiplicity = 2

                         Standard orientation:
 ---------------------------------------------------------------------
 Center     Atomic      Atomic             Coordinates (Angstroms)
 Number     Number       Type             X           Y           Z
 ---------------------------------------------------------------------
      1          5           0        0.000000    0.000000   -2.856522
      2         18           0        0.000000    0.000000    0.793478
 ---------------------------------------------------------------------

 SCF Done:  E(ROHF) =  -551.340859747     A.U. after   10 cycles
 E2 =    -0.2548591409D+00 EUMP2 =    -0.55159571888813D+03
 CCSD(T)
 CCSD(T)= -0.55164147392D+03

 Unable to determine electronic state:  an orbital has unidentified symmetry.
 Alpha  occ. eigenvalues -- -118.61387 -12.32551  -9.57445  -9.57444  -9.57444
 Alpha  occ. eigenvalues --   -7.70087  -1.28102  -0.59658  -0.59447  -0.59430
 Alpha  occ. eigenvalues --   -0.53835  -0.30868
 Alpha virt. eigenvalues --    0.04330   0.04795   0.28511   0.33685   0.34254
 Alpha virt. eigenvalues --    0.35818   0.50338   0.51214   0.51932   0.53910
 Alpha virt. eigenvalues --    0.54006   0.58162   0.58606   0.61228   0.71994

 Mulliken charges and spin densities:
               1          2
     1  B   -0.003780   0.999965
     2  Ar   0.003780   0.000035
 Sum of Mulliken charges =  -0.00000   1.00000

 Dipole moment (field-independent basis, Debye):
    X=              0.0000    Y=              0.0000    Z=              0.0853  Tot=              0.0853
 Quadrupole moment (field-independent basis, Debye-Ang):
   XX=            -20.9568   YY=            -17.5971   ZZ=            -17.7352
   XY=              0.0000   XZ=              0.0000   YZ=              0.0000

 6\CCSD(T)=-551.6414739\RMSD=2.782e-09\PG=C*V [C*(B1Ar1)]\\@
 Normal termination of Gaussian 16 at Tue Feb 13 12:37:30 2024.
