 Gaussian 16, Revision A.03,
 Gaussian 16:  ES64L-G16RevA.03 25-Dec-2016

 --------------------
 #p ROCCSD(T)/cc-pVTZ
 --------------------

 ------
 B_Ar_4
 ------
 Symbolic Z-matrix:
 Charge =  0 Multiplicity = 2

                         Standard orientation:
 ---------------------------------------------------------------------
 Center     Atomic      Atomic             Coordinates (Angstroms)
 Number     Number       Type             X           Y           Z
 ---------------------------------------------------------------------
      1          5           0        0.000000    0.000000   -0.720000
      2         18           0        0.000000    0.000000    0.200000
 ---------------------------------------------------------------------

 SCF Done:  E(ROHF) =  -549.653913246     A.U. after   13 cycles
 E2 =    -0.2957374439D+00 EUMP2 =    -0.54994965069006D+03
 CCSD(T)
 CCSD(T)= -0.54998277458D+03

 Unable to determine electronic state:  an orbital has unidentified symmetry.
 Alpha  occ. eigenvalues -- -118.75976 -12.53827  -9.80122  -9.76969  -9.76869
 Alpha  occ. eigenvalues --   -7.72012  -1.59462  -0.93875  -0.90464  -0.89724
 Alpha  occ. eigenvalues --   -0.31767  -0.24221
 Alpha virt. eigenvalues --    0.13581   0.15781   0.18595   0.19827   0.33195
 Alpha virt. eigenvalues --    0.39878   0.40438   0.41568   0.53693   0.55360
 Alpha virt. eigenvalues --    0.69275   0.70751   0.72967   0.76194   0.83030

 Mulliken charges and spin densities:
               1          2
     1  B   -1.628653   0.478976
     2  Ar   1.628653   0.521024
 Sum of Mulliken charges =   0.00000   1.00000

 Dipole moment (field-independent basis, Debye):
    X=              0.0000    Y=              0.0000    Z=              5.0015  Tot=              5.0015
 Quadrupole moment (field-independent basis, Debye-Ang):
   XX=            -18.0478   YY=            -16.1602   ZZ=            -23.2372
   XY=              0.0000   XZ=              0.0000   YZ=              0.0000

 \CCSD(T)=-549.9827746\RMSD=5.436e-09\PG=C*V [C*(B1Ar1)]\\@
 Normal termination of Gaussian 16 at Tue Feb 13 12:26:01 2024.
