 Gaussian 16, Revision A.03,
 Gaussian 16:  ES64L-G16RevA.03 25-Dec-2016

 --------------------
 #p ROCCSD(T)/cc-pVTZ
 --------------------

 -------
 B_Ar_28
 -------
 Symbolic Z-matrix:
 Charge =  0 Multiplicity = 2

                         Standard orientation:
 ---------------------------------------------------------------------
 Center     Atomic      Atomic             Coordinates (Angstroms)
 Number     Number       Type             X           Y           Z
 ---------------------------------------------------------------------
      1          5           0        0.000000    0.000000   -1.283478
      2         18           0        0.000000    0.000000    0.356522
 ---------------------------------------------------------------------

 SCF Done:  E(ROHF) =  -551.214262763     A.U. after   11 cycles
 E2 =    -0.2798525571D+00 EUMP2 =    -0.55149411531991D+03
 CCSD(T)
 CCSD(T)= -0.55153705461D+03

 Unable to determine electronic state:  an orbital has unidentified symmetry.
 Alpha  occ. eigenvalues -- -118.74257 -12.45689  -9.70613  -9.70548  -9.70484
 Alpha  occ. eigenvalues --   -7.63655  -1.44864  -0.84544  -0.73680  -0.72386
 Alpha  occ. eigenvalues --   -0.38203  -0.26233
 Alpha virt. eigenvalues --    0.07592   0.16200   0.28214   0.29010   0.31634
 Alpha virt. eigenvalues --    0.35204   0.46876   0.48099   0.48290   0.50010
 Alpha virt. eigenvalues --    0.51196   0.56142   0.57659   0.71507   0.71511

 Mulliken charges and spin densities:
               1          2
     1  B   -0.542370   0.970292
     2  Ar   0.542370   0.029708
 Sum of Mulliken charges =  -0.00000   1.00000

 Dipole moment (field-independent basis, Debye):
    X=              0.0000    Y=              0.0000    Z=              4.9598  Tot=              4.9598
 Quadrupole moment (field-independent basis, Debye-Ang):
   XX=            -20.7425   YY=            -17.5405   ZZ=            -25.8641
   XY=              0.0000   XZ=              0.0000   YZ=              0.0000

 58\CCSD(T)=-551.5370546\RMSD=6.650e-09\PG=C*V [C*(B1Ar1)]\\@
 Normal termination of Gaussian 16 at Tue Feb 13 12:29:01 2024.
