 Gaussian 16, Revision A.03,
 Gaussian 16:  ES64L-G16RevA.03 25-Dec-2016

 --------------------
 #p ROCCSD(T)/cc-pVTZ
 --------------------

 -------
 B_Ar_19
 -------
 Symbolic Z-matrix:
 Charge =  0 Multiplicity = 2

                         Standard orientation:
 ---------------------------------------------------------------------
 Center     Atomic      Atomic             Coordinates (Angstroms)
 Number     Number       Type             X           Y           Z
 ---------------------------------------------------------------------
      1          5           0        0.000000    0.000000   -1.072174
      2         18           0        0.000000    0.000000    0.297826
 ---------------------------------------------------------------------

 SCF Done:  E(ROHF) =  -551.067442883     A.U. after   12 cycles
 E2 =    -0.2859246647D+00 EUMP2 =    -0.55135336754725D+03
 CCSD(T)
 CCSD(T)= -0.55139350359D+03

 Unable to determine electronic state:  an orbital has unidentified symmetry.
 Alpha  occ. eigenvalues -- -118.77406 -12.49551  -9.74534  -9.74329  -9.74259
 Alpha  occ. eigenvalues --   -7.61378  -1.53267  -0.92206  -0.80008  -0.77669
 Alpha  occ. eigenvalues --   -0.34660  -0.24932
 Alpha virt. eigenvalues --    0.08951   0.15612   0.24986   0.27620   0.32145
 Alpha virt. eigenvalues --    0.34311   0.44391   0.44414   0.50436   0.51838
 Alpha virt. eigenvalues --    0.54187   0.60574   0.62716   0.74496   0.74499

 Mulliken charges and spin densities:
               1          2
     1  B   -0.912696   0.907286
     2  Ar   0.912696   0.092714
 Sum of Mulliken charges =  -0.00000   1.00000

 Dipole moment (field-independent basis, Debye):
    X=              0.0000    Y=              0.0000    Z=              5.8772  Tot=              5.8772
 Quadrupole moment (field-independent basis, Debye-Ang):
   XX=            -20.2920   YY=            -17.4090   ZZ=            -26.0626
   XY=              0.0000   XZ=              0.0000   YZ=              0.0000

 94\CCSD(T)=-551.3935036\RMSD=2.003e-09\PG=C*V [C*(B1Ar1)]\\@
 Normal termination of Gaussian 16 at Tue Feb 13 12:27:54 2024.
