 Gaussian 16, Revision A.03,
 Gaussian 16:  ES64L-G16RevA.03 25-Dec-2016

 --------------------
 #p ROCCSD(T)/cc-pVTZ
 --------------------

 -------
 B_Ar_37
 -------
 Symbolic Z-matrix:
 Charge =  0 Multiplicity = 2

                         Standard orientation:
 ---------------------------------------------------------------------
 Center     Atomic      Atomic             Coordinates (Angstroms)
 Number     Number       Type             X           Y           Z
 ---------------------------------------------------------------------
      1          5           0        0.000000    0.000000   -1.494783
      2         18           0        0.000000    0.000000    0.415217
 ---------------------------------------------------------------------

 SCF Done:  E(ROHF) =  -551.272892329     A.U. after   11 cycles
 E2 =    -0.2735472714D+00 EUMP2 =    -0.55154643960038D+03
 CCSD(T)
 CCSD(T)= -0.55159055519D+03

 Unable to determine electronic state:  an orbital has unidentified symmetry.
 Alpha  occ. eigenvalues -- -118.69494 -12.40750  -9.65653  -9.65617  -9.65576
 Alpha  occ. eigenvalues --   -7.65721  -1.37856  -0.76257  -0.68020  -0.67376
 Alpha  occ. eigenvalues --   -0.42707  -0.27672
 Alpha virt. eigenvalues --    0.06542   0.14645   0.28067   0.29683   0.34035
 Alpha virt. eigenvalues --    0.36835   0.44662   0.50896   0.51342   0.51382
 Alpha virt. eigenvalues --    0.52199   0.54064   0.54443   0.70478   0.70480

 Mulliken charges and spin densities:
               1          2
     1  B   -0.287999   0.990860
     2  Ar   0.287999   0.009140
 Sum of Mulliken charges =  -0.00000   1.00000

 Dipole moment (field-independent basis, Debye):
    X=              0.0000    Y=              0.0000    Z=              3.3745  Tot=              3.3745
 Quadrupole moment (field-independent basis, Debye-Ang):
   XX=            -17.5482   YY=            -20.8736   ZZ=            -23.9328
   XY=              0.0000   XZ=              0.0000   YZ=              0.0000

 64\CCSD(T)=-551.5905552\RMSD=4.585e-09\PG=C*V [C*(B1Ar1)]\\@
 Normal termination of Gaussian 16 at Tue Feb 13 12:30:09 2024.
