 Gaussian 16, Revision A.03,
 Gaussian 16:  ES64L-G16RevA.03 25-Dec-2016

 --------------------
 #p ROCCSD(T)/cc-pVTZ
 --------------------

 -------
 B_Ar_49
 -------
 Symbolic Z-matrix:
 Charge =  0 Multiplicity = 2

                         Standard orientation:
 ---------------------------------------------------------------------
 Center     Atomic      Atomic             Coordinates (Angstroms)
 Number     Number       Type             X           Y           Z
 ---------------------------------------------------------------------
      1          5           0        0.000000    0.000000   -1.776522
      2         18           0        0.000000    0.000000    0.493478
 ---------------------------------------------------------------------

 SCF Done:  E(ROHF) =  -551.312190328     A.U. after   11 cycles
 E2 =    -0.2651756564D+00 EUMP2 =    -0.55157736598420D+03
 CCSD(T)
 CCSD(T)= -0.55162226998D+03

 Unable to determine electronic state:  an orbital has unidentified symmetry.
 Alpha  occ. eigenvalues -- -118.64874 -12.36086  -9.60981  -9.60964  -9.60947
 Alpha  occ. eigenvalues --   -7.67751  -1.32210  -0.68149  -0.63133  -0.62927
 Alpha  occ. eigenvalues --   -0.47840  -0.29256
 Alpha virt. eigenvalues --    0.05459   0.10265   0.29749   0.30779   0.34752
 Alpha virt. eigenvalues --    0.36888   0.47019   0.49998   0.51156   0.53417
 Alpha virt. eigenvalues --    0.53442   0.55831   0.55994   0.70865   0.70867

 Mulliken charges and spin densities:
               1          2
     1  B   -0.108974   0.998007
     2  Ar   0.108974   0.001993
 Sum of Mulliken charges =  -0.00000   1.00000

 Dipole moment (field-independent basis, Debye):
    X=              0.0000    Y=              0.0000    Z=              1.6274  Tot=              1.6274
 Quadrupole moment (field-independent basis, Debye-Ang):
   XX=            -20.9199   YY=            -17.5549   ZZ=            -21.0666
   XY=              0.0000   XZ=              0.0000   YZ=              0.0000

 \CCSD(T)=-551.62227\RMSD=1.707e-09\PG=C*V [C*(B1Ar1)]\\@
 Normal termination of Gaussian 16 at Tue Feb 13 12:31:41 2024.
