 Gaussian 16, Revision A.03,
 Gaussian 16:  ES64L-G16RevA.03 25-Dec-2016

 --------------------
 #p ROCCSD(T)/cc-pVTZ
 --------------------

 -------
 B_Ar_43
 -------
 Symbolic Z-matrix:
 Charge =  0 Multiplicity = 2

                         Standard orientation:
 ---------------------------------------------------------------------
 Center     Atomic      Atomic             Coordinates (Angstroms)
 Number     Number       Type             X           Y           Z
 ---------------------------------------------------------------------
      1          5           0        0.000000    0.000000   -1.635652
      2         18           0        0.000000    0.000000    0.454348
 ---------------------------------------------------------------------

 SCF Done:  E(ROHF) =  -551.296106166     A.U. after   11 cycles
 E2 =    -0.2691144378D+00 EUMP2 =    -0.55156522060344D+03
 CCSD(T)
 CCSD(T)= -0.55160979279D+03

 Unable to determine electronic state:  an orbital has unidentified symmetry.
 Alpha  occ. eigenvalues -- -118.66809 -12.38037  -9.62933  -9.62908  -9.62882
 Alpha  occ. eigenvalues --   -7.66836  -1.34516  -0.71699  -0.65162  -0.64785
 Alpha  occ. eigenvalues --   -0.45504  -0.28546
 Alpha virt. eigenvalues --    0.05945   0.12358   0.29333   0.29864   0.34631
 Alpha virt. eigenvalues --    0.37031   0.45393   0.50675   0.52111   0.52676
 Alpha virt. eigenvalues --    0.52705   0.54440   0.54639   0.70542   0.70542

 Mulliken charges and spin densities:
               1          2
     1  B   -0.179871   0.995791
     2  Ar   0.179871   0.004209
 Sum of Mulliken charges =  -0.00000   1.00000

 Dipole moment (field-independent basis, Debye):
    X=              0.0000    Y=              0.0000    Z=              2.3914  Tot=              2.3914
 Quadrupole moment (field-independent basis, Debye-Ang):
   XX=            -20.9021   YY=            -17.5482   ZZ=            -22.4033
   XY=              0.0000   XZ=              0.0000   YZ=              0.0000

 3\CCSD(T)=-551.6097928\RMSD=3.014e-09\PG=C*V [C*(B1Ar1)]\\@
 Normal termination of Gaussian 16 at Tue Feb 13 12:30:55 2024.
