 Gaussian 16, Revision A.03,
 Gaussian 16:  ES64L-G16RevA.03 25-Dec-2016

 --------------------
 #p ROCCSD(T)/cc-pVTZ
 --------------------

 -------
 B_Ar_85
 -------
 Symbolic Z-matrix:
 Charge =  0 Multiplicity = 2

                         Standard orientation:
 ---------------------------------------------------------------------
 Center     Atomic      Atomic             Coordinates (Angstroms)
 Number     Number       Type             X           Y           Z
 ---------------------------------------------------------------------
      1          5           0        0.000000    0.000000   -2.621739
      2         18           0        0.000000    0.000000    0.728261
 ---------------------------------------------------------------------

 SCF Done:  E(ROHF) =  -551.340059377     A.U. after   10 cycles
 E2 =    -0.2554584850D+00 EUMP2 =    -0.55159551786212D+03
 CCSD(T)
 CCSD(T)= -0.55164121515D+03

 Unable to determine electronic state:  an orbital has unidentified symmetry.
 Alpha  occ. eigenvalues -- -118.61552 -12.32717  -9.57611  -9.57610  -9.57610
 Alpha  occ. eigenvalues --   -7.69971  -1.28286  -0.60090  -0.59614  -0.59595
 Alpha  occ. eigenvalues --   -0.53563  -0.30794
 Alpha virt. eigenvalues --    0.04382   0.05168   0.28600   0.33777   0.33883
 Alpha virt. eigenvalues --    0.37063   0.50202   0.50939   0.51434   0.53942
 Alpha virt. eigenvalues --    0.54102   0.59285   0.59524   0.59642   0.72135

 Mulliken charges and spin densities:
               1          2
     1  B   -0.006484   0.999936
     2  Ar   0.006484   0.000064
 Sum of Mulliken charges =  -0.00000   1.00000

 Dipole moment (field-independent basis, Debye):
    X=              0.0000    Y=              0.0000    Z=              0.1465  Tot=              0.1465
 Quadrupole moment (field-independent basis, Debye-Ang):
   XX=            -20.9577   YY=            -17.5963   ZZ=            -17.9032
   XY=              0.0000   XZ=              0.0000   YZ=              0.0000

 2\CCSD(T)=-551.6412152\RMSD=5.276e-09\PG=C*V [C*(B1Ar1)]\\@
 Normal termination of Gaussian 16 at Tue Feb 13 12:36:14 2024.
