 Gaussian 16, Revision A.03,
 Gaussian 16:  ES64L-G16RevA.03 25-Dec-2016

 --------------------
 #p ROCCSD(T)/cc-pVTZ
 --------------------

 -------
 B_Ar_31
 -------
 Symbolic Z-matrix:
 Charge =  0 Multiplicity = 2

                         Standard orientation:
 ---------------------------------------------------------------------
 Center     Atomic      Atomic             Coordinates (Angstroms)
 Number     Number       Type             X           Y           Z
 ---------------------------------------------------------------------
      1          5           0        0.000000    0.000000   -1.353913
      2         18           0        0.000000    0.000000    0.376087
 ---------------------------------------------------------------------

 SCF Done:  E(ROHF) =  -551.238620664     A.U. after   11 cycles
 E2 =    -0.2778646423D+00 EUMP2 =    -0.55151648530582D+03
 CCSD(T)
 CCSD(T)= -0.55155992430D+03

 Unable to determine electronic state:  an orbital has unidentified symmetry.
 Alpha  occ. eigenvalues -- -118.72689 -12.44029  -9.68944  -9.68893  -9.68836
 Alpha  occ. eigenvalues --   -7.64397  -1.42297  -0.81681  -0.71661  -0.70624
 Alpha  occ. eigenvalues --   -0.39673  -0.26710
 Alpha virt. eigenvalues --    0.07223   0.16096   0.28179   0.28908   0.32658
 Alpha virt. eigenvalues --    0.35838   0.45688   0.49314   0.49387   0.50270
 Alpha virt. eigenvalues --    0.51392   0.55142   0.56359   0.70968   0.70972

 Mulliken charges and spin densities:
               1          2
     1  B   -0.443623   0.979913
     2  Ar   0.443623   0.020087
 Sum of Mulliken charges =  -0.00000   1.00000

 Dipole moment (field-independent basis, Debye):
    X=              0.0000    Y=              0.0000    Z=              4.4587  Tot=              4.4587
 Quadrupole moment (field-independent basis, Debye-Ang):
   XX=            -20.8074   YY=            -17.5481   ZZ=            -25.3492
   XY=              0.0000   XZ=              0.0000   YZ=              0.0000

 2\CCSD(T)=-551.5599243\RMSD=5.074e-09\PG=C*V [C*(B1Ar1)]\\@
 Normal termination of Gaussian 16 at Tue Feb 13 12:29:24 2024.
