 Gaussian 16, Revision A.03,
 Gaussian 16:  ES64L-G16RevA.03 25-Dec-2016

 --------------------
 #p ROCCSD(T)/cc-pVTZ
 --------------------

 -------
 B_Ar_52
 -------
 Symbolic Z-matrix:
 Charge =  0 Multiplicity = 2

                         Standard orientation:
 ---------------------------------------------------------------------
 Center     Atomic      Atomic             Coordinates (Angstroms)
 Number     Number       Type             X           Y           Z
 ---------------------------------------------------------------------
      1          5           0        0.000000    0.000000   -1.846957
      2         18           0        0.000000    0.000000    0.513043
 ---------------------------------------------------------------------

 SCF Done:  E(ROHF) =  -551.318177241     A.U. after   11 cycles
 E2 =    -0.2635026499D+00 EUMP2 =    -0.55158167989048D+03
 CCSD(T)
 CCSD(T)= -0.55162671539D+03

 Unable to determine electronic state:  an orbital has unidentified symmetry.
 Alpha  occ. eigenvalues -- -118.64163 -12.35368  -9.60262  -9.60248  -9.60236
 Alpha  occ. eigenvalues --   -7.68135  -1.31371  -0.66720  -0.62384  -0.62238
 Alpha  occ. eigenvalues --   -0.48819  -0.29543
 Alpha virt. eigenvalues --    0.05261   0.09393   0.29642   0.31389   0.34717
 Alpha virt. eigenvalues --    0.36865   0.47940   0.49690   0.50751   0.53633
 Alpha virt. eigenvalues --    0.53658   0.56556   0.56691   0.71051   0.71058

 Mulliken charges and spin densities:
               1          2
     1  B   -0.084217   0.998610
     2  Ar   0.084217   0.001390
 Sum of Mulliken charges =  -0.00000   1.00000

 Dipole moment (field-independent basis, Debye):
    X=              0.0000    Y=              0.0000    Z=              1.3302  Tot=              1.3302
 Quadrupole moment (field-independent basis, Debye-Ang):
   XX=            -20.9273   YY=            -17.5600   ZZ=            -20.5067
   XY=              0.0000   XZ=              0.0000   YZ=              0.0000

 03\CCSD(T)=-551.6267154\RMSD=1.173e-09\PG=C*V [C*(B1Ar1)]\\@
 Normal termination of Gaussian 16 at Tue Feb 13 12:32:04 2024.
