 Gaussian 16, Revision A.03,
 Gaussian 16:  ES64L-G16RevA.03 25-Dec-2016

 --------------------
 #p ROCCSD(T)/cc-pVTZ
 --------------------

 -------
 B_Ar_64
 -------
 Symbolic Z-matrix:
 Charge =  0 Multiplicity = 2

                         Standard orientation:
 ---------------------------------------------------------------------
 Center     Atomic      Atomic             Coordinates (Angstroms)
 Number     Number       Type             X           Y           Z
 ---------------------------------------------------------------------
      1          5           0        0.000000    0.000000   -2.128696
      2         18           0        0.000000    0.000000    0.591304
 ---------------------------------------------------------------------

 SCF Done:  E(ROHF) =  -551.332648921     A.U. after   10 cycles
 E2 =    -0.2587975429D+00 EUMP2 =    -0.55159144646424D+03
 CCSD(T)
 CCSD(T)= -0.55163685183D+03

 Unable to determine electronic state:  an orbital has unidentified symmetry.
 Alpha  occ. eigenvalues -- -118.62485 -12.33667  -9.58562  -9.58556  -9.58551
 Alpha  occ. eigenvalues --   -7.69221  -1.29390  -0.62802  -0.60594  -0.60574
 Alpha  occ. eigenvalues --   -0.51612  -0.30309
 Alpha virt. eigenvalues --    0.04726   0.06973   0.29154   0.32840   0.34342
 Alpha virt. eigenvalues --    0.37314   0.49069   0.49919   0.51562   0.53967
 Alpha virt. eigenvalues --    0.54023   0.58910   0.58931   0.63851   0.71729

 Mulliken charges and spin densities:
               1          2
     1  B   -0.029926   0.999629
     2  Ar   0.029926   0.000371
 Sum of Mulliken charges =  -0.00000   1.00000

 Dipole moment (field-independent basis, Debye):
    X=              0.0000    Y=              0.0000    Z=              0.5796  Tot=              0.5796
 Quadrupole moment (field-independent basis, Debye-Ang):
   XX=            -17.5810   YY=            -20.9486   ZZ=            -18.9556
   XY=              0.0000   XZ=              0.0000   YZ=              0.0000

 57\CCSD(T)=-551.6368518\RMSD=9.792e-09\PG=C*V [C*(B1Ar1)]\\@
 Normal termination of Gaussian 16 at Tue Feb 13 12:33:34 2024.
