 Gaussian 16, Revision A.03,
 Gaussian 16:  ES64L-G16RevA.03 25-Dec-2016

 --------------------
 #p ROCCSD(T)/cc-pVTZ
 --------------------

 -------
 B_Ar_30
 -------
 Symbolic Z-matrix:
 Charge =  0 Multiplicity = 2

                         Standard orientation:
 ---------------------------------------------------------------------
 Center     Atomic      Atomic             Coordinates (Angstroms)
 Number     Number       Type             X           Y           Z
 ---------------------------------------------------------------------
      1          5           0        0.000000    0.000000   -1.330435
      2         18           0        0.000000    0.000000    0.369565
 ---------------------------------------------------------------------

 SCF Done:  E(ROHF) =  -551.231219764     A.U. after   11 cycles
 E2 =    -0.2785392313D+00 EUMP2 =    -0.55150975899524D+03
 CCSD(T)
 CCSD(T)= -0.55155304769D+03

 Unable to determine electronic state:  an orbital has unidentified symmetry.
 Alpha  occ. eigenvalues -- -118.73224 -12.44590  -9.69508  -9.69453  -9.69393
 Alpha  occ. eigenvalues --   -7.64155  -1.43131  -0.82633  -0.72324  -0.71206
 Alpha  occ. eigenvalues --   -0.39174  -0.26549
 Alpha virt. eigenvalues --    0.07344   0.16174   0.28406   0.28701   0.32341
 Alpha virt. eigenvalues --    0.35625   0.46047   0.48920   0.49009   0.50166
 Alpha virt. eigenvalues --    0.51305   0.55447   0.56769   0.71124   0.71128

 Mulliken charges and spin densities:
               1          2
     1  B   -0.474903   0.977105
     2  Ar   0.474903   0.022895
 Sum of Mulliken charges =  -0.00000   1.00000

 Dipole moment (field-independent basis, Debye):
    X=              0.0000    Y=              0.0000    Z=              4.6321  Tot=              4.6321
 Quadrupole moment (field-independent basis, Debye-Ang):
   XX=            -17.5466   YY=            -20.7889   ZZ=            -25.5407
   XY=              0.0000   XZ=              0.0000   YZ=              0.0000

 CCSD(T)=-551.5530477\RMSD=5.179e-09\PG=C*V [C*(B1Ar1)]\\@
 Normal termination of Gaussian 16 at Tue Feb 13 12:29:16 2024.
