 Gaussian 16, Revision A.03,
 Gaussian 16:  ES64L-G16RevA.03 25-Dec-2016

 --------------------
 #p ROCCSD(T)/cc-pVTZ
 --------------------

 -------
 B_Ar_29
 -------
 Symbolic Z-matrix:
 Charge =  0 Multiplicity = 2

                         Standard orientation:
 ---------------------------------------------------------------------
 Center     Atomic      Atomic             Coordinates (Angstroms)
 Number     Number       Type             X           Y           Z
 ---------------------------------------------------------------------
      1          5           0        0.000000    0.000000   -1.306957
      2         18           0        0.000000    0.000000    0.363043
 ---------------------------------------------------------------------

 SCF Done:  E(ROHF) =  -551.223137130     A.U. after   11 cycles
 E2 =    -0.2792011312D+00 EUMP2 =    -0.55150233826068D+03
 CCSD(T)
 CCSD(T)= -0.55154546113D+03

 Unable to determine electronic state:  an orbital has unidentified symmetry.
 Alpha  occ. eigenvalues -- -118.73748 -12.45145  -9.70065  -9.70006  -9.69944
 Alpha  occ. eigenvalues --   -7.63908  -1.43988  -0.83589  -0.72997  -0.71794
 Alpha  occ. eigenvalues --   -0.38683  -0.26390
 Alpha virt. eigenvalues --    0.07466   0.16207   0.28470   0.28686   0.31999
 Alpha virt. eigenvalues --    0.35412   0.46452   0.48514   0.48634   0.50078
 Alpha virt. eigenvalues --    0.51239   0.55780   0.57203   0.71303   0.71307

 Mulliken charges and spin densities:
               1          2
     1  B   -0.507814   0.973914
     2  Ar   0.507814   0.026086
 Sum of Mulliken charges =  -0.00000   1.00000

 Dipole moment (field-independent basis, Debye):
    X=              0.0000    Y=              0.0000    Z=              4.7997  Tot=              4.7997
 Quadrupole moment (field-independent basis, Debye-Ang):
   XX=            -17.5441   YY=            -20.7675   ZZ=            -25.7131
   XY=              0.0000   XZ=              0.0000   YZ=              0.0000

 21\CCSD(T)=-551.5454611\RMSD=5.927e-09\PG=C*V [C*(B1Ar1)]\\@
 Normal termination of Gaussian 16 at Tue Feb 13 12:29:09 2024.
