 Gaussian 16, Revision A.03,
 Gaussian 16:  ES64L-G16RevA.03 25-Dec-2016

 --------------------
 #p ROCCSD(T)/cc-pVTZ
 --------------------

 -------
 B_Ar_80
 -------
 Symbolic Z-matrix:
 Charge =  0 Multiplicity = 2

                         Standard orientation:
 ---------------------------------------------------------------------
 Center     Atomic      Atomic             Coordinates (Angstroms)
 Number     Number       Type             X           Y           Z
 ---------------------------------------------------------------------
      1          5           0        0.000000    0.000000   -2.504348
      2         18           0        0.000000    0.000000    0.695652
 ---------------------------------------------------------------------

 SCF Done:  E(ROHF) =  -551.339277207     A.U. after   10 cycles
 E2 =    -0.2559214406D+00 EUMP2 =    -0.55159519864719D+03
 CCSD(T)
 CCSD(T)= -0.55164085280D+03

 Unable to determine electronic state:  an orbital has unidentified symmetry.
 Alpha  occ. eigenvalues -- -118.61674 -12.32841  -9.57735  -9.57733  -9.57733
 Alpha  occ. eigenvalues --   -7.69874  -1.28428  -0.60447  -0.59739  -0.59722
 Alpha  occ. eigenvalues --   -0.53318  -0.30733
 Alpha virt. eigenvalues --    0.04426   0.05437   0.28683   0.33673   0.33865
 Alpha virt. eigenvalues --    0.37451   0.49754   0.50506   0.52403   0.53960
 Alpha virt. eigenvalues --    0.54230   0.58728   0.59623   0.59911   0.72237

 Mulliken charges and spin densities:
               1          2
     1  B   -0.008864   0.999909
     2  Ar   0.008864   0.000091
 Sum of Mulliken charges =  -0.00000   1.00000

 Dipole moment (field-independent basis, Debye):
    X=              0.0000    Y=              0.0000    Z=              0.1986  Tot=              0.1986
 Quadrupole moment (field-independent basis, Debye-Ang):
   XX=            -17.5950   YY=            -20.9576   ZZ=            -18.0418
   XY=              0.0000   XZ=              0.0000   YZ=              0.0000

 6\CCSD(T)=-551.6408528\RMSD=7.075e-09\PG=C*V [C*(B1Ar1)]\\@
 Normal termination of Gaussian 16 at Tue Feb 13 12:35:36 2024.
