 Gaussian 16, Revision A.03,
 Gaussian 16:  ES64L-G16RevA.03 25-Dec-2016

 --------------------
 #p ROCCSD(T)/cc-pVTZ
 --------------------

 -------
 B_Ar_59
 -------
 Symbolic Z-matrix:
 Charge =  0 Multiplicity = 2

                         Standard orientation:
 ---------------------------------------------------------------------
 Center     Atomic      Atomic             Coordinates (Angstroms)
 Number     Number       Type             X           Y           Z
 ---------------------------------------------------------------------
      1          5           0        0.000000    0.000000   -2.011304
      2         18           0        0.000000    0.000000    0.558696
 ---------------------------------------------------------------------

 SCF Done:  E(ROHF) =  -551.328119214     A.U. after   10 cycles
 E2 =    -0.2604030800D+00 EUMP2 =    -0.55158852229384D+03
 CCSD(T)
 CCSD(T)= -0.55163379887D+03

 Unable to determine electronic state:  an orbital has unidentified symmetry.
 Alpha  occ. eigenvalues -- -118.63005 -12.34196  -9.59090  -9.59082  -9.59075
 Alpha  occ. eigenvalues --   -7.68848  -1.30006  -0.64132  -0.61153  -0.61097
 Alpha  occ. eigenvalues --   -0.50648  -0.30055
 Alpha virt. eigenvalues --    0.04905   0.07799   0.29355   0.32401   0.34520
 Alpha virt. eigenvalues --    0.37056   0.49198   0.50110   0.50111   0.53898
 Alpha virt. eigenvalues --    0.53929   0.58074   0.58126   0.67272   0.71479

 Mulliken charges and spin densities:
               1          2
     1  B   -0.045895   0.999372
     2  Ar   0.045895   0.000628
 Sum of Mulliken charges =  -0.00000   1.00000

 Dipole moment (field-independent basis, Debye):
    X=              0.0000    Y=              0.0000    Z=              0.8210  Tot=              0.8210
 Quadrupole moment (field-independent basis, Debye-Ang):
   XX=            -17.5729   YY=            -20.9414   ZZ=            -19.4805
   XY=              0.0000   XZ=              0.0000   YZ=              0.0000

 \CCSD(T)=-551.6337989\RMSD=9.952e-09\PG=C*V [C*(B1Ar1)]\\@
 Normal termination of Gaussian 16 at Tue Feb 13 12:32:57 2024.
