 Gaussian 16, Revision A.03,
 Gaussian 16:  ES64L-G16RevA.03 25-Dec-2016

 --------------------
 #p ROCCSD(T)/cc-pVTZ
 --------------------

 -------
 B_Ar_18
 -------
 Symbolic Z-matrix:
 Charge =  0 Multiplicity = 2

                         Standard orientation:
 ---------------------------------------------------------------------
 Center     Atomic      Atomic             Coordinates (Angstroms)
 Number     Number       Type             X           Y           Z
 ---------------------------------------------------------------------
      1          5           0        0.000000    0.000000   -1.048696
      2         18           0        0.000000    0.000000    0.291304
 ---------------------------------------------------------------------

 SCF Done:  E(ROHF) =  -551.038120960     A.U. after   12 cycles
 E2 =    -0.2866989805D+00 EUMP2 =    -0.55132481994033D+03
 CCSD(T)
 CCSD(T)= -0.55136449288D+03

 Unable to determine electronic state:  an orbital has unidentified symmetry.
 Alpha  occ. eigenvalues -- -118.77536 -12.49826  -9.74822  -9.74580  -9.74512
 Alpha  occ. eigenvalues --   -7.61178  -1.54200  -0.92847  -0.80731  -0.78253
 Alpha  occ. eigenvalues --   -0.34369  -0.24800
 Alpha virt. eigenvalues --    0.09148   0.15579   0.24555   0.27127   0.32367
 Alpha virt. eigenvalues --    0.34404   0.44024   0.44055   0.50594   0.52011
 Alpha virt. eigenvalues --    0.55225   0.61184   0.63363   0.74952   0.74960

 Mulliken charges and spin densities:
               1          2
     1  B   -0.957157   0.895212
     2  Ar   0.957157   0.104788
 Sum of Mulliken charges =  -0.00000   1.00000

 Dipole moment (field-independent basis, Debye):
    X=              0.0000    Y=              0.0000    Z=              5.9082  Tot=              5.9082
 Quadrupole moment (field-independent basis, Debye-Ang):
   XX=            -17.3767   YY=            -20.2083   ZZ=            -25.9539
   XY=              0.0000   XZ=              0.0000   YZ=              0.0000

 \CCSD(T)=-551.3644929\RMSD=2.050e-09\PG=C*V [C*(B1Ar1)]\\@
 Normal termination of Gaussian 16 at Tue Feb 13 12:27:46 2024.
