 Gaussian 16, Revision A.03,
 Gaussian 16:  ES64L-G16RevA.03 25-Dec-2016

 --------------------
 #p ROCCSD(T)/cc-pVTZ
 --------------------

 -------
 B_Ar_60
 -------
 Symbolic Z-matrix:
 Charge =  0 Multiplicity = 2

                         Standard orientation:
 ---------------------------------------------------------------------
 Center     Atomic      Atomic             Coordinates (Angstroms)
 Number     Number       Type             X           Y           Z
 ---------------------------------------------------------------------
      1          5           0        0.000000    0.000000   -2.034783
      2         18           0        0.000000    0.000000    0.565217
 ---------------------------------------------------------------------

 SCF Done:  E(ROHF) =  -551.329168475     A.U. after   11 cycles
 E2 =    -0.2600452533D+00 EUMP2 =    -0.55158921372880D+03
 CCSD(T)
 CCSD(T)= -0.55163451859D+03

 Unable to determine electronic state:  an orbital has unidentified symmetry.
 Alpha  occ. eigenvalues -- -118.62884 -12.34074  -9.58968  -9.58960  -9.58954
 Alpha  occ. eigenvalues --   -7.68931  -1.29864  -0.63836  -0.61024  -0.60977
 Alpha  occ. eigenvalues --   -0.50861  -0.30112
 Alpha virt. eigenvalues --    0.04864   0.07615   0.29314   0.32504   0.34485
 Alpha virt. eigenvalues --    0.37105   0.49157   0.50056   0.50412   0.53917
 Alpha virt. eigenvalues --    0.53951   0.58263   0.58301   0.66576   0.71532

 Mulliken charges and spin densities:
               1          2
     1  B   -0.042099   0.999437
     2  Ar   0.042099   0.000563
 Sum of Mulliken charges =   0.00000   1.00000

 Dipole moment (field-independent basis, Debye):
    X=              0.0000    Y=              0.0000    Z=              0.7657  Tot=              0.7657
 Quadrupole moment (field-independent basis, Debye-Ang):
   XX=            -20.9431   YY=            -17.5747   ZZ=            -19.3630
   XY=              0.0000   XZ=              0.0000   YZ=              0.0000

 6\CCSD(T)=-551.6345186\RMSD=1.477e-09\PG=C*V [C*(B1Ar1)]\\@
 Normal termination of Gaussian 16 at Tue Feb 13 12:33:04 2024.
