 Gaussian 16, Revision A.03,
 Gaussian 16:  ES64L-G16RevA.03 25-Dec-2016

 --------------------
 #p ROCCSD(T)/cc-pVTZ
 --------------------

 -------
 B_Ar_97
 -------
 Symbolic Z-matrix:
 Charge =  0 Multiplicity = 2

                         Standard orientation:
 ---------------------------------------------------------------------
 Center     Atomic      Atomic             Coordinates (Angstroms)
 Number     Number       Type             X           Y           Z
 ---------------------------------------------------------------------
      1          5           0        0.000000    0.000000   -2.903478
      2         18           0        0.000000    0.000000    0.806522
 ---------------------------------------------------------------------

 SCF Done:  E(ROHF) =  -551.340946303     A.U. after   10 cycles
 E2 =    -0.2547758479D+00 EUMP2 =    -0.55159572215102D+03
 CCSD(T)
 CCSD(T)= -0.55164148546D+03

 Unable to determine electronic state:  an orbital has unidentified symmetry.
 Alpha  occ. eigenvalues -- -118.61363 -12.32526  -9.57420  -9.57420  -9.57420
 Alpha  occ. eigenvalues --   -7.70102  -1.28075  -0.59602  -0.59423  -0.59406
 Alpha  occ. eigenvalues --   -0.53867  -0.30878
 Alpha virt. eigenvalues --    0.04324   0.04740   0.28503   0.33677   0.34315
 Alpha virt. eigenvalues --    0.35546   0.50290   0.51417   0.52134   0.53905
 Alpha virt. eigenvalues --    0.53997   0.57910   0.58364   0.61487   0.71987

 Mulliken charges and spin densities:
               1          2
     1  B   -0.003428   0.999969
     2  Ar   0.003428   0.000031
 Sum of Mulliken charges =   0.00000   1.00000

 Dipole moment (field-independent basis, Debye):
    X=              0.0000    Y=              0.0000    Z=              0.0773  Tot=              0.0773
 Quadrupole moment (field-independent basis, Debye-Ang):
   XX=            -17.5971   YY=            -20.9565   ZZ=            -17.7137
   XY=              0.0000   XZ=              0.0000   YZ=              0.0000

 7\CCSD(T)=-551.6414855\RMSD=2.512e-09\PG=C*V [C*(B1Ar1)]\\@
 Normal termination of Gaussian 16 at Tue Feb 13 12:37:45 2024.
