 Gaussian 16, Revision A.03,
 Gaussian 16:  ES64L-G16RevA.03 25-Dec-2016

 --------------------
 #p ROCCSD(T)/cc-pVTZ
 --------------------

 -------
 B_Ar_88
 -------
 Symbolic Z-matrix:
 Charge =  0 Multiplicity = 2

                         Standard orientation:
 ---------------------------------------------------------------------
 Center     Atomic      Atomic             Coordinates (Angstroms)
 Number     Number       Type             X           Y           Z
 ---------------------------------------------------------------------
      1          5           0        0.000000    0.000000   -2.692174
      2         18           0        0.000000    0.000000    0.747826
 ---------------------------------------------------------------------

 SCF Done:  E(ROHF) =  -551.340382756     A.U. after   10 cycles
 E2 =    -0.2552403086D+00 EUMP2 =    -0.55159562306482D+03
 CCSD(T)
 CCSD(T)= -0.55164134108D+03

 Unable to determine electronic state:  an orbital has unidentified symmetry.
 Alpha  occ. eigenvalues -- -118.61494 -12.32658  -9.57552  -9.57551  -9.57551
 Alpha  occ. eigenvalues --   -7.70015  -1.28220  -0.59928  -0.59554  -0.59535
 Alpha  occ. eigenvalues --   -0.53669  -0.30822
 Alpha virt. eigenvalues --    0.04363   0.05037   0.28563   0.33739   0.34003
 Alpha virt. eigenvalues --    0.36736   0.50497   0.50950   0.51226   0.53931
 Alpha virt. eigenvalues --    0.54060   0.58991   0.59382   0.60078   0.72071

 Mulliken charges and spin densities:
               1          2
     1  B   -0.005456   0.999948
     2  Ar   0.005456   0.000052
 Sum of Mulliken charges =   0.00000   1.00000

 Dipole moment (field-independent basis, Debye):
    X=              0.0000    Y=              0.0000    Z=              0.1234  Tot=              0.1234
 Quadrupole moment (field-independent basis, Debye-Ang):
   XX=            -17.5968   YY=            -20.9575   ZZ=            -17.8400
   XY=              0.0000   XZ=              0.0000   YZ=              0.0000

 22\CCSD(T)=-551.6413411\RMSD=4.309e-09\PG=C*V [C*(B1Ar1)]\\@
 Normal termination of Gaussian 16 at Tue Feb 13 12:36:37 2024.
