 Gaussian 16, Revision A.03,
 Gaussian 16:  ES64L-G16RevA.03 25-Dec-2016

 --------------------
 #p ROCCSD(T)/cc-pVTZ
 --------------------

 -------
 B_Ar_11
 -------
 Symbolic Z-matrix:
 Charge =  0 Multiplicity = 2

                         Standard orientation:
 ---------------------------------------------------------------------
 Center     Atomic      Atomic             Coordinates (Angstroms)
 Number     Number       Type             X           Y           Z
 ---------------------------------------------------------------------
      1          5           0        0.000000    0.000000   -0.884348
      2         18           0        0.000000    0.000000    0.245652
 ---------------------------------------------------------------------

 SCF Done:  E(ROHF) =  -550.665029528     A.U. after   12 cycles
 E2 =    -0.2925252290D+00 EUMP2 =    -0.55095755475742D+03
 CCSD(T)
 CCSD(T)= -0.55099342442D+03

 Unable to determine electronic state:  an orbital has unidentified symmetry.
 Alpha  occ. eigenvalues -- -118.76989 -12.51024  -9.76256  -9.75386  -9.75363
 Alpha  occ. eigenvalues --   -7.61355  -1.59631  -0.95049  -0.86190  -0.82709
 Alpha  occ. eigenvalues --   -0.32819  -0.24027
 Alpha virt. eigenvalues --    0.10978   0.15643   0.21420   0.23592   0.33087
 Alpha virt. eigenvalues --    0.36344   0.41928   0.42038   0.52048   0.53578
 Alpha virt. eigenvalues --    0.63034   0.65864   0.68100   0.75115   0.78805

 Mulliken charges and spin densities:
               1          2
     1  B   -1.266056   0.759067
     2  Ar   1.266056   0.240933
 Sum of Mulliken charges =  -0.00000   1.00000

 Dipole moment (field-independent basis, Debye):
    X=              0.0000    Y=              0.0000    Z=              5.7219  Tot=              5.7219
 Quadrupole moment (field-independent basis, Debye-Ang):
   XX=            -19.3559   YY=            -16.9748   ZZ=            -24.6827
   XY=              0.0000   XZ=              0.0000   YZ=              0.0000

 6\CCSD(T)=-550.9934244\RMSD=2.982e-09\PG=C*V [C*(B1Ar1)]\\@
 Normal termination of Gaussian 16 at Tue Feb 13 12:26:53 2024.
