 Gaussian 16, Revision A.03,
 Gaussian 16:  ES64L-G16RevA.03 25-Dec-2016

 --------------------
 #p ROCCSD(T)/cc-pVTZ
 --------------------

 -------
 B_Ar_66
 -------
 Symbolic Z-matrix:
 Charge =  0 Multiplicity = 2

                         Standard orientation:
 ---------------------------------------------------------------------
 Center     Atomic      Atomic             Coordinates (Angstroms)
 Number     Number       Type             X           Y           Z
 ---------------------------------------------------------------------
      1          5           0        0.000000    0.000000   -2.175652
      2         18           0        0.000000    0.000000    0.604348
 ---------------------------------------------------------------------

 SCF Done:  E(ROHF) =  -551.334021770     A.U. after   10 cycles
 E2 =    -0.2582728050D+00 EUMP2 =    -0.55159229457455D+03
 CCSD(T)
 CCSD(T)= -0.55163774333D+03

 Unable to determine electronic state:  an orbital has unidentified symmetry.
 Alpha  occ. eigenvalues -- -118.62326 -12.33505  -9.58400  -9.58395  -9.58391
 Alpha  occ. eigenvalues --   -7.69342  -1.29201  -0.62367  -0.60423  -0.60412
 Alpha  occ. eigenvalues --   -0.51929  -0.30390
 Alpha virt. eigenvalues --    0.04669   0.06701   0.29079   0.32975   0.34271
 Alpha virt. eigenvalues --    0.37414   0.49069   0.49900   0.52077   0.53978
 Alpha virt. eigenvalues --    0.54061   0.59155   0.59208   0.62578   0.71816

 Mulliken charges and spin densities:
               1          2
     1  B   -0.025322   0.999696
     2  Ar   0.025322   0.000304
 Sum of Mulliken charges =   0.00000   1.00000

 Dipole moment (field-independent basis, Debye):
    X=              0.0000    Y=              0.0000    Z=              0.5045  Tot=              0.5045
 Quadrupole moment (field-independent basis, Debye-Ang):
   XX=            -17.5838   YY=            -20.9508   ZZ=            -18.7855
   XY=              0.0000   XZ=              0.0000   YZ=              0.0000

 59\CCSD(T)=-551.6377433\RMSD=9.257e-09\PG=C*V [C*(B1Ar1)]\\@
 Normal termination of Gaussian 16 at Tue Feb 13 12:33:49 2024.
