 Gaussian 16, Revision A.03,
 Gaussian 16:  ES64L-G16RevA.03 25-Dec-2016

 --------------------
 #p ROCCSD(T)/cc-pVTZ
 --------------------

 -------
 B_Ar_82
 -------
 Symbolic Z-matrix:
 Charge =  0 Multiplicity = 2

                         Standard orientation:
 ---------------------------------------------------------------------
 Center     Atomic      Atomic             Coordinates (Angstroms)
 Number     Number       Type             X           Y           Z
 ---------------------------------------------------------------------
      1          5           0        0.000000    0.000000   -2.551304
      2         18           0        0.000000    0.000000    0.708696
 ---------------------------------------------------------------------

 SCF Done:  E(ROHF) =  -551.339632996     A.U. after   10 cycles
 E2 =    -0.2557194609D+00 EUMP2 =    -0.55159535245663D+03
 CCSD(T)
 CCSD(T)= -0.55164102530D+03

 Unable to determine electronic state:  an orbital has unidentified symmetry.
 Alpha  occ. eigenvalues -- -118.61621 -12.32787  -9.57681  -9.57680  -9.57679
 Alpha  occ. eigenvalues --   -7.69917  -1.28366  -0.60289  -0.59685  -0.59667
 Alpha  occ. eigenvalues --   -0.53427  -0.30760
 Alpha virt. eigenvalues --    0.04407   0.05321   0.28646   0.33759   0.33826
 Alpha virt. eigenvalues --    0.37322   0.49925   0.50671   0.52013   0.53953
 Alpha virt. eigenvalues --    0.54168   0.59004   0.59514   0.59832   0.72216

 Mulliken charges and spin densities:
               1          2
     1  B   -0.007791   0.999922
     2  Ar   0.007791   0.000078
 Sum of Mulliken charges =   0.00000   1.00000

 Dipole moment (field-independent basis, Debye):
    X=              0.0000    Y=              0.0000    Z=              0.1754  Tot=              0.1754
 Quadrupole moment (field-independent basis, Debye-Ang):
   XX=            -17.5956   YY=            -20.9577   ZZ=            -17.9807
   XY=              0.0000   XZ=              0.0000   YZ=              0.0000

 \CCSD(T)=-551.6410253\RMSD=6.356e-09\PG=C*V [C*(B1Ar1)]\\@
 Normal termination of Gaussian 16 at Tue Feb 13 12:35:51 2024.
