 Gaussian 16, Revision A.03,
 Gaussian 16:  ES64L-G16RevA.03 25-Dec-2016

 --------------------
 #p ROCCSD(T)/cc-pVTZ
 --------------------

 ------
 B_Ar_0
 ------
 Symbolic Z-matrix:
 Charge =  0 Multiplicity = 2

                         Standard orientation:
 ---------------------------------------------------------------------
 Center     Atomic      Atomic             Coordinates (Angstroms)
 Number     Number       Type             X           Y           Z
 ---------------------------------------------------------------------
      1          5           0        0.000000    0.000000   -0.626087
      2         18           0        0.000000    0.000000    0.173913
 ---------------------------------------------------------------------

 SCF Done:  E(ROHF) =  -548.447458682     A.U. after   13 cycles
 E2 =    -0.2940545353D+00 EUMP2 =    -0.54874151321752D+03
 CCSD(T)
 CCSD(T)= -0.54877489087D+03

 Unable to determine electronic state:  an orbital has unidentified symmetry.
 Alpha  occ. eigenvalues -- -118.80752 -12.61756  -9.89964  -9.83127  -9.82938
 Alpha  occ. eigenvalues --   -7.93887  -1.55799  -1.01502  -0.97347  -0.82744
 Alpha  occ. eigenvalues --   -0.30820  -0.25621
 Alpha virt. eigenvalues --    0.14866   0.15517   0.17313   0.17341   0.33086
 Alpha virt. eigenvalues --    0.39116   0.39172   0.45362   0.54492   0.56158
 Alpha virt. eigenvalues --    0.70388   0.72962   0.75360   0.81843   0.84541

 Mulliken charges and spin densities:
               1          2
     1  B   -1.965103   0.246800
     2  Ar   1.965103   0.753200
 Sum of Mulliken charges =  -0.00000   1.00000

 Dipole moment (field-independent basis, Debye):
    X=              0.0000    Y=              0.0000    Z=              4.5526  Tot=              4.5526
 Quadrupole moment (field-independent basis, Debye-Ang):
   XX=            -15.5289   YY=            -17.2755   ZZ=            -22.9525
   XY=              0.0000   XZ=              0.0000   YZ=              0.0000

 Normal termination of Gaussian 16 at Tue Feb 13 12:25:31 2024.
