 Gaussian 16, Revision A.03,
 Gaussian 16:  ES64L-G16RevA.03 25-Dec-2016

 ------------------
 #p CCSD(T)/CEP-31G
 ------------------

 ---
 H2O
 ---
 Symbolic Z-matrix:
 Charge =  0 Multiplicity = 1

                         Standard orientation:
 ---------------------------------------------------------------------
 Center     Atomic      Atomic             Coordinates (Angstroms)
 Number     Number       Type             X           Y           Z
 ---------------------------------------------------------------------
      1          8           0        0.000000   -0.000000    0.114226
      2          1           0        0.000000    0.799571   -0.456906
      3          1           0       -0.000000   -0.799571   -0.456906
 ---------------------------------------------------------------------

 SCF Done:  E(RHF) =  -16.8259233277     A.U. after   10 cycles
 E2 =    -0.1141842296D+00 EUMP2 =    -0.16940107557285D+02
 CCSD(T)
 CCSD(T)= -0.16948607231D+02

 The electronic state is 1-A1.
 Alpha  occ. eigenvalues --   -1.35646  -0.71279  -0.55383  -0.50219
 Alpha virt. eigenvalues --    0.20129   0.30369   0.80331   0.83356   0.86466
 Alpha virt. eigenvalues --    1.17258   1.21716   2.57273

 Mulliken charges:
               1
     1  O   -0.741330
     2  H    0.370665
     3  H    0.370665
 Sum of Mulliken charges =   0.00000

 Dipole moment (field-independent basis, Debye):
    X=             -0.0000    Y=              0.0000    Z=             -2.6441  Tot=              2.6441
 Quadrupole moment (field-independent basis, Debye-Ang):
   XX=             -7.4942   YY=             -4.0094   ZZ=             -6.4613
   XY=              0.0000   XZ=              0.0000   YZ=              0.0000

 CCSD(T)/CEP-31G\\H2O\\0,1\O,0,0.,-0.009833,0.\H,0,-0.799571,-0.580965,
 9457853\MP4SDQ=-16.946799\CCSD=-16.9473269\CCSD(T)=-16.9486072\RMSD=6.
 Normal termination of Gaussian 16 at Wed Nov 22 18:30:03 2023.
