 Gaussian 16, Revision A.03,
 Gaussian 16:  ES64L-G16RevA.03 25-Dec-2016

 --------------------
 #p ROCCSD(T)/cc-pVTZ
 --------------------

 ---------
 O2_O2_209
 ---------
 Symbolic Z-matrix:
 Charge =  0 Multiplicity = 5

                         Standard orientation:
 ---------------------------------------------------------------------
 Center     Atomic      Atomic             Coordinates (Angstroms)
 Number     Number       Type             X           Y           Z
 ---------------------------------------------------------------------
      1          8           0       -0.870000   -2.170000    0.000000
      2          8           0        0.290000   -2.170000    0.000000
      3          8           0        0.290000    1.590000    0.000000
      4          8           0        0.290000    2.750000    0.000000
 ---------------------------------------------------------------------

 SCF Done:  E(ROHF) =  -299.316665898     A.U. after   16 cycles
 E2 =    -0.9225335623D+00 EUMP2 =    -0.30023919946012D+03
 CCSD(T)
 CCSD(T)= -0.30024994046D+03

 The electronic state is 5-A'.
 Alpha  occ. eigenvalues --  -20.74097 -20.74019 -20.73997 -20.73920  -1.74593
 Alpha  occ. eigenvalues --   -1.74491  -1.17142  -1.17035  -0.83874  -0.83874
 Alpha  occ. eigenvalues --   -0.83771  -0.83765  -0.78241  -0.78099  -0.51094
 Alpha  occ. eigenvalues --   -0.51071  -0.50967  -0.50937
 Alpha virt. eigenvalues --    0.40115   0.41667   0.64266   0.67485   0.67829
 Alpha virt. eigenvalues --    0.68428   0.72064   0.74265   0.77077   0.78231
 Alpha virt. eigenvalues --    0.79434   0.79960   0.80166   0.82742   0.86950

 Mulliken charges and spin densities:
               1          2
     1  O   -0.000177   0.999846
     2  O    0.000448   1.000130
     3  O   -0.001309   0.999200
     4  O    0.001039   1.000824
 Sum of Mulliken charges =  -0.00000   4.00000

 Dipole moment (field-independent basis, Debye):
    X=              0.0021    Y=              0.0046    Z=              0.0000  Tot=              0.0050
 Quadrupole moment (field-independent basis, Debye-Ang):
   XX=            -20.2387   YY=            -20.2143   ZZ=            -19.6382
   XY=             -0.0001   XZ=              0.0000   YZ=              0.0000

 1995\MP4SDQ=-300.2211256\CCSD=-300.2146495\CCSD(T)=-300.2499405\RMSD=3
 Normal termination of Gaussian 16 at Tue Feb 13 17:58:18 2024.
