 Gaussian 16, Revision A.03,
 Gaussian 16:  ES64L-G16RevA.03 25-Dec-2016

 --------------------
 #p ROCCSD(T)/cc-pVTZ
 --------------------

 ---------
 O2_O2_265
 ---------
 Symbolic Z-matrix:
 Charge =  0 Multiplicity = 5

                         Standard orientation:
 ---------------------------------------------------------------------
 Center     Atomic      Atomic             Coordinates (Angstroms)
 Number     Number       Type             X           Y           Z
 ---------------------------------------------------------------------
      1          8           0        0.615183   -3.165183    0.000000
      2          8           0       -0.205061   -2.344939    0.000000
      3          8           0       -0.205061    2.175061   -0.000000
      4          8           0       -0.205061    3.335061   -0.000000
 ---------------------------------------------------------------------

 SCF Done:  E(ROHF) =  -299.316597918     A.U. after   16 cycles
 E2 =    -0.9223253695D+00 EUMP2 =    -0.30023892328781D+03
 CCSD(T)
 CCSD(T)= -0.30024969210D+03

 The electronic state is 5-A'.
 Alpha  occ. eigenvalues --  -20.74035 -20.74016 -20.73959 -20.73939  -1.74535
 Alpha  occ. eigenvalues --   -1.74515  -1.17079  -1.17058  -0.83815  -0.83815
 Alpha  occ. eigenvalues --   -0.83795  -0.83794  -0.78166  -0.78132  -0.51010
 Alpha  occ. eigenvalues --   -0.51010  -0.50989  -0.50988
 Alpha virt. eigenvalues --    0.40358   0.42388   0.67909   0.67960   0.68002
 Alpha virt. eigenvalues --    0.68041   0.71187   0.72758   0.77283   0.78516
 Alpha virt. eigenvalues --    0.79652   0.79780   0.79916   0.80404   0.87050

 Mulliken charges and spin densities:
               1          2
     1  O   -0.000426   0.999519
     2  O    0.000442   1.000471
     3  O    0.000216   1.000290
     4  O   -0.000232   0.999721
 Sum of Mulliken charges =  -0.00000   4.00000

 Dipole moment (field-independent basis, Debye):
    X=             -0.0022    Y=              0.0004    Z=              0.0000  Tot=              0.0023
 Quadrupole moment (field-independent basis, Debye-Ang):
   XX=            -19.9389   YY=            -20.5615   ZZ=            -19.6382
   XY=              0.3039   XZ=             -0.0000   YZ=              0.0000

 5979\PMP2-0=-300.2389233\MP4SDQ=-300.2208986\CCSD=-300.214425\CCSD(T)=
 Normal termination of Gaussian 16 at Tue Feb 13 19:43:15 2024.
