 Gaussian 16, Revision A.03,
 Gaussian 16:  ES64L-G16RevA.03 25-Dec-2016

 --------------------
 #p ROCCSD(T)/cc-pVTZ
 --------------------

 --------
 O2_O2_35
 --------
 Symbolic Z-matrix:
 Charge =  0 Multiplicity = 5

                         Standard orientation:
 ---------------------------------------------------------------------
 Center     Atomic      Atomic             Coordinates (Angstroms)
 Number     Number       Type             X           Y           Z
 ---------------------------------------------------------------------
      1          8           0       -0.870000   -1.010000    0.000000
      2          8           0        0.290000   -1.010000    0.000000
      3          8           0        0.290000    0.430000    0.000000
      4          8           0        0.290000    1.590000    0.000000
 ---------------------------------------------------------------------

 SCF Done:  E(ROHF) =  -299.063256642     A.U. after   21 cycles
 E2 =    -0.9092955369D+00 EUMP2 =    -0.29997255217876D+03
 CCSD(T)
 CCSD(T)= -0.30000130117D+03

 The electronic state is 5-A'.
 Alpha  occ. eigenvalues --  -20.75539 -20.74155 -20.72213 -20.66934  -1.82348
 Alpha  occ. eigenvalues --   -1.72778  -1.30622  -1.12548  -0.93208  -0.89841
 Alpha  occ. eigenvalues --   -0.87142  -0.80652  -0.76199  -0.62728  -0.55034
 Alpha  occ. eigenvalues --   -0.53696  -0.47463  -0.43231
 Alpha virt. eigenvalues --    0.41296   0.46442   0.61594   0.64470   0.67704
 Alpha virt. eigenvalues --    0.69933   0.72666   0.73600   0.79060   0.79603
 Alpha virt. eigenvalues --    0.82239   0.85822   0.87173   0.98614   1.00345

 Mulliken charges and spin densities:
               1          2
     1  O   -0.123813   0.838069
     2  O    0.066872   1.022568
     3  O    0.095629   1.084838
     4  O   -0.038688   1.054525
 Sum of Mulliken charges =  -0.00000   4.00000

 Dipole moment (field-independent basis, Debye):
    X=              0.6698    Y=              0.5217    Z=              0.0000  Tot=              0.8490
 Quadrupole moment (field-independent basis, Debye-Ang):
   XX=            -20.7024   YY=            -21.6693   ZZ=            -19.2859
   XY=             -0.5687   XZ=              0.0000   YZ=              0.0000

 22\MP4SDQ=-299.9664559\CCSD=-299.9647234\CCSD(T)=-300.0013012\RMSD=6.3
 Normal termination of Gaussian 16 at Tue Feb 13 13:07:43 2024.
