 Gaussian 16, Revision A.03,
 Gaussian 16:  ES64L-G16RevA.03 25-Dec-2016

 --------------------
 #p ROCCSD(T)/cc-pVTZ
 --------------------

 ---------
 O2_O2_192
 ---------
 Symbolic Z-matrix:
 Charge =  0 Multiplicity = 5

                         Standard orientation:
 ---------------------------------------------------------------------
 Center     Atomic      Atomic             Coordinates (Angstroms)
 Number     Number       Type             X           Y           Z
 ---------------------------------------------------------------------
      1          8           0        0.000000    0.000000    2.940000
      2          8           0        0.000000    0.000000    1.780000
      3          8           0        0.000000    0.000000   -1.780000
      4          8           0        0.000000    0.000000   -2.940000
 ---------------------------------------------------------------------

 SCF Done:  E(ROHF) =  -299.316595433     A.U. after   12 cycles
 E2 =    -0.9226102319D+00 EUMP2 =    -0.30023920566509D+03
 CCSD(T)
 CCSD(T)= -0.30024992726D+03

 The electronic state is 5-SGG.
 Alpha  occ. eigenvalues --  -20.73997 -20.73997 -20.73918 -20.73918  -1.74499
 Alpha  occ. eigenvalues --   -1.74493  -1.17092  -1.16980  -0.83787  -0.83787
 Alpha  occ. eigenvalues --   -0.83763  -0.83763  -0.78281  -0.77946  -0.51018
 Alpha  occ. eigenvalues --   -0.51018  -0.50920  -0.50920
 Alpha virt. eigenvalues --    0.35551   0.46440   0.65724   0.67502   0.67502
 Alpha virt. eigenvalues --    0.68446   0.68446   0.75143   0.77059   0.78348
 Alpha virt. eigenvalues --    0.78348   0.81457   0.81457   0.86305   0.87055

 Mulliken charges and spin densities:
               1          2
     1  O    0.000298   0.999057
     2  O   -0.000298   1.000943
     3  O   -0.000298   1.000943
     4  O    0.000298   0.999057
 Sum of Mulliken charges =  -0.00000   4.00000

 Dipole moment (field-independent basis, Debye):
    X=              0.0000    Y=              0.0000    Z=             -0.0000  Tot=              0.0000
 Quadrupole moment (field-independent basis, Debye-Ang):
   XX=            -19.6385   YY=            -19.6385   ZZ=            -20.8989
   XY=              0.0000   XZ=              0.0000   YZ=              0.0000

 92057\MP4SDQ=-300.2211251\CCSD=-300.2146288\CCSD(T)=-300.2499273\RMSD=
 Normal termination of Gaussian 16 at Tue Feb 13 17:32:54 2024.
