 Gaussian 16, Revision A.03,
 Gaussian 16:  ES64L-G16RevA.03 25-Dec-2016

 --------------------
 #p ROCCSD(T)/cc-pVTZ
 --------------------

 ---------
 O2_O2_282
 ---------
 Symbolic Z-matrix:
 Charge =  0 Multiplicity = 5

                         Standard orientation:
 ---------------------------------------------------------------------
 Center     Atomic      Atomic             Coordinates (Angstroms)
 Number     Number       Type             X           Y           Z
 ---------------------------------------------------------------------
      1          8           0        0.000000    0.000000    3.540000
      2          8           0        0.000000    0.000000    2.380000
      3          8           0        0.000000    0.000000   -2.380000
      4          8           0        0.000000    0.000000   -3.540000
 ---------------------------------------------------------------------

 SCF Done:  E(ROHF) =  -299.316589256     A.U. after   11 cycles
 E2 =    -0.9223075670D+00 EUMP2 =    -0.30023889682251D+03
 CCSD(T)
 CCSD(T)= -0.30024966788D+03

 The electronic state is 5-SGG.
 Alpha  occ. eigenvalues --  -20.74020 -20.74020 -20.73943 -20.73943  -1.74520
 Alpha  occ. eigenvalues --   -1.74520  -1.17065  -1.17061  -0.83800  -0.83800
 Alpha  occ. eigenvalues --   -0.83799  -0.83799  -0.78153  -0.78134  -0.50996
 Alpha  occ. eigenvalues --   -0.50996  -0.50992  -0.50992
 Alpha virt. eigenvalues --    0.40491   0.42319   0.67988   0.67988   0.68024
 Alpha virt. eigenvalues --    0.68024   0.71402   0.72625   0.77467   0.78703
 Alpha virt. eigenvalues --    0.79725   0.79725   0.79854   0.79854   0.87064

 Mulliken charges and spin densities:
               1          2
     1  O   -0.000413   0.999535
     2  O    0.000413   1.000465
     3  O    0.000413   1.000465
     4  O   -0.000413   0.999535
 Sum of Mulliken charges =  -0.00000   4.00000

 Dipole moment (field-independent basis, Debye):
    X=             -0.0000    Y=             -0.0000    Z=             -0.0000  Tot=              0.0000
 Quadrupole moment (field-independent basis, Debye-Ang):
   XX=            -19.6382   YY=            -19.6382   ZZ=            -20.8735
   XY=              0.0000   XZ=              0.0000   YZ=              0.0000

 88968\MP4SDQ=-300.2208764\CCSD=-300.2144025\CCSD(T)=-300.2496679\RMSD=
 Normal termination of Gaussian 16 at Tue Feb 13 20:16:56 2024.
