 Gaussian 16, Revision A.03,
 Gaussian 16:  ES64L-G16RevA.03 25-Dec-2016

 --------------------
 #p ROCCSD(T)/cc-pVTZ
 --------------------

 ---------
 O2_O2_180
 ---------
 Symbolic Z-matrix:
 Charge =  0 Multiplicity = 5

                         Standard orientation:
 ---------------------------------------------------------------------
 Center     Atomic      Atomic             Coordinates (Angstroms)
 Number     Number       Type             X           Y           Z
 ---------------------------------------------------------------------
      1          8           0        0.000000    0.000000    2.860000
      2          8           0        0.000000    0.000000    1.700000
      3          8           0        0.000000    0.000000   -1.700000
      4          8           0        0.000000    0.000000   -2.860000
 ---------------------------------------------------------------------

 SCF Done:  E(ROHF) =  -299.316560297     A.U. after   12 cycles
 E2 =    -0.9227130183D+00 EUMP2 =    -0.30023927331479D+03
 CCSD(T)
 CCSD(T)= -0.30024998331D+03

 The electronic state is 5-SGG.
 Alpha  occ. eigenvalues --  -20.73990 -20.73990 -20.73910 -20.73910  -1.74494
 Alpha  occ. eigenvalues --   -1.74484  -1.17116  -1.16944  -0.83787  -0.83787
 Alpha  occ. eigenvalues --   -0.83750  -0.83750  -0.78345  -0.77867  -0.51033
 Alpha  occ. eigenvalues --   -0.51033  -0.50891  -0.50891
 Alpha virt. eigenvalues --    0.35452   0.46913   0.65209   0.67271   0.67271
 Alpha virt. eigenvalues --    0.68593   0.68593   0.75324   0.77343   0.77869
 Alpha virt. eigenvalues --    0.77869   0.82115   0.82115   0.86391   0.87049

 Mulliken charges and spin densities:
               1          2
     1  O    0.000310   0.998960
     2  O   -0.000310   1.001040
     3  O   -0.000310   1.001040
     4  O    0.000310   0.998960
 Sum of Mulliken charges =  -0.00000   4.00000

 Dipole moment (field-independent basis, Debye):
    X=              0.0000    Y=              0.0000    Z=              0.0000  Tot=              0.0000
 Quadrupole moment (field-independent basis, Debye-Ang):
   XX=            -19.6386   YY=            -19.6386   ZZ=            -20.9072
   XY=              0.0000   XZ=              0.0000   YZ=              0.0000

 2733\MP4SDQ=-300.2211763\CCSD=-300.2146729\CCSD(T)=-300.2499833\RMSD=1
 Normal termination of Gaussian 16 at Tue Feb 13 17:15:03 2024.
