 Gaussian 16, Revision A.03,
 Gaussian 16:  ES64L-G16RevA.03 25-Dec-2016

 --------------------
 #p ROCCSD(T)/cc-pVTZ
 --------------------

 ---------
 O2_O2_146
 ---------
 Symbolic Z-matrix:
 Charge =  0 Multiplicity = 5

                         Standard orientation:
 ---------------------------------------------------------------------
 Center     Atomic      Atomic             Coordinates (Angstroms)
 Number     Number       Type             X           Y           Z
 ---------------------------------------------------------------------
      1          8           0       -0.870000   -1.750000    0.000000
      2          8           0        0.290000   -1.750000    0.000000
      3          8           0        0.290000    1.170000    0.000000
      4          8           0        0.290000    2.330000    0.000000
 ---------------------------------------------------------------------

 SCF Done:  E(ROHF) =  -299.315966685     A.U. after   16 cycles
 E2 =    -0.9234122467D+00 EUMP2 =    -0.30023937893186D+03
 CCSD(T)
 CCSD(T)= -0.30025006398D+03

 The electronic state is 5-A'.
 Alpha  occ. eigenvalues --  -20.74129 -20.74024 -20.73923 -20.73828  -1.74636
 Alpha  occ. eigenvalues --   -1.74408  -1.17267  -1.16912  -0.83984  -0.83945
 Alpha  occ. eigenvalues --   -0.83758  -0.83660  -0.78414  -0.77796  -0.51342
 Alpha  occ. eigenvalues --   -0.51136  -0.50866  -0.50661
 Alpha virt. eigenvalues --    0.39882   0.42210   0.62436   0.65282   0.66416
 Alpha virt. eigenvalues --    0.69682   0.71903   0.73938   0.76731   0.78219
 Alpha virt. eigenvalues --    0.78882   0.78893   0.82129   0.86777   0.89204

 Mulliken charges and spin densities:
               1          2
     1  O   -0.001007   0.997786
     2  O    0.001338   1.002227
     3  O   -0.002618   0.997693
     4  O    0.002287   1.002293
 Sum of Mulliken charges =  -0.00000   4.00000

 Dipole moment (field-independent basis, Debye):
    X=              0.0140    Y=              0.0222    Z=              0.0000  Tot=              0.0263
 Quadrupole moment (field-independent basis, Debye-Ang):
   XX=            -20.2444   YY=            -20.2569   ZZ=            -19.6381
   XY=             -0.0129   XZ=              0.0000   YZ=              0.0000

 3789\MP4SDQ=-300.2211422\CCSD=-300.2146524\CCSD(T)=-300.250064\RMSD=3.
 Normal termination of Gaussian 16 at Tue Feb 13 16:22:43 2024.
