 Gaussian 16, Revision A.03,
 Gaussian 16:  ES64L-G16RevA.03 25-Dec-2016

 --------------------
 #p ROCCSD(T)/cc-pVTZ
 --------------------

 --------
 O2_O2_40
 --------
 Symbolic Z-matrix:
 Charge =  0 Multiplicity = 5

                         Standard orientation:
 ---------------------------------------------------------------------
 Center     Atomic      Atomic             Coordinates (Angstroms)
 Number     Number       Type             X           Y           Z
 ---------------------------------------------------------------------
      1          8           0        0.615183   -1.665183    0.000000
      2          8           0       -0.205061   -0.844939    0.000000
      3          8           0       -0.205061    0.675061   -0.000000
      4          8           0       -0.205061    1.835061   -0.000000
 ---------------------------------------------------------------------

 SCF Done:  E(ROHF) =  -299.131734065     A.U. after   22 cycles
 E2 =    -0.9211693085D+00 EUMP2 =    -0.30005290337358D+03
 CCSD(T)
 CCSD(T)= -0.30007622078D+03

 The electronic state is 5-A'.
 Alpha  occ. eigenvalues --  -20.75084 -20.73550 -20.70607 -20.69213  -1.77673
 Alpha  occ. eigenvalues --   -1.72587  -1.31080  -1.10093  -0.89355  -0.87097
 Alpha  occ. eigenvalues --   -0.86237  -0.81219  -0.79098  -0.64282  -0.55447
 Alpha  occ. eigenvalues --   -0.53100  -0.46281  -0.44560
 Alpha virt. eigenvalues --    0.44929   0.48824   0.64453   0.64964   0.68584
 Alpha virt. eigenvalues --    0.71031   0.71687   0.74554   0.77703   0.79876
 Alpha virt. eigenvalues --    0.80098   0.84846   0.93209   0.96695   1.00631

 Mulliken charges and spin densities:
               1          2
     1  O   -0.082220   0.928254
     2  O    0.038605   0.999682
     3  O    0.040056   0.973035
     4  O    0.003560   1.099029
 Sum of Mulliken charges =  -0.00000   4.00000

 Dipole moment (field-independent basis, Debye):
    X=             -0.2214    Y=              0.8771    Z=             -0.0000  Tot=              0.9046
 Quadrupole moment (field-independent basis, Debye-Ang):
   XX=            -20.2485   YY=            -21.8288   ZZ=            -19.4134
   XY=              0.6051   XZ=             -0.0000   YZ=              0.0000

 341\PMP2-0=-300.0529034\MP4SDQ=-300.0424044\CCSD=-300.0390859\CCSD(T)=
 Normal termination of Gaussian 16 at Tue Feb 13 13:17:27 2024.
