 Gaussian 16, Revision A.03,
 Gaussian 16:  ES64L-G16RevA.03 25-Dec-2016

 --------------------
 #p ROCCSD(T)/cc-pVTZ
 --------------------

 ---------
 O2_O2_301
 ---------
 Symbolic Z-matrix:
 Charge =  0 Multiplicity = 5

                         Standard orientation:
 ---------------------------------------------------------------------
 Center     Atomic      Atomic             Coordinates (Angstroms)
 Number     Number       Type             X           Y           Z
 ---------------------------------------------------------------------
      1          8           0        0.615183   -3.405183    0.000000
      2          8           0       -0.205061   -2.584939    0.000000
      3          8           0       -0.205061    2.415061    0.000000
      4          8           0       -0.205061    3.575061    0.000000
 ---------------------------------------------------------------------

 SCF Done:  E(ROHF) =  -299.316589910     A.U. after   16 cycles
 E2 =    -0.9222900541D+00 EUMP2 =    -0.30023887996424D+03
 CCSD(T)
 CCSD(T)= -0.30024965604D+03

 The electronic state is 5-A'.
 Alpha  occ. eigenvalues --  -20.74039 -20.74022 -20.73963 -20.73946  -1.74539
 Alpha  occ. eigenvalues --   -1.74522  -1.17083  -1.17066  -0.83818  -0.83818
 Alpha  occ. eigenvalues --   -0.83801  -0.83801  -0.78164  -0.78146  -0.51013
 Alpha  occ. eigenvalues --   -0.51013  -0.50996  -0.50996
 Alpha virt. eigenvalues --    0.41085   0.41746   0.67985   0.67985   0.68003
 Alpha virt. eigenvalues --    0.68008   0.71826   0.72258   0.77768   0.78209
 Alpha virt. eigenvalues --    0.79749   0.79767   0.79808   0.79844   0.87046

 Mulliken charges and spin densities:
               1          2
     1  O   -0.000342   0.999627
     2  O    0.000343   1.000372
     3  O    0.000174   1.000198
     4  O   -0.000175   0.999803
 Sum of Mulliken charges =  -0.00000   4.00000

 Dipole moment (field-independent basis, Debye):
    X=             -0.0017    Y=              0.0006    Z=              0.0000  Tot=              0.0018
 Quadrupole moment (field-independent basis, Debye-Ang):
   XX=            -19.9387   YY=            -20.5577   ZZ=            -19.6382
   XY=              0.3032   XZ=             -0.0000   YZ=              0.0000

 99\PMP2-0=-300.23888\MP4SDQ=-300.2208636\CCSD=-300.2143924\CCSD(T)=-30
 Normal termination of Gaussian 16 at Tue Feb 13 20:53:04 2024.
