 Gaussian 16, Revision A.03,
 Gaussian 16:  ES64L-G16RevA.03 25-Dec-2016

 --------------------
 #p ROCCSD(T)/cc-pVTZ
 --------------------

 ---------
 O2_O2_166
 ---------
 Symbolic Z-matrix:
 Charge =  0 Multiplicity = 5

                         Standard orientation:
 ---------------------------------------------------------------------
 Center     Atomic      Atomic             Coordinates (Angstroms)
 Number     Number       Type             X           Y           Z
 ---------------------------------------------------------------------
      1          8           0        0.615183   -2.505183    0.000000
      2          8           0       -0.205061   -1.684939    0.000000
      3          8           0       -0.205061    1.515061   -0.000000
      4          8           0       -0.205061    2.675061   -0.000000
 ---------------------------------------------------------------------

 SCF Done:  E(ROHF) =  -299.316457074     A.U. after   17 cycles
 E2 =    -0.9228872667D+00 EUMP2 =    -0.30023934434111D+03
 CCSD(T)
 CCSD(T)= -0.30025004237D+03

 The electronic state is 5-A'.
 Alpha  occ. eigenvalues --  -20.74004 -20.73979 -20.73926 -20.73895  -1.74511
 Alpha  occ. eigenvalues --   -1.74473  -1.17175  -1.16898  -0.83807  -0.83805
 Alpha  occ. eigenvalues --   -0.83746  -0.83736  -0.78417  -0.77801  -0.51072
 Alpha  occ. eigenvalues --   -0.51023  -0.50898  -0.50859
 Alpha virt. eigenvalues --    0.37281   0.45171   0.63931   0.66801   0.67221
 Alpha virt. eigenvalues --    0.68847   0.69832   0.74679   0.77102   0.77365
 Alpha virt. eigenvalues --    0.77525   0.81951   0.82957   0.85932   0.87044

 Mulliken charges and spin densities:
               1          2
     1  O   -0.000703   0.998450
     2  O    0.000954   1.001381
     3  O   -0.000619   1.000835
     4  O    0.000368   0.999334
 Sum of Mulliken charges =  -0.00000   4.00000

 Dipole moment (field-independent basis, Debye):
    X=             -0.0072    Y=             -0.0010    Z=             -0.0000  Tot=              0.0072
 Quadrupole moment (field-independent basis, Debye-Ang):
   XX=            -19.9408   YY=            -20.5988   ZZ=            -19.6386
   XY=              0.3115   XZ=             -0.0000   YZ=              0.0000

 Normal termination of Gaussian 16 at Tue Feb 13 16:53:08 2024.
