 Gaussian 16, Revision A.03,
 Gaussian 16:  ES64L-G16RevA.03 25-Dec-2016

 --------------------
 #p ROCCSD(T)/cc-pVTZ
 --------------------

 ---------
 O2_O2_194
 ---------
 Symbolic Z-matrix:
 Charge =  0 Multiplicity = 5

                         Standard orientation:
 ---------------------------------------------------------------------
 Center     Atomic      Atomic             Coordinates (Angstroms)
 Number     Number       Type             X           Y           Z
 ---------------------------------------------------------------------
      1          8           0       -0.870000   -2.070000    0.000000
      2          8           0        0.290000   -2.070000    0.000000
      3          8           0        0.290000    1.490000    0.000000
      4          8           0        0.290000    2.650000    0.000000
 ---------------------------------------------------------------------

 SCF Done:  E(ROHF) =  -299.316670651     A.U. after   16 cycles
 E2 =    -0.9226509844D+00 EUMP2 =    -0.30023932163575D+03
 CCSD(T)
 CCSD(T)= -0.30025005113D+03

 The electronic state is 5-A'.
 Alpha  occ. eigenvalues --  -20.74104 -20.74024 -20.73990 -20.73913  -1.74599
 Alpha  occ. eigenvalues --   -1.74482  -1.17152  -1.17024  -0.83882  -0.83882
 Alpha  occ. eigenvalues --   -0.83761  -0.83759  -0.78265  -0.78071  -0.51122
 Alpha  occ. eigenvalues --   -0.51079  -0.50958  -0.50907
 Alpha virt. eigenvalues --    0.39645   0.41718   0.63157   0.67186   0.67663
 Alpha virt. eigenvalues --    0.68651   0.72052   0.74621   0.76680   0.78243
 Alpha virt. eigenvalues --    0.79296   0.80257   0.80406   0.83787   0.86924

 Mulliken charges and spin densities:
               1          2
     1  O   -0.000244   0.999735
     2  O    0.000604   1.000237
     3  O   -0.001824   0.999032
     4  O    0.001464   1.000996
 Sum of Mulliken charges =   0.00000   4.00000

 Dipole moment (field-independent basis, Debye):
    X=              0.0030    Y=              0.0056    Z=              0.0000  Tot=              0.0064
 Quadrupole moment (field-independent basis, Debye-Ang):
   XX=            -20.2390   YY=            -20.2133   ZZ=            -19.6382
   XY=             -0.0006   XZ=              0.0000   YZ=              0.0000

 3216\MP4SDQ=-300.2212244\CCSD=-300.2147451\CCSD(T)=-300.2500511\RMSD=3
 Normal termination of Gaussian 16 at Tue Feb 13 17:36:06 2024.
