 Gaussian 16, Revision A.03,
 Gaussian 16:  ES64L-G16RevA.03 25-Dec-2016

 --------------------
 #p ROCCSD(T)/cc-pVTZ
 --------------------

 ---------
 O2_O2_185
 ---------
 Symbolic Z-matrix:
 Charge =  0 Multiplicity = 5

                         Standard orientation:
 ---------------------------------------------------------------------
 Center     Atomic      Atomic             Coordinates (Angstroms)
 Number     Number       Type             X           Y           Z
 ---------------------------------------------------------------------
      1          8           0       -0.870000   -2.010000    0.000000
      2          8           0        0.290000   -2.010000    0.000000
      3          8           0        0.290000    1.430000    0.000000
      4          8           0        0.290000    2.590000    0.000000
 ---------------------------------------------------------------------

 SCF Done:  E(ROHF) =  -299.316658059     A.U. after   16 cycles
 E2 =    -0.9227416329D+00 EUMP2 =    -0.30023939969178D+03
 CCSD(T)
 CCSD(T)= -0.30025012209D+03

 The electronic state is 5-A'.
 Alpha  occ. eigenvalues --  -20.74109 -20.74028 -20.73983 -20.73906  -1.74604
 Alpha  occ. eigenvalues --   -1.74474  -1.17161  -1.17015  -0.83889  -0.83889
 Alpha  occ. eigenvalues --   -0.83755  -0.83752  -0.78285  -0.78045  -0.51145
 Alpha  occ. eigenvalues --   -0.51086  -0.50950  -0.50882
 Alpha virt. eigenvalues --    0.39422   0.41757   0.62631   0.66944   0.67505
 Alpha virt. eigenvalues --    0.68813   0.72038   0.74652   0.76540   0.78260
 Alpha virt. eigenvalues --    0.79206   0.80271   0.80605   0.84495   0.86907

 Mulliken charges and spin densities:
               1          2
     1  O   -0.000301   0.999604
     2  O    0.000695   1.000368
     3  O   -0.002171   0.998896
     4  O    0.001777   1.001132
 Sum of Mulliken charges =  -0.00000   4.00000

 Dipole moment (field-independent basis, Debye):
    X=              0.0039    Y=              0.0070    Z=              0.0000  Tot=              0.0080
 Quadrupole moment (field-independent basis, Debye-Ang):
   XX=            -20.2394   YY=            -20.2151   ZZ=            -19.6382
   XY=             -0.0014   XZ=              0.0000   YZ=              0.0000

 97\MP4SDQ=-300.2212855\CCSD=-300.214804\CCSD(T)=-300.2501221\RMSD=2.74
 Normal termination of Gaussian 16 at Tue Feb 13 17:22:40 2024.
