 Gaussian 16, Revision A.03,
 Gaussian 16:  ES64L-G16RevA.03 25-Dec-2016

 --------------------
 #p ROCCSD(T)/cc-pVTZ
 --------------------

 --------
 O2_O2_72
 --------
 Symbolic Z-matrix:
 Charge =  0 Multiplicity = 5

                         Standard orientation:
 ---------------------------------------------------------------------
 Center     Atomic      Atomic             Coordinates (Angstroms)
 Number     Number       Type             X           Y           Z
 ---------------------------------------------------------------------
      1          8           0        0.000000    0.000000    2.140000
      2          8           0        0.000000    0.000000    0.980000
      3          8           0        0.000000    0.000000   -0.980000
      4          8           0        0.000000    0.000000   -2.140000
 ---------------------------------------------------------------------

 SCF Done:  E(ROHF) =  -299.280606468     A.U. after   11 cycles
 E2 =    -0.9290147089D+00 EUMP2 =    -0.30020962117647D+03
 CCSD(T)
 CCSD(T)= -0.30021908475D+03

 The electronic state is 5-SGG.
 Alpha  occ. eigenvalues --  -20.73470 -20.73470 -20.72654 -20.72651  -1.74508
 Alpha  occ. eigenvalues --   -1.73714  -1.20858  -1.13889  -0.84110  -0.84110
 Alpha  occ. eigenvalues --   -0.82693  -0.82693  -0.82668  -0.72046  -0.52243
 Alpha  occ. eigenvalues --   -0.52243  -0.48905  -0.48905
 Alpha virt. eigenvalues --    0.44098   0.48557   0.64538   0.64538   0.70348
 Alpha virt. eigenvalues --    0.70348   0.71946   0.76130   0.76130   0.76823
 Alpha virt. eigenvalues --    0.84882   0.85891   0.92840   0.94753   0.94753

 Mulliken charges and spin densities:
               1          2
     1  O   -0.027362   1.013462
     2  O    0.027362   0.986538
     3  O    0.027362   0.986538
     4  O   -0.027362   1.013462
 Sum of Mulliken charges =  -0.00000   4.00000

 Dipole moment (field-independent basis, Debye):
    X=             -0.0000    Y=              0.0000    Z=              0.0000  Tot=              0.0000
 Quadrupole moment (field-independent basis, Debye-Ang):
   XX=            -19.6107   YY=            -19.6107   ZZ=            -21.3264
   XY=              0.0000   XZ=              0.0000   YZ=              0.0000

 6212\MP4SDQ=-300.1900399\CCSD=-300.1830716\CCSD(T)=-300.2190847\RMSD=2
 Normal termination of Gaussian 16 at Tue Feb 13 14:19:15 2024.
