 Gaussian 16, Revision A.03,
 Gaussian 16:  ES64L-G16RevA.03 25-Dec-2016

 --------------------
 #p ROCCSD(T)/cc-pVTZ
 --------------------

 ---------
 O2_O2_256
 ---------
 Symbolic Z-matrix:
 Charge =  0 Multiplicity = 5

                         Standard orientation:
 ---------------------------------------------------------------------
 Center     Atomic      Atomic             Coordinates (Angstroms)
 Number     Number       Type             X           Y           Z
 ---------------------------------------------------------------------
      1          8           0        0.615183   -3.105183    0.000000
      2          8           0       -0.205061   -2.284939    0.000000
      3          8           0       -0.205061    2.115061   -0.000000
      4          8           0       -0.205061    3.275061   -0.000000
 ---------------------------------------------------------------------

 SCF Done:  E(ROHF) =  -299.316602575     A.U. after   16 cycles
 E2 =    -0.9223401080D+00 EUMP2 =    -0.30023894268290D+03
 CCSD(T)
 CCSD(T)= -0.30024970864D+03

 The electronic state is 5-A'.
 Alpha  occ. eigenvalues --  -20.74034 -20.74015 -20.73958 -20.73938  -1.74534
 Alpha  occ. eigenvalues --   -1.74513  -1.17078  -1.17056  -0.83813  -0.83813
 Alpha  occ. eigenvalues --   -0.83793  -0.83792  -0.78169  -0.78126  -0.51010
 Alpha  occ. eigenvalues --   -0.51009  -0.50987  -0.50986
 Alpha virt. eigenvalues --    0.40058   0.42627   0.67833   0.67944   0.68002
 Alpha virt. eigenvalues --    0.68059   0.70899   0.72954   0.77117   0.78569
 Alpha virt. eigenvalues --    0.79599   0.79794   0.79974   0.80802   0.87051

 Mulliken charges and spin densities:
               1          2
     1  O   -0.000436   0.999492
     2  O    0.000462   1.000490
     3  O    0.000213   1.000324
     4  O   -0.000240   0.999694
 Sum of Mulliken charges =   0.00000   4.00000

 Dipole moment (field-independent basis, Debye):
    X=             -0.0024    Y=              0.0002    Z=             -0.0000  Tot=              0.0024
 Quadrupole moment (field-independent basis, Debye-Ang):
   XX=            -19.9389   YY=            -20.5623   ZZ=            -19.6383
   XY=              0.3040   XZ=              0.0000   YZ=              0.0000

 26\PMP2-0=-300.2389427\MP4SDQ=-300.2209146\CCSD=-300.21444\CCSD(T)=-30
 Normal termination of Gaussian 16 at Tue Feb 13 19:25:46 2024.
