 Gaussian 16, Revision A.03,
 Gaussian 16:  ES64L-G16RevA.03 25-Dec-2016

 --------------------
 #p ROCCSD(T)/cc-pVTZ
 --------------------

 ---------
 O2_O2_117
 ---------
 Symbolic Z-matrix:
 Charge =  0 Multiplicity = 5

                         Standard orientation:
 ---------------------------------------------------------------------
 Center     Atomic      Atomic             Coordinates (Angstroms)
 Number     Number       Type             X           Y           Z
 ---------------------------------------------------------------------
      1          8           0        0.000000    0.000000    2.440000
      2          8           0        0.000000    0.000000    1.280000
      3          8           0        0.000000    0.000000   -1.280000
      4          8           0        0.000000    0.000000   -2.440000
 ---------------------------------------------------------------------

 SCF Done:  E(ROHF) =  -299.313720232     A.U. after   12 cycles
 E2 =    -0.9240640428D+00 EUMP2 =    -0.30023778427458D+03
 CCSD(T)
 CCSD(T)= -0.30024829711D+03

 The electronic state is 5-SGG.
 Alpha  occ. eigenvalues --  -20.73839 -20.73839 -20.73752 -20.73751  -1.74457
 Alpha  occ. eigenvalues --   -1.74333  -1.17767  -1.16238  -0.83827  -0.83827
 Alpha  occ. eigenvalues --   -0.83516  -0.83516  -0.79518  -0.76516  -0.51316
 Alpha  occ. eigenvalues --   -0.51316  -0.50410  -0.50410
 Alpha virt. eigenvalues --    0.40298   0.48140   0.64811   0.64811   0.68148
 Alpha virt. eigenvalues --    0.69613   0.69613   0.75408   0.75408   0.75710
 Alpha virt. eigenvalues --    0.81442   0.85710   0.86954   0.88694   0.88694

 Mulliken charges and spin densities:
               1          2
     1  O   -0.010530   0.999262
     2  O    0.010530   1.000738
     3  O    0.010530   1.000738
     4  O   -0.010530   0.999262
 Sum of Mulliken charges =  -0.00000   4.00000

 Dipole moment (field-independent basis, Debye):
    X=             -0.0000    Y=              0.0000    Z=             -0.0000  Tot=              0.0000
 Quadrupole moment (field-independent basis, Debye-Ang):
   XX=            -19.6382   YY=            -19.6382   ZZ=            -21.0206
   XY=              0.0000   XZ=              0.0000   YZ=              0.0000

 77843\MP4SDQ=-300.2194268\CCSD=-300.2128271\CCSD(T)=-300.2482971\RMSD=
 Normal termination of Gaussian 16 at Tue Feb 13 15:36:50 2024.
