 Gaussian 16, Revision A.03,
 Gaussian 16:  ES64L-G16RevA.03 25-Dec-2016

 --------------------
 #p ROCCSD(T)/cc-pVTZ
 --------------------

 ---------
 O2_O2_151
 ---------
 Symbolic Z-matrix:
 Charge =  0 Multiplicity = 5

                         Standard orientation:
 ---------------------------------------------------------------------
 Center     Atomic      Atomic             Coordinates (Angstroms)
 Number     Number       Type             X           Y           Z
 ---------------------------------------------------------------------
      1          8           0        0.615183   -2.405183   -0.000000
      2          8           0       -0.205061   -1.584939   -0.000000
      3          8           0       -0.205061    1.415061    0.000000
      4          8           0       -0.205061    2.575061    0.000000
 ---------------------------------------------------------------------

 SCF Done:  E(ROHF) =  -299.316170375     A.U. after   18 cycles
 E2 =    -0.9231282332D+00 EUMP2 =    -0.30023929860794D+03
 CCSD(T)
 CCSD(T)= -0.30024997040D+03

 The electronic state is 5-A'.
 Alpha  occ. eigenvalues --  -20.73987 -20.73951 -20.73910 -20.73864  -1.74506
 Alpha  occ. eigenvalues --   -1.74447  -1.17260  -1.16795  -0.83814  -0.83814
 Alpha  occ. eigenvalues --   -0.83721  -0.83697  -0.78569  -0.77615  -0.51114
 Alpha  occ. eigenvalues --   -0.51039  -0.50848  -0.50784
 Alpha virt. eigenvalues --    0.37977   0.45424   0.64119   0.66228   0.66777
 Alpha virt. eigenvalues --    0.69114   0.70117   0.74724   0.76756   0.77254
 Alpha virt. eigenvalues --    0.77681   0.82885   0.84223   0.85739   0.87073

 Mulliken charges and spin densities:
               1          2
     1  O   -0.001347   0.997841
     2  O    0.001546   1.002047
     3  O    0.000082   1.000715
     4  O   -0.000281   0.999397
 Sum of Mulliken charges =  -0.00000   4.00000

 Dipole moment (field-independent basis, Debye):
    X=             -0.0098    Y=              0.0026    Z=              0.0000  Tot=              0.0101
 Quadrupole moment (field-independent basis, Debye-Ang):
   XX=            -19.9427   YY=            -20.6247   ZZ=            -19.6386
   XY=              0.3158   XZ=             -0.0000   YZ=             -0.0000

 04\PMP2-0=-300.2392986\MP4SDQ=-300.2211214\CCSD=-300.2146047\CCSD(T)=-
 Normal termination of Gaussian 16 at Tue Feb 13 16:30:21 2024.
