 Gaussian 16, Revision A.03,
 Gaussian 16:  ES64L-G16RevA.03 25-Dec-2016

 --------------------
 #p ROCCSD(T)/cc-pVTZ
 --------------------

 ---------
 O2_O2_109
 ---------
 Symbolic Z-matrix:
 Charge =  0 Multiplicity = 5

                         Standard orientation:
 ---------------------------------------------------------------------
 Center     Atomic      Atomic             Coordinates (Angstroms)
 Number     Number       Type             X           Y           Z
 ---------------------------------------------------------------------
      1          8           0        0.615183   -2.125183    0.000000
      2          8           0       -0.205061   -1.304939    0.000000
      3          8           0       -0.205061    1.135062   -0.000000
      4          8           0       -0.205061    2.295060   -0.000000
 ---------------------------------------------------------------------

 SCF Done:  E(ROHF) =  -299.311363982     A.U. after   22 cycles
 E2 =    -0.9244969816D+00 EUMP2 =    -0.30023586096358D+03
 CCSD(T)
 CCSD(T)= -0.30024639497D+03

 The electronic state is 5-A'.
 Alpha  occ. eigenvalues --  -20.73900 -20.73759 -20.73722 -20.73616  -1.74526
 Alpha  occ. eigenvalues --   -1.74261  -1.18023  -1.16077  -0.83993  -0.83902
 Alpha  occ. eigenvalues --   -0.83607  -0.83431  -0.79473  -0.76384  -0.51418
 Alpha  occ. eigenvalues --   -0.51150  -0.50492  -0.50300
 Alpha virt. eigenvalues --    0.40961   0.46399   0.64298   0.64345   0.68736
 Alpha virt. eigenvalues --    0.69908   0.71278   0.74965   0.75877   0.77908
 Alpha virt. eigenvalues --    0.79974   0.84664   0.86355   0.88729   0.88930

 Mulliken charges and spin densities:
               1          2
     1  O   -0.006356   0.993293
     2  O    0.006414   1.006782
     3  O    0.008616   0.997639
     4  O   -0.008674   1.002285
 Sum of Mulliken charges =   0.00000   4.00000

 Dipole moment (field-independent basis, Debye):
    X=             -0.0277    Y=              0.0370    Z=             -0.0000  Tot=              0.0462
 Quadrupole moment (field-independent basis, Debye-Ang):
   XX=            -19.9602   YY=            -20.7829   ZZ=            -19.6371
   XY=              0.3462   XZ=             -0.0000   YZ=              0.0000

 4\PMP2-0=-300.235861\MP4SDQ=-300.2174209\CCSD=-300.2108536\CCSD(T)=-30
 Normal termination of Gaussian 16 at Tue Feb 13 15:24:45 2024.
