 Gaussian 16, Revision A.03,
 Gaussian 16:  ES64L-G16RevA.03 25-Dec-2016

 --------------------
 #p ROCCSD(T)/cc-pVTZ
 --------------------

 ---------
 O2_O2_101
 ---------
 Symbolic Z-matrix:
 Charge =  0 Multiplicity = 5

                         Standard orientation:
 ---------------------------------------------------------------------
 Center     Atomic      Atomic             Coordinates (Angstroms)
 Number     Number       Type             X           Y           Z
 ---------------------------------------------------------------------
      1          8           0       -0.870000   -1.450000    0.000000
      2          8           0        0.290000   -1.450000    0.000000
      3          8           0        0.290000    0.870000    0.000000
      4          8           0        0.290000    2.030000    0.000000
 ---------------------------------------------------------------------

 SCF Done:  E(ROHF) =  -299.306091551     A.U. after   21 cycles
 E2 =    -0.9248590620D+00 EUMP2 =    -0.30023095061341D+03
 CCSD(T)
 CCSD(T)= -0.30024217111D+03

 The electronic state is 5-A'.
 Alpha  occ. eigenvalues --  -20.74136 -20.73766 -20.73724 -20.73305  -1.74827
 Alpha  occ. eigenvalues --   -1.74119  -1.17968  -1.16418  -0.85002  -0.84217
 Alpha  occ. eigenvalues --   -0.83812  -0.83241  -0.78424  -0.76537  -0.51966
 Alpha  occ. eigenvalues --   -0.51354  -0.50476  -0.49886
 Alpha virt. eigenvalues --    0.41074   0.44697   0.63332   0.65251   0.69704
 Alpha virt. eigenvalues --    0.70652   0.71251   0.73238   0.74161   0.77695
 Alpha virt. eigenvalues --    0.78942   0.83101   0.84724   0.86655   0.95464

 Mulliken charges and spin densities:
               1          2
     1  O   -0.007980   0.984060
     2  O    0.008021   1.015693
     3  O    0.006149   0.991676
     4  O   -0.006190   1.008571
 Sum of Mulliken charges =  -0.00000   4.00000

 Dipole moment (field-independent basis, Debye):
    X=              0.0716    Y=              0.0680    Z=              0.0000  Tot=              0.0988
 Quadrupole moment (field-independent basis, Debye-Ang):
   XX=            -20.2772   YY=            -20.4233   ZZ=            -19.6315
   XY=             -0.0930   XZ=              0.0000   YZ=              0.0000

 9506\MP4SDQ=-300.2127743\CCSD=-300.2064736\CCSD(T)=-300.2421711\RMSD=6
 Normal termination of Gaussian 16 at Tue Feb 13 15:12:51 2024.
