 Gaussian 16, Revision A.03,
 Gaussian 16:  ES64L-G16RevA.03 25-Dec-2016

 --------------------
 #p ROCCSD(T)/cc-pVTZ
 --------------------

 --------
 O2_O2_56
 --------
 Symbolic Z-matrix:
 Charge =  0 Multiplicity = 5

                         Standard orientation:
 ---------------------------------------------------------------------
 Center     Atomic      Atomic             Coordinates (Angstroms)
 Number     Number       Type             X           Y           Z
 ---------------------------------------------------------------------
      1          8           0       -0.870000   -1.150000    0.000000
      2          8           0        0.290000   -1.150000    0.000000
      3          8           0        0.290000    0.570000    0.000000
      4          8           0        0.290000    1.730000    0.000000
 ---------------------------------------------------------------------

 SCF Done:  E(ROHF) =  -299.215794771     A.U. after   23 cycles
 E2 =    -0.9135500697D+00 EUMP2 =    -0.30012934484057D+03
 CCSD(T)
 CCSD(T)= -0.30015528222D+03

 The electronic state is 5-A'.
 Alpha  occ. eigenvalues --  -20.74128 -20.73185 -20.73151 -20.69968  -1.76963
 Alpha  occ. eigenvalues --   -1.73144  -1.22821  -1.14451  -0.89943  -0.86038
 Alpha  occ. eigenvalues --   -0.84660  -0.81827  -0.77364  -0.70034  -0.53448
 Alpha  occ. eigenvalues --   -0.52701  -0.48939  -0.47107
 Alpha virt. eigenvalues --    0.41425   0.46531   0.64346   0.64825   0.67726
 Alpha virt. eigenvalues --    0.70576   0.71825   0.74699   0.77981   0.79525
 Alpha virt. eigenvalues --    0.79711   0.85825   0.87119   0.96021   0.98529

 Mulliken charges and spin densities:
               1          2
     1  O   -0.066061   0.902598
     2  O    0.055803   1.073155
     3  O    0.026146   0.990404
     4  O   -0.015888   1.033843
 Sum of Mulliken charges =  -0.00000   4.00000

 Dipole moment (field-independent basis, Debye):
    X=              0.3811    Y=              0.2273    Z=              0.0000  Tot=              0.4437
 Quadrupole moment (field-independent basis, Debye-Ang):
   XX=            -20.4926   YY=            -20.9018   ZZ=            -19.5032
   XY=             -0.4406   XZ=              0.0000   YZ=              0.0000

 48\MP4SDQ=-300.1208907\CCSD=-300.1189991\CCSD(T)=-300.1552822\RMSD=3.1
 Normal termination of Gaussian 16 at Tue Feb 13 13:48:18 2024.
