 Gaussian 16, Revision A.03,
 Gaussian 16:  ES64L-G16RevA.03 25-Dec-2016

 --------------------
 #p ROCCSD(T)/cc-pVTZ
 --------------------

 --------
 O2_O2_58
 --------
 Symbolic Z-matrix:
 Charge =  0 Multiplicity = 5

                         Standard orientation:
 ---------------------------------------------------------------------
 Center     Atomic      Atomic             Coordinates (Angstroms)
 Number     Number       Type             X           Y           Z
 ---------------------------------------------------------------------
      1          8           0        0.615183   -1.785183    0.000000
      2          8           0       -0.205061   -0.964939    0.000000
      3          8           0       -0.205061    0.795061   -0.000000
      4          8           0       -0.205061    1.955061   -0.000000
 ---------------------------------------------------------------------

 SCF Done:  E(ROHF) =  -299.238127569     A.U. after   23 cycles
 E2 =    -0.9252297208D+00 EUMP2 =    -0.30016335728995D+03
 CCSD(T)
 CCSD(T)= -0.30017924286D+03

 The electronic state is 5-A'.
 Alpha  occ. eigenvalues --  -20.74130 -20.72819 -20.72131 -20.71670  -1.75432
 Alpha  occ. eigenvalues --   -1.73311  -1.23891  -1.12669  -0.86831  -0.84994
 Alpha  occ. eigenvalues --   -0.84321  -0.82203  -0.80292  -0.70107  -0.53239
 Alpha  occ. eigenvalues --   -0.51831  -0.48092  -0.48022
 Alpha virt. eigenvalues --    0.44014   0.47969   0.64267   0.64730   0.70745
 Alpha virt. eigenvalues --    0.71373   0.71541   0.75471   0.77141   0.78141
 Alpha virt. eigenvalues --    0.79596   0.85172   0.92869   0.95163   0.98093

 Mulliken charges and spin densities:
               1          2
     1  O   -0.042365   0.960544
     2  O    0.031379   1.024127
     3  O    0.019370   0.970702
     4  O   -0.008385   1.044628
 Sum of Mulliken charges =   0.00000   4.00000

 Dipole moment (field-independent basis, Debye):
    X=             -0.1357    Y=              0.3539    Z=             -0.0000  Tot=              0.3790
 Quadrupole moment (field-independent basis, Debye-Ang):
   XX=            -20.0758   YY=            -21.3827   ZZ=            -19.5524
   XY=              0.5091   XZ=             -0.0000   YZ=              0.0000

 276\PMP2-0=-300.1633573\MP4SDQ=-300.1480717\CCSD=-300.1428772\CCSD(T)=
 Normal termination of Gaussian 16 at Tue Feb 13 13:51:33 2024.
