 Gaussian 16, Revision A.03,
 Gaussian 16:  ES64L-G16RevA.03 25-Dec-2016

 --------------------
 #p ROCCSD(T)/cc-pVTZ
 --------------------

 ---------
 O2_O2_212
 ---------
 Symbolic Z-matrix:
 Charge =  0 Multiplicity = 5

                         Standard orientation:
 ---------------------------------------------------------------------
 Center     Atomic      Atomic             Coordinates (Angstroms)
 Number     Number       Type             X           Y           Z
 ---------------------------------------------------------------------
      1          8           0       -0.870000   -2.190000    0.000000
      2          8           0        0.290000   -2.190000    0.000000
      3          8           0        0.290000    1.610000    0.000000
      4          8           0        0.290000    2.770000    0.000000
 ---------------------------------------------------------------------

 SCF Done:  E(ROHF) =  -299.316663065     A.U. after   16 cycles
 E2 =    -0.9225143409D+00 EUMP2 =    -0.30023917740546D+03
 CCSD(T)
 CCSD(T)= -0.30024992062D+03

 The electronic state is 5-A'.
 Alpha  occ. eigenvalues --  -20.74096 -20.74017 -20.73998 -20.73921  -1.74592
 Alpha  occ. eigenvalues --   -1.74492  -1.17141  -1.17036  -0.83873  -0.83872
 Alpha  occ. eigenvalues --   -0.83772  -0.83766  -0.78237  -0.78103  -0.51090
 Alpha  occ. eigenvalues --   -0.51069  -0.50969  -0.50942
 Alpha virt. eigenvalues --    0.40210   0.41658   0.64506   0.67532   0.67851
 Alpha virt. eigenvalues --    0.68391   0.72065   0.74161   0.77159   0.78230
 Alpha virt. eigenvalues --    0.79459   0.79885   0.80129   0.82538   0.86954

 Mulliken charges and spin densities:
               1          2
     1  O   -0.000168   0.999856
     2  O    0.000419   1.000121
     3  O   -0.001222   0.999227
     4  O    0.000971   1.000796
 Sum of Mulliken charges =  -0.00000   4.00000

 Dipole moment (field-independent basis, Debye):
    X=              0.0020    Y=              0.0045    Z=              0.0000  Tot=              0.0049
 Quadrupole moment (field-independent basis, Debye-Ang):
   XX=            -20.2387   YY=            -20.2149   ZZ=            -19.6382
   XY=             -0.0001   XZ=              0.0000   YZ=              0.0000

 774\MP4SDQ=-300.2211076\CCSD=-300.2146321\CCSD(T)=-300.2499206\RMSD=3.
 Normal termination of Gaussian 16 at Tue Feb 13 18:04:09 2024.
