 Gaussian 16, Revision A.03,
 Gaussian 16:  ES64L-G16RevA.03 25-Dec-2016

 --------------------
 #p ROCCSD(T)/cc-pVTZ
 --------------------

 ---------
 O2_O2_123
 ---------
 Symbolic Z-matrix:
 Charge =  0 Multiplicity = 5

                         Standard orientation:
 ---------------------------------------------------------------------
 Center     Atomic      Atomic             Coordinates (Angstroms)
 Number     Number       Type             X           Y           Z
 ---------------------------------------------------------------------
      1          8           0        0.000000    0.000000    2.480000
      2          8           0        0.000000    0.000000    1.320000
      3          8           0        0.000000    0.000000   -1.320000
      4          8           0        0.000000    0.000000   -2.480000
 ---------------------------------------------------------------------

 SCF Done:  E(ROHF) =  -299.314572575     A.U. after   12 cycles
 E2 =    -0.9238223361D+00 EUMP2 =    -0.30023839491120D+03
 CCSD(T)
 CCSD(T)= -0.30024895191D+03

 The electronic state is 5-SGG.
 Alpha  occ. eigenvalues --  -20.73868 -20.73868 -20.73789 -20.73789  -1.74461
 Alpha  occ. eigenvalues --   -1.74364  -1.17623  -1.16376  -0.83816  -0.83816
 Alpha  occ. eigenvalues --   -0.83562  -0.83562  -0.79300  -0.76770  -0.51261
 Alpha  occ. eigenvalues --   -0.51261  -0.50500  -0.50500
 Alpha virt. eigenvalues --    0.39662   0.48068   0.65071   0.65071   0.67449
 Alpha virt. eigenvalues --    0.69512   0.69512   0.75529   0.75529   0.75643
 Alpha virt. eigenvalues --    0.80705   0.85819   0.86970   0.87877   0.87877

 Mulliken charges and spin densities:
               1          2
     1  O   -0.008422   0.998982
     2  O    0.008422   1.001018
     3  O    0.008422   1.001018
     4  O   -0.008422   0.998982
 Sum of Mulliken charges =  -0.00000   4.00000

 Dipole moment (field-independent basis, Debye):
    X=             -0.0000    Y=              0.0000    Z=              0.0000  Tot=              0.0000
 Quadrupole moment (field-independent basis, Debye-Ang):
   XX=            -19.6385   YY=            -19.6385   ZZ=            -21.0002
   XY=              0.0000   XZ=              0.0000   YZ=              0.0000

 3949\MP4SDQ=-300.220092\CCSD=-300.2135101\CCSD(T)=-300.2489519\RMSD=8.
 Normal termination of Gaussian 16 at Tue Feb 13 15:45:50 2024.
