 Gaussian 16, Revision A.03,
 Gaussian 16:  ES64L-G16RevA.03 25-Dec-2016

 --------------------
 #p ROCCSD(T)/cc-pVTZ
 --------------------

 ---------
 O2_O2_191
 ---------
 Symbolic Z-matrix:
 Charge =  0 Multiplicity = 5

                         Standard orientation:
 ---------------------------------------------------------------------
 Center     Atomic      Atomic             Coordinates (Angstroms)
 Number     Number       Type             X           Y           Z
 ---------------------------------------------------------------------
      1          8           0       -0.870000   -2.050000    0.000000
      2          8           0        0.290000   -2.050000    0.000000
      3          8           0        0.290000    1.470000    0.000000
      4          8           0        0.290000    2.630000    0.000000
 ---------------------------------------------------------------------

 SCF Done:  E(ROHF) =  -299.316668346     A.U. after   16 cycles
 E2 =    -0.9226793162D+00 EUMP2 =    -0.30023934766258D+03
 CCSD(T)
 CCSD(T)= -0.30025007481D+03

 The electronic state is 5-A'.
 Alpha  occ. eigenvalues --  -20.74106 -20.74026 -20.73988 -20.73911  -1.74601
 Alpha  occ. eigenvalues --   -1.74480  -1.17155  -1.17021  -0.83884  -0.83884
 Alpha  occ. eigenvalues --   -0.83758  -0.83757  -0.78271  -0.78063  -0.51129
 Alpha  occ. eigenvalues --   -0.51081  -0.50956  -0.50900
 Alpha virt. eigenvalues --    0.39562   0.41730   0.62967   0.67111   0.67616
 Alpha virt. eigenvalues --    0.68703   0.72048   0.74649   0.76621   0.78247
 Alpha virt. eigenvalues --    0.79266   0.80280   0.80468   0.84011   0.86919

 Mulliken charges and spin densities:
               1          2
     1  O   -0.000261   0.999698
     2  O    0.000635   1.000274
     3  O   -0.001939   0.998990
     4  O    0.001565   1.001038
 Sum of Mulliken charges =   0.00000   4.00000

 Dipole moment (field-independent basis, Debye):
    X=              0.0033    Y=              0.0060    Z=              0.0000  Tot=              0.0068
 Quadrupole moment (field-independent basis, Debye-Ang):
   XX=            -20.2391   YY=            -20.2137   ZZ=            -19.6382
   XY=             -0.0008   XZ=              0.0000   YZ=              0.0000

 3477\MP4SDQ=-300.2212451\CCSD=-300.214765\CCSD(T)=-300.2500748\RMSD=3.
 Normal termination of Gaussian 16 at Tue Feb 13 17:31:36 2024.
