 Gaussian 16, Revision A.03,
 Gaussian 16:  ES64L-G16RevA.03 25-Dec-2016

 --------------------
 #p ROCCSD(T)/cc-pVTZ
 --------------------

 ---------
 O2_O2_220
 ---------
 Symbolic Z-matrix:
 Charge =  0 Multiplicity = 5

                         Standard orientation:
 ---------------------------------------------------------------------
 Center     Atomic      Atomic             Coordinates (Angstroms)
 Number     Number       Type             X           Y           Z
 ---------------------------------------------------------------------
      1          8           0        0.615183   -2.865183   -0.000000
      2          8           0       -0.205061   -2.044939   -0.000000
      3          8           0       -0.205061    1.875062    0.000000
      4          8           0       -0.205061    3.035060    0.000000
 ---------------------------------------------------------------------

 SCF Done:  E(ROHF) =  -299.316627697     A.U. after   17 cycles
 E2 =    -0.9224465409D+00 EUMP2 =    -0.30023907423788D+03
 CCSD(T)
 CCSD(T)= -0.30024982230D+03

 The electronic state is 5-A'.
 Alpha  occ. eigenvalues --  -20.74028 -20.74011 -20.73951 -20.73933  -1.74527
 Alpha  occ. eigenvalues --   -1.74507  -1.17082  -1.17037  -0.83808  -0.83808
 Alpha  occ. eigenvalues --   -0.83786  -0.83783  -0.78200  -0.78078  -0.51013
 Alpha  occ. eigenvalues --   -0.51006  -0.50973  -0.50970
 Alpha virt. eigenvalues --    0.38396   0.43786   0.66629   0.67787   0.67964
 Alpha virt. eigenvalues --    0.68210   0.69697   0.73869   0.76623   0.78454
 Alpha virt. eigenvalues --    0.79144   0.80051   0.80473   0.84287   0.87046

 Mulliken charges and spin densities:
               1          2
     1  O   -0.000365   0.999360
     2  O    0.000489   1.000560
     3  O   -0.000016   1.000529
     4  O   -0.000108   0.999551
 Sum of Mulliken charges =  -0.00000   4.00000

 Dipole moment (field-independent basis, Debye):
    X=             -0.0031    Y=             -0.0016    Z=              0.0000  Tot=              0.0035
 Quadrupole moment (field-independent basis, Debye-Ang):
   XX=            -19.9391   YY=            -20.5650   ZZ=            -19.6384
   XY=              0.3049   XZ=             -0.0000   YZ=             -0.0000

 Normal termination of Gaussian 16 at Tue Feb 13 18:17:29 2024.
