 Gaussian 16, Revision A.03,
 Gaussian 16:  ES64L-G16RevA.03 25-Dec-2016

 --------------------
 #p ROCCSD(T)/cc-pVTZ
 --------------------

 ---------
 O2_O2_234
 ---------
 Symbolic Z-matrix:
 Charge =  0 Multiplicity = 5

                         Standard orientation:
 ---------------------------------------------------------------------
 Center     Atomic      Atomic             Coordinates (Angstroms)
 Number     Number       Type             X           Y           Z
 ---------------------------------------------------------------------
      1          8           0        0.000000    0.000000    3.220000
      2          8           0        0.000000    0.000000    2.060000
      3          8           0        0.000000    0.000000   -2.060000
      4          8           0        0.000000    0.000000   -3.220000
 ---------------------------------------------------------------------

 SCF Done:  E(ROHF) =  -299.316606534     A.U. after   11 cycles
 E2 =    -0.9223952322D+00 EUMP2 =    -0.30023900176569D+03
 CCSD(T)
 CCSD(T)= -0.30024975490D+03

 The electronic state is 5-SGG.
 Alpha  occ. eigenvalues --  -20.74011 -20.74011 -20.73933 -20.73933  -1.74510
 Alpha  occ. eigenvalues --   -1.74509  -1.17064  -1.17039  -0.83792  -0.83792
 Alpha  occ. eigenvalues --   -0.83787  -0.83787  -0.78178  -0.78084  -0.50996
 Alpha  occ. eigenvalues --   -0.50996  -0.50971  -0.50971
 Alpha virt. eigenvalues --    0.38003   0.44301   0.67891   0.67891   0.68132
 Alpha virt. eigenvalues --    0.68132   0.68895   0.74016   0.76799   0.79387
 Alpha virt. eigenvalues --    0.79387   0.80226   0.80226   0.81656   0.87068

 Mulliken charges and spin densities:
               1          2
     1  O   -0.000385   0.999318
     2  O    0.000385   1.000682
     3  O    0.000385   1.000682
     4  O   -0.000385   0.999318
 Sum of Mulliken charges =  -0.00000   4.00000

 Dipole moment (field-independent basis, Debye):
    X=             -0.0000    Y=             -0.0000    Z=              0.0000  Tot=              0.0000
 Quadrupole moment (field-independent basis, Debye-Ang):
   XX=            -19.6384   YY=            -19.6384   ZZ=            -20.8826
   XY=              0.0000   XZ=              0.0000   YZ=              0.0000

 90018\MP4SDQ=-300.2209614\CCSD=-300.2144805\CCSD(T)=-300.2497549\RMSD=
 Normal termination of Gaussian 16 at Tue Feb 13 18:41:59 2024.
