 Gaussian 16, Revision A.03,
 Gaussian 16:  ES64L-G16RevA.03 25-Dec-2016

 --------------------
 #p ROCCSD(T)/cc-pVTZ
 --------------------

 ---------
 O2_O2_110
 ---------
 Symbolic Z-matrix:
 Charge =  0 Multiplicity = 5

                         Standard orientation:
 ---------------------------------------------------------------------
 Center     Atomic      Atomic             Coordinates (Angstroms)
 Number     Number       Type             X           Y           Z
 ---------------------------------------------------------------------
      1          8           0       -0.870000   -1.510000    0.000000
      2          8           0        0.290000   -1.510000    0.000000
      3          8           0        0.290000    0.930000    0.000000
      4          8           0        0.290000    2.090000    0.000000
 ---------------------------------------------------------------------

 SCF Done:  E(ROHF) =  -299.310227606     A.U. after   22 cycles
 E2 =    -0.9246493217D+00 EUMP2 =    -0.30023487692764D+03
 CCSD(T)
 CCSD(T)= -0.30024571016D+03

 The electronic state is 5-A'.
 Alpha  occ. eigenvalues --  -20.74137 -20.73866 -20.73779 -20.73504  -1.74749
 Alpha  occ. eigenvalues --   -1.74214  -1.17708  -1.16580  -0.84600  -0.84121
 Alpha  occ. eigenvalues --   -0.83793  -0.83375  -0.78470  -0.76980  -0.51787
 Alpha  occ. eigenvalues --   -0.51278  -0.50604  -0.50122
 Alpha virt. eigenvalues --    0.40955   0.44116   0.63553   0.64727   0.68347
 Alpha virt. eigenvalues --    0.70468   0.71555   0.73877   0.74040   0.77661
 Alpha virt. eigenvalues --    0.78898   0.81536   0.84254   0.86654   0.94389

 Mulliken charges and spin densities:
               1          2
     1  O   -0.004843   0.989385
     2  O    0.005226   1.010542
     3  O    0.003026   0.993739
     4  O   -0.003410   1.006334
 Sum of Mulliken charges =   0.00000   4.00000

 Dipole moment (field-independent basis, Debye):
    X=              0.0505    Y=              0.0554    Z=              0.0000  Tot=              0.0750
 Quadrupole moment (field-independent basis, Debye-Ang):
   XX=            -20.2649   YY=            -20.3748   ZZ=            -19.6352
   XY=             -0.0633   XZ=              0.0000   YZ=              0.0000

 769\MP4SDQ=-300.2165174\CCSD=-300.2100951\CCSD(T)=-300.2457102\RMSD=3.
 Normal termination of Gaussian 16 at Tue Feb 13 15:26:23 2024.
