 Gaussian 16, Revision A.03,
 Gaussian 16:  ES64L-G16RevA.03 25-Dec-2016

 --------------------
 #p ROCCSD(T)/cc-pVTZ
 --------------------

 ---------
 O2_O2_235
 ---------
 Symbolic Z-matrix:
 Charge =  0 Multiplicity = 5

                         Standard orientation:
 ---------------------------------------------------------------------
 Center     Atomic      Atomic             Coordinates (Angstroms)
 Number     Number       Type             X           Y           Z
 ---------------------------------------------------------------------
      1          8           0        0.615183   -2.965183    0.000000
      2          8           0       -0.205061   -2.144939    0.000000
      3          8           0       -0.205061    1.975061   -0.000000
      4          8           0       -0.205061    3.135061   -0.000000
 ---------------------------------------------------------------------

 SCF Done:  E(ROHF) =  -299.316617515     A.U. after   13 cycles
 E2 =    -0.9223909137D+00 EUMP2 =    -0.30023900842917D+03
 CCSD(T)
 CCSD(T)= -0.30024976528D+03

 The electronic state is 5-A'.
 Alpha  occ. eigenvalues --  -20.74031 -20.74012 -20.73954 -20.73935  -1.74530
 Alpha  occ. eigenvalues --   -1.74510  -1.17078  -1.17047  -0.83810  -0.83810
 Alpha  occ. eigenvalues --   -0.83790  -0.83787  -0.78182  -0.78104  -0.51010
 Alpha  occ. eigenvalues --   -0.51007  -0.50980  -0.50979
 Alpha virt. eigenvalues --    0.39156   0.43282   0.67371   0.67877   0.67993
 Alpha virt. eigenvalues --    0.68128   0.70114   0.73486   0.76765   0.78571
 Alpha virt. eigenvalues --    0.79392   0.79887   0.80198   0.82461   0.87050

 Mulliken charges and spin densities:
               1          2
     1  O   -0.000418   0.999428
     2  O    0.000489   1.000526
     3  O    0.000138   1.000429
     4  O   -0.000209   0.999617
 Sum of Mulliken charges =  -0.00000   4.00000

 Dipole moment (field-independent basis, Debye):
    X=             -0.0028    Y=             -0.0007    Z=              0.0000  Tot=              0.0029
 Quadrupole moment (field-independent basis, Debye-Ang):
   XX=            -19.9390   YY=            -20.5636   ZZ=            -19.6384
   XY=              0.3044   XZ=              0.0000   YZ=              0.0000

 75\PMP2-0=-300.2390084\MP4SDQ=-300.2209688\CCSD=-300.2144911\CCSD(T)=-
 Normal termination of Gaussian 16 at Tue Feb 13 18:43:57 2024.
