 Gaussian 16, Revision A.03,
 Gaussian 16:  ES64L-G16RevA.03 25-Dec-2016

 --------------------
 #p ROCCSD(T)/cc-pVTZ
 --------------------

 ---------
 O2_O2_223
 ---------
 Symbolic Z-matrix:
 Charge =  0 Multiplicity = 5

                         Standard orientation:
 ---------------------------------------------------------------------
 Center     Atomic      Atomic             Coordinates (Angstroms)
 Number     Number       Type             X           Y           Z
 ---------------------------------------------------------------------
      1          8           0        0.615183   -2.885183   -0.000000
      2          8           0       -0.205061   -2.064939   -0.000000
      3          8           0       -0.205061    1.895061    0.000000
      4          8           0       -0.205061    3.055061    0.000000
 ---------------------------------------------------------------------

 SCF Done:  E(ROHF) =  -299.316626013     A.U. after   17 cycles
 E2 =    -0.9224341129D+00 EUMP2 =    -0.30023906012544D+03
 CCSD(T)
 CCSD(T)= -0.30024981001D+03

 The electronic state is 5-A'.
 Alpha  occ. eigenvalues --  -20.74028 -20.74011 -20.73952 -20.73933  -1.74528
 Alpha  occ. eigenvalues --   -1.74508  -1.17081  -1.17039  -0.83808  -0.83808
 Alpha  occ. eigenvalues --   -0.83787  -0.83784  -0.78196  -0.78084  -0.51013
 Alpha  occ. eigenvalues --   -0.51006  -0.50974  -0.50972
 Alpha virt. eigenvalues --    0.38550   0.43686   0.66806   0.67809   0.67972
 Alpha virt. eigenvalues --    0.68190   0.69761   0.73795   0.76641   0.78486
 Alpha virt. eigenvalues --    0.79202   0.80009   0.80408   0.83899   0.87047

 Mulliken charges and spin densities:
               1          2
     1  O   -0.000378   0.999376
     2  O    0.000490   1.000551
     3  O    0.000023   1.000508
     4  O   -0.000135   0.999565
 Sum of Mulliken charges =  -0.00000   4.00000

 Dipole moment (field-independent basis, Debye):
    X=             -0.0031    Y=             -0.0014    Z=              0.0000  Tot=              0.0034
 Quadrupole moment (field-independent basis, Debye-Ang):
   XX=            -19.9391   YY=            -20.5646   ZZ=            -19.6384
   XY=              0.3048   XZ=              0.0000   YZ=             -0.0000

 26\PMP2-0=-300.2390601\MP4SDQ=-300.2210113\CCSD=-300.214531\CCSD(T)=-3
 Normal termination of Gaussian 16 at Tue Feb 13 18:22:39 2024.
