 Gaussian 16, Revision A.03,
 Gaussian 16:  ES64L-G16RevA.03 25-Dec-2016

 --------------------
 #p ROCCSD(T)/cc-pVTZ
 --------------------

 --------
 O2_O2_43
 --------
 Symbolic Z-matrix:
 Charge =  0 Multiplicity = 5

                         Standard orientation:
 ---------------------------------------------------------------------
 Center     Atomic      Atomic             Coordinates (Angstroms)
 Number     Number       Type             X           Y           Z
 ---------------------------------------------------------------------
      1          8           0        0.615183   -1.685183    0.000000
      2          8           0       -0.205061   -0.864939    0.000000
      3          8           0       -0.205061    0.695062   -0.000000
      4          8           0       -0.205061    1.855060   -0.000000
 ---------------------------------------------------------------------

 SCF Done:  E(ROHF) =  -299.155288775     A.U. after   22 cycles
 E2 =    -0.9220211266D+00 EUMP2 =    -0.30007730990148D+03
 CCSD(T)
 CCSD(T)= -0.30009938051D+03

 The electronic state is 5-A'.
 Alpha  occ. eigenvalues --  -20.74840 -20.73202 -20.70916 -20.69755  -1.77076
 Alpha  occ. eigenvalues --   -1.72720  -1.29507  -1.10569  -0.88920  -0.86559
 Alpha  occ. eigenvalues --   -0.85761  -0.81417  -0.79390  -0.65458  -0.54948
 Alpha  occ. eigenvalues --   -0.52786  -0.46639  -0.45381
 Alpha virt. eigenvalues --    0.44832   0.48624   0.64483   0.65001   0.69180
 Alpha virt. eigenvalues --    0.70976   0.71700   0.74874   0.77361   0.79753
 Alpha virt. eigenvalues --    0.79893   0.84829   0.93211   0.96523   1.00241

 Mulliken charges and spin densities:
               1          2
     1  O   -0.073695   0.934833
     2  O    0.039759   1.009616
     3  O    0.032626   0.967776
     4  O    0.001310   1.087775
 Sum of Mulliken charges =  -0.00000   4.00000

 Dipole moment (field-independent basis, Debye):
    X=             -0.2053    Y=              0.7529    Z=             -0.0000  Tot=              0.7804
 Quadrupole moment (field-independent basis, Debye-Ang):
   XX=            -20.2078   YY=            -21.7313   ZZ=            -19.4454
   XY=              0.5897   XZ=              0.0000   YZ=              0.0000

 8\PMP2-0=-300.0773099\MP4SDQ=-300.0660189\CCSD=-300.0623997\CCSD(T)=-3
 Normal termination of Gaussian 16 at Tue Feb 13 13:23:08 2024.
