 Gaussian 16, Revision A.03,
 Gaussian 16:  ES64L-G16RevA.03 25-Dec-2016

 --------------------
 #p ROCCSD(T)/cc-pVTZ
 --------------------

 ---------
 O2_O2_270
 ---------
 Symbolic Z-matrix:
 Charge =  0 Multiplicity = 5

                         Standard orientation:
 ---------------------------------------------------------------------
 Center     Atomic      Atomic             Coordinates (Angstroms)
 Number     Number       Type             X           Y           Z
 ---------------------------------------------------------------------
      1          8           0        0.000000    0.000000    3.460000
      2          8           0        0.000000    0.000000    2.300000
      3          8           0        0.000000    0.000000   -2.300000
      4          8           0        0.000000    0.000000   -3.460000
 ---------------------------------------------------------------------

 SCF Done:  E(ROHF) =  -299.316591540     A.U. after   11 cycles
 E2 =    -0.9223209835D+00 EUMP2 =    -0.30023891252382D+03
 CCSD(T)
 CCSD(T)= -0.30024968059D+03

 The electronic state is 5-SGG.
 Alpha  occ. eigenvalues --  -20.74018 -20.74018 -20.73941 -20.73941  -1.74518
 Alpha  occ. eigenvalues --   -1.74518  -1.17064  -1.17058  -0.83798  -0.83798
 Alpha  occ. eigenvalues --   -0.83797  -0.83797  -0.78156  -0.78126  -0.50995
 Alpha  occ. eigenvalues --   -0.50995  -0.50989  -0.50989
 Alpha virt. eigenvalues --    0.40065   0.42689   0.67978   0.67978   0.68038
 Alpha virt. eigenvalues --    0.68038   0.71030   0.72889   0.77279   0.79081
 Alpha virt. eigenvalues --    0.79685   0.79685   0.79899   0.79899   0.87067

 Mulliken charges and spin densities:
               1          2
     1  O   -0.000443   0.999488
     2  O    0.000443   1.000512
     3  O    0.000443   1.000512
     4  O   -0.000443   0.999488
 Sum of Mulliken charges =   0.00000   4.00000

 Dipole moment (field-independent basis, Debye):
    X=             -0.0000    Y=              0.0000    Z=             -0.0000  Tot=              0.0000
 Quadrupole moment (field-independent basis, Debye-Ang):
   XX=            -19.6383   YY=            -19.6383   ZZ=            -20.8757
   XY=              0.0000   XZ=              0.0000   YZ=              0.0000

 9125\MP4SDQ=-300.220889\CCSD=-300.2144139\CCSD(T)=-300.2496806\RMSD=5.
 Normal termination of Gaussian 16 at Tue Feb 13 19:52:42 2024.
