 Gaussian 16, Revision A.03,
 Gaussian 16:  ES64L-G16RevA.03 25-Dec-2016

 --------------------
 #p ROCCSD(T)/cc-pVTZ
 --------------------

 ---------
 O2_O2_162
 ---------
 Symbolic Z-matrix:
 Charge =  0 Multiplicity = 5

                         Standard orientation:
 ---------------------------------------------------------------------
 Center     Atomic      Atomic             Coordinates (Angstroms)
 Number     Number       Type             X           Y           Z
 ---------------------------------------------------------------------
      1          8           0        0.000000    0.000000    2.740000
      2          8           0        0.000000    0.000000    1.580000
      3          8           0        0.000000    0.000000   -1.580000
      4          8           0        0.000000    0.000000   -2.740000
 ---------------------------------------------------------------------

 SCF Done:  E(ROHF) =  -299.316422290     A.U. after   12 cycles
 E2 =    -0.9229228190D+00 EUMP2 =    -0.30023934510940D+03
 CCSD(T)
 CCSD(T)= -0.30025003252D+03

 The electronic state is 5-SGG.
 Alpha  occ. eigenvalues --  -20.73972 -20.73972 -20.73892 -20.73892  -1.74485
 Alpha  occ. eigenvalues --   -1.74465  -1.17181  -1.16856  -0.83788  -0.83788
 Alpha  occ. eigenvalues --   -0.83720  -0.83720  -0.78500  -0.77685  -0.51069
 Alpha  occ. eigenvalues --   -0.51069  -0.50825  -0.50825
 Alpha virt. eigenvalues --    0.36068   0.47443   0.65017   0.66765   0.66765
 Alpha virt. eigenvalues --    0.68856   0.68856   0.75481   0.77047   0.77047
 Alpha virt. eigenvalues --    0.77972   0.83456   0.83456   0.86319   0.87035

 Mulliken charges and spin densities:
               1          2
     1  O   -0.000554   0.998807
     2  O    0.000554   1.001193
     3  O    0.000554   1.001193
     4  O   -0.000554   0.998807
 Sum of Mulliken charges =   0.00000   4.00000

 Dipole moment (field-independent basis, Debye):
    X=              0.0000    Y=             -0.0000    Z=             -0.0000  Tot=              0.0000
 Quadrupole moment (field-independent basis, Debye-Ang):
   XX=            -19.6387   YY=            -19.6387   ZZ=            -20.9242
   XY=              0.0000   XZ=              0.0000   YZ=              0.0000

 93451\MP4SDQ=-300.2212152\CCSD=-300.2146974\CCSD(T)=-300.2500325\RMSD=
 Normal termination of Gaussian 16 at Tue Feb 13 16:47:04 2024.
