 Gaussian 16, Revision A.03,
 Gaussian 16:  ES64L-G16RevA.03 25-Dec-2016

 --------------------
 #p ROCCSD(T)/cc-pVTZ
 --------------------

 ---------
 O2_O2_121
 ---------
 Symbolic Z-matrix:
 Charge =  0 Multiplicity = 5

                         Standard orientation:
 ---------------------------------------------------------------------
 Center     Atomic      Atomic             Coordinates (Angstroms)
 Number     Number       Type             X           Y           Z
 ---------------------------------------------------------------------
      1          8           0        0.615183   -2.205183    0.000000
      2          8           0       -0.205061   -1.384939    0.000000
      3          8           0       -0.205061    1.215062   -0.000000
      4          8           0       -0.205061    2.375060   -0.000000
 ---------------------------------------------------------------------

 SCF Done:  E(ROHF) =  -299.313953512     A.U. after   19 cycles
 E2 =    -0.9239556280D+00 EUMP2 =    -0.30023790914018D+03
 CCSD(T)
 CCSD(T)= -0.30024848304D+03

 The electronic state is 5-A'.
 Alpha  occ. eigenvalues --  -20.73927 -20.73836 -20.73826 -20.73727  -1.74509
 Alpha  occ. eigenvalues --   -1.74341  -1.17674  -1.16380  -0.83897  -0.83858
 Alpha  occ. eigenvalues --   -0.83644  -0.83543  -0.79126  -0.76896  -0.51288
 Alpha  occ. eigenvalues --   -0.51104  -0.50646  -0.50498
 Alpha virt. eigenvalues --    0.40132   0.46064   0.64613   0.64818   0.67486
 Alpha virt. eigenvalues --    0.69685   0.70870   0.74840   0.75941   0.77624
 Alpha virt. eigenvalues --    0.79218   0.84040   0.86158   0.87390   0.87795

 Mulliken charges and spin densities:
               1          2
     1  O   -0.004165   0.995332
     2  O    0.004343   1.004741
     3  O    0.004860   0.999293
     4  O   -0.005039   1.000634
 Sum of Mulliken charges =  -0.00000   4.00000

 Dipole moment (field-independent basis, Debye):
    X=             -0.0199    Y=              0.0210    Z=              0.0000  Tot=              0.0289
 Quadrupole moment (field-independent basis, Debye-Ang):
   XX=            -19.9524   YY=            -20.7189   ZZ=            -19.6383
   XY=              0.3331   XZ=              0.0000   YZ=              0.0000

 Normal termination of Gaussian 16 at Tue Feb 13 15:43:02 2024.
