 Gaussian 16, Revision A.03,
 Gaussian 16:  ES64L-G16RevA.03 25-Dec-2016

 --------------------
 #p ROCCSD(T)/cc-pVTZ
 --------------------

 --------
 O2_O2_68
 --------
 Symbolic Z-matrix:
 Charge =  0 Multiplicity = 5

                         Standard orientation:
 ---------------------------------------------------------------------
 Center     Atomic      Atomic             Coordinates (Angstroms)
 Number     Number       Type             X           Y           Z
 ---------------------------------------------------------------------
      1          8           0       -0.870000   -1.230000    0.000000
      2          8           0        0.290000   -1.230000    0.000000
      3          8           0        0.290000    0.650000    0.000000
      4          8           0        0.290000    1.810000    0.000000
 ---------------------------------------------------------------------

 SCF Done:  E(ROHF) =  -299.259503623     A.U. after   23 cycles
 E2 =    -0.9189604489D+00 EUMP2 =    -0.30017846407152D+03
 CCSD(T)
 CCSD(T)= -0.30019857975D+03

 The electronic state is 5-A'.
 Alpha  occ. eigenvalues --  -20.74119 -20.73391 -20.73194 -20.71367  -1.75827
 Alpha  occ. eigenvalues --   -1.73485  -1.20514  -1.15229  -0.88147  -0.85144
 Alpha  occ. eigenvalues --   -0.84162  -0.82354  -0.77822  -0.72797  -0.52964
 Alpha  occ. eigenvalues --   -0.52064  -0.49538  -0.48233
 Alpha virt. eigenvalues --    0.41369   0.46252   0.63848   0.66721   0.67456
 Alpha virt. eigenvalues --    0.70951   0.71434   0.74371   0.77197   0.78356
 Alpha virt. eigenvalues --    0.79311   0.85729   0.86924   0.92592   0.98082

 Mulliken charges and spin densities:
               1          2
     1  O   -0.042414   0.935241
     2  O    0.037895   1.056375
     3  O    0.017557   0.983751
     4  O   -0.013039   1.024633
 Sum of Mulliken charges =  -0.00000   4.00000

 Dipole moment (field-independent basis, Debye):
    X=              0.2553    Y=              0.1507    Z=              0.0000  Tot=              0.2964
 Quadrupole moment (field-independent basis, Debye-Ang):
   XX=            -20.4007   YY=            -20.7035   ZZ=            -19.5670
   XY=             -0.3220   XZ=              0.0000   YZ=              0.0000

 641\MP4SDQ=-300.1661338\CCSD=-300.1624766\CCSD(T)=-300.1985797\RMSD=8.
 Normal termination of Gaussian 16 at Tue Feb 13 14:12:03 2024.
