 Gaussian 16, Revision A.03,
 Gaussian 16:  ES64L-G16RevA.03 25-Dec-2016

 --------------------
 #p ROCCSD(T)/cc-pVTZ
 --------------------

 ---------
 O2_O2_275
 ---------
 Symbolic Z-matrix:
 Charge =  0 Multiplicity = 5

                         Standard orientation:
 ---------------------------------------------------------------------
 Center     Atomic      Atomic             Coordinates (Angstroms)
 Number     Number       Type             X           Y           Z
 ---------------------------------------------------------------------
      1          8           0       -0.870000   -2.610000    0.000000
      2          8           0        0.290000   -2.610000    0.000000
      3          8           0        0.290000    2.030000    0.000000
      4          8           0        0.290000    3.190000    0.000000
 ---------------------------------------------------------------------

 SCF Done:  E(ROHF) =  -299.316603387     A.U. after   16 cycles
 E2 =    -0.9223153985D+00 EUMP2 =    -0.30023891878601D+03
 CCSD(T)
 CCSD(T)= -0.30024969208D+03

 The electronic state is 5-A'.
 Alpha  occ. eigenvalues --  -20.74077 -20.74011 -20.74000 -20.73935  -1.74575
 Alpha  occ. eigenvalues --   -1.74509  -1.17121  -1.17055  -0.83855  -0.83855
 Alpha  occ. eigenvalues --   -0.83790  -0.83788  -0.78203  -0.78137  -0.51051
 Alpha  occ. eigenvalues --   -0.51051  -0.50986  -0.50983
 Alpha virt. eigenvalues --    0.41261   0.41492   0.67779   0.67932   0.67973
 Alpha virt. eigenvalues --    0.68037   0.72053   0.72168   0.77891   0.78067
 Alpha virt. eigenvalues --    0.79588   0.79717   0.79811   0.80052   0.87011

 Mulliken charges and spin densities:
               1          2
     1  O   -0.000135   0.999857
     2  O    0.000150   1.000142
     3  O   -0.000398   0.999578
     4  O    0.000383   1.000424
 Sum of Mulliken charges =   0.00000   4.00000

 Dipole moment (field-independent basis, Debye):
    X=              0.0012    Y=              0.0039    Z=              0.0000  Tot=              0.0041
 Quadrupole moment (field-independent basis, Debye-Ang):
   XX=            -20.2387   YY=            -20.2290   ZZ=            -19.6381
   XY=             -0.0010   XZ=              0.0000   YZ=              0.0000

 188\MP4SDQ=-300.2208954\CCSD=-300.2144261\CCSD(T)=-300.2496921\RMSD=2.
 Normal termination of Gaussian 16 at Tue Feb 13 20:03:50 2024.
