 Gaussian 16, Revision A.03,
 Gaussian 16:  ES64L-G16RevA.03 25-Dec-2016

 --------------------
 #p ROCCSD(T)/cc-pVTZ
 --------------------

 ---------
 O2_O2_156
 ---------
 Symbolic Z-matrix:
 Charge =  0 Multiplicity = 5

                         Standard orientation:
 ---------------------------------------------------------------------
 Center     Atomic      Atomic             Coordinates (Angstroms)
 Number     Number       Type             X           Y           Z
 ---------------------------------------------------------------------
      1          8           0        0.000000    0.000000    2.700000
      2          8           0        0.000000    0.000000    1.540000
      3          8           0        0.000000    0.000000   -1.540000
      4          8           0        0.000000    0.000000   -2.700000
 ---------------------------------------------------------------------

 SCF Done:  E(ROHF) =  -299.316332438     A.U. after   12 cycles
 E2 =    -0.9230129254D+00 EUMP2 =    -0.30023934536303D+03
 CCSD(T)
 CCSD(T)= -0.30025002254D+03

 The electronic state is 5-SGG.
 Alpha  occ. eigenvalues --  -20.73963 -20.73963 -20.73883 -20.73883  -1.74482
 Alpha  occ. eigenvalues --   -1.74457  -1.17215  -1.16814  -0.83789  -0.83789
 Alpha  occ. eigenvalues --   -0.83706  -0.83706  -0.78574  -0.77601  -0.51086
 Alpha  occ. eigenvalues --   -0.51086  -0.50794  -0.50794
 Alpha virt. eigenvalues --    0.36464   0.47575   0.65128   0.66550   0.66550
 Alpha virt. eigenvalues --    0.68952   0.68952   0.75508   0.76765   0.76765
 Alpha virt. eigenvalues --    0.78246   0.84005   0.84005   0.86268   0.87029

 Mulliken charges and spin densities:
               1          2
     1  O   -0.001185   0.998762
     2  O    0.001185   1.001238
     3  O    0.001185   1.001238
     4  O   -0.001185   0.998762
 Sum of Mulliken charges =  -0.00000   4.00000

 Dipole moment (field-independent basis, Debye):
    X=             -0.0000    Y=              0.0000    Z=              0.0000  Tot=              0.0000
 Quadrupole moment (field-independent basis, Debye-Ang):
   XX=            -19.6387   YY=            -19.6387   ZZ=            -20.9315
   XY=              0.0000   XZ=              0.0000   YZ=              0.0000

 93454\MP4SDQ=-300.2212007\CCSD=-300.2146767\CCSD(T)=-300.2500225\RMSD=
 Normal termination of Gaussian 16 at Tue Feb 13 16:37:55 2024.
