 Gaussian 16, Revision A.03,
 Gaussian 16:  ES64L-G16RevA.03 25-Dec-2016

 --------------------
 #p ROCCSD(T)/cc-pVTZ
 --------------------

 --------
 O2_O2_34
 --------
 Symbolic Z-matrix:
 Charge =  0 Multiplicity = 5

                         Standard orientation:
 ---------------------------------------------------------------------
 Center     Atomic      Atomic             Coordinates (Angstroms)
 Number     Number       Type             X           Y           Z
 ---------------------------------------------------------------------
      1          8           0        0.615183   -1.625183   -0.000000
      2          8           0       -0.205061   -0.804939   -0.000000
      3          8           0       -0.205061    0.635061    0.000000
      4          8           0       -0.205061    1.795061    0.000000
 ---------------------------------------------------------------------

 SCF Done:  E(ROHF) =  -299.076485508     A.U. after   22 cycles
 E2 =    -0.9197378999D+00 EUMP2 =    -0.29999622340799D+03
 CCSD(T)
 CCSD(T)= -0.30002130403D+03

 The electronic state is 5-A'.
 Alpha  occ. eigenvalues --  -20.75655 -20.74742 -20.69912 -20.67986  -1.79305
 Alpha  occ. eigenvalues --   -1.72336  -1.34729  -1.09142  -0.90204  -0.88521
 Alpha  occ. eigenvalues --   -0.87428  -0.80784  -0.78384  -0.61740  -0.56643
 Alpha  occ. eigenvalues --   -0.53807  -0.45490  -0.42465
 Alpha virt. eigenvalues --    0.44987   0.49360   0.64261   0.64741   0.67271
 Alpha virt. eigenvalues --    0.71166   0.71375   0.74050   0.78553   0.79722
 Alpha virt. eigenvalues --    0.80756   0.85034   0.93124   0.96914   1.01449

 Mulliken charges and spin densities:
               1          2
     1  O   -0.101433   0.914281
     2  O    0.030063   0.964637
     3  O    0.063852   0.997466
     4  O    0.007518   1.123616
 Sum of Mulliken charges =  -0.00000   4.00000

 Dipole moment (field-independent basis, Debye):
    X=             -0.2550    Y=              1.1667    Z=              0.0000  Tot=              1.1943
 Quadrupole moment (field-independent basis, Debye-Ang):
   XX=            -20.3444   YY=            -22.0747   ZZ=            -19.3354
   XY=              0.6330   XZ=             -0.0000   YZ=             -0.0000

 55\PMP2-0=-299.9962234\MP4SDQ=-299.9868049\CCSD=-299.9838591\CCSD(T)=-
 Normal termination of Gaussian 16 at Tue Feb 13 13:05:17 2024.
