 Gaussian 16, Revision A.03,
 Gaussian 16:  ES64L-G16RevA.03 25-Dec-2016

 --------------------
 #p ROCCSD(T)/cc-pVTZ
 --------------------

 ---------
 O2_O2_224
 ---------
 Symbolic Z-matrix:
 Charge =  0 Multiplicity = 5

                         Standard orientation:
 ---------------------------------------------------------------------
 Center     Atomic      Atomic             Coordinates (Angstroms)
 Number     Number       Type             X           Y           Z
 ---------------------------------------------------------------------
      1          8           0       -0.870000   -2.270000    0.000000
      2          8           0        0.290000   -2.270000    0.000000
      3          8           0        0.290000    1.690000    0.000000
      4          8           0        0.290000    2.850000    0.000000
 ---------------------------------------------------------------------

 SCF Done:  E(ROHF) =  -299.316649362     A.U. after   16 cycles
 E2 =    -0.9224493620D+00 EUMP2 =    -0.30023909872388D+03
 CCSD(T)
 CCSD(T)= -0.30024985027D+03

 The electronic state is 5-A'.
 Alpha  occ. eigenvalues --  -20.74091 -20.74013 -20.74001 -20.73924  -1.74588
 Alpha  occ. eigenvalues --   -1.74496  -1.17135  -1.17041  -0.83868  -0.83868
 Alpha  occ. eigenvalues --   -0.83777  -0.83771  -0.78225  -0.78115  -0.51076
 Alpha  occ. eigenvalues --   -0.51065  -0.50973  -0.50956
 Alpha virt. eigenvalues --    0.40558   0.41623   0.65460   0.67682   0.67911
 Alpha virt. eigenvalues --    0.68267   0.72067   0.73679   0.77448   0.78225
 Alpha virt. eigenvalues --    0.79545   0.79620   0.80010   0.81754   0.86971

 Mulliken charges and spin densities:
               1          2
     1  O   -0.000145   0.999875
     2  O    0.000320   1.000108
     3  O   -0.000932   0.999320
     4  O    0.000757   1.000697
 Sum of Mulliken charges =  -0.00000   4.00000

 Dipole moment (field-independent basis, Debye):
    X=              0.0017    Y=              0.0044    Z=              0.0000  Tot=              0.0047
 Quadrupole moment (field-independent basis, Debye-Ang):
   XX=            -20.2386   YY=            -20.2180   ZZ=            -19.6382
   XY=             -0.0001   XZ=              0.0000   YZ=              0.0000

 987\MP4SDQ=-300.2210431\CCSD=-300.2145696\CCSD(T)=-300.2498503\RMSD=2.
 Normal termination of Gaussian 16 at Tue Feb 13 18:24:32 2024.
