 Gaussian 16, Revision A.03,
 Gaussian 16:  ES64L-G16RevA.03 25-Dec-2016

 --------------------
 #p ROCCSD(T)/cc-pVTZ
 --------------------

 ---------
 O2_O2_215
 ---------
 Symbolic Z-matrix:
 Charge =  0 Multiplicity = 5

                         Standard orientation:
 ---------------------------------------------------------------------
 Center     Atomic      Atomic             Coordinates (Angstroms)
 Number     Number       Type             X           Y           Z
 ---------------------------------------------------------------------
      1          8           0       -0.870000   -2.210000    0.000000
      2          8           0        0.290000   -2.210000    0.000000
      3          8           0        0.290000    1.630000    0.000000
      4          8           0        0.290000    2.790000    0.000000
 ---------------------------------------------------------------------

 SCF Done:  E(ROHF) =  -299.316659912     A.U. after   16 cycles
 E2 =    -0.9224963726D+00 EUMP2 =    -0.30023915628481D+03
 CCSD(T)
 CCSD(T)= -0.30024990167D+03

 The electronic state is 5-A'.
 Alpha  occ. eigenvalues --  -20.74095 -20.74016 -20.73998 -20.73922  -1.74591
 Alpha  occ. eigenvalues --   -1.74493  -1.17139  -1.17038  -0.83872  -0.83871
 Alpha  occ. eigenvalues --   -0.83774  -0.83767  -0.78234  -0.78107  -0.51086
 Alpha  occ. eigenvalues --   -0.51068  -0.50970  -0.50946
 Alpha virt. eigenvalues --    0.40302   0.41649   0.64748   0.67574   0.67869
 Alpha virt. eigenvalues --    0.68357   0.72066   0.74048   0.77239   0.78230
 Alpha virt. eigenvalues --    0.79482   0.79811   0.80095   0.82335   0.86959

 Mulliken charges and spin densities:
               1          2
     1  O   -0.000161   0.999864
     2  O    0.000391   1.000114
     3  O   -0.001141   0.999252
     4  O    0.000910   1.000769
 Sum of Mulliken charges =  -0.00000   4.00000

 Dipole moment (field-independent basis, Debye):
    X=              0.0019    Y=              0.0044    Z=              0.0000  Tot=              0.0048
 Quadrupole moment (field-independent basis, Debye-Ang):
   XX=            -20.2386   YY=            -20.2156   ZZ=            -19.6382
   XY=             -0.0000   XZ=              0.0000   YZ=              0.0000

 63\MP4SDQ=-300.2210903\CCSD=-300.2146153\CCSD(T)=-300.2499017\RMSD=3.2
 Normal termination of Gaussian 16 at Tue Feb 13 18:08:41 2024.
