 Gaussian 16, Revision A.03,
 Gaussian 16:  ES64L-G16RevA.03 25-Dec-2016

 --------------------
 #p ROCCSD(T)/cc-pVTZ
 --------------------

 ---------
 O2_O2_172
 ---------
 Symbolic Z-matrix:
 Charge =  0 Multiplicity = 5

                         Standard orientation:
 ---------------------------------------------------------------------
 Center     Atomic      Atomic             Coordinates (Angstroms)
 Number     Number       Type             X           Y           Z
 ---------------------------------------------------------------------
      1          8           0        0.615183   -2.545183    0.000000
      2          8           0       -0.205061   -1.724939    0.000000
      3          8           0       -0.205061    1.555061    0.000000
      4          8           0       -0.205061    2.715061    0.000000
 ---------------------------------------------------------------------

 SCF Done:  E(ROHF) =  -299.316517936     A.U. after   17 cycles
 E2 =    -0.9228109574D+00 EUMP2 =    -0.30023932889371D+03
 CCSD(T)
 CCSD(T)= -0.30025003485D+03

 The electronic state is 5-A'.
 Alpha  occ. eigenvalues --  -20.74008 -20.73987 -20.73931 -20.73904  -1.74513
 Alpha  occ. eigenvalues --   -1.74481  -1.17152  -1.16927  -0.83806  -0.83803
 Alpha  occ. eigenvalues --   -0.83753  -0.83747  -0.78373  -0.77857  -0.51059
 Alpha  occ. eigenvalues --   -0.51018  -0.50913  -0.50881
 Alpha virt. eigenvalues --    0.37135   0.45063   0.64005   0.66988   0.67379
 Alpha virt. eigenvalues --    0.68749   0.69738   0.74643   0.76992   0.77597
 Alpha virt. eigenvalues --    0.77615   0.81616   0.82527   0.86001   0.87041

 Mulliken charges and spin densities:
               1          2
     1  O   -0.000541   0.998633
     2  O    0.000804   1.001190
     3  O   -0.000704   1.000837
     4  O    0.000441   0.999340
 Sum of Mulliken charges =  -0.00000   4.00000

 Dipole moment (field-independent basis, Debye):
    X=             -0.0064    Y=             -0.0018    Z=              0.0000  Tot=              0.0067
 Quadrupole moment (field-independent basis, Debye-Ang):
   XX=            -19.9404   YY=            -20.5911   ZZ=            -19.6386
   XY=              0.3102   XZ=             -0.0000   YZ=              0.0000

 79\PMP2-0=-300.2393289\MP4SDQ=-300.22121\CCSD=-300.2147094\CCSD(T)=-30
 Normal termination of Gaussian 16 at Tue Feb 13 17:03:14 2024.
