 Gaussian 16, Revision A.03,
 Gaussian 16:  ES64L-G16RevA.03 25-Dec-2016

 --------------------
 #p ROCCSD(T)/cc-pVTZ
 --------------------

 --------
 O2_O2_84
 --------
 Symbolic Z-matrix:
 Charge =  0 Multiplicity = 5

                         Standard orientation:
 ---------------------------------------------------------------------
 Center     Atomic      Atomic             Coordinates (Angstroms)
 Number     Number       Type             X           Y           Z
 ---------------------------------------------------------------------
      1          8           0        0.000000    0.000000    2.220000
      2          8           0        0.000000    0.000000    1.060000
      3          8           0        0.000000    0.000000   -1.060000
      4          8           0        0.000000    0.000000   -2.220000
 ---------------------------------------------------------------------

 SCF Done:  E(ROHF) =  -299.297891603     A.U. after   11 cycles
 E2 =    -0.9268147391D+00 EUMP2 =    -0.30022470634222D+03
 CCSD(T)
 CCSD(T)= -0.30023464417D+03

 The electronic state is 5-SGG.
 Alpha  occ. eigenvalues --  -20.73610 -20.73610 -20.73161 -20.73160  -1.74464
 Alpha  occ. eigenvalues --   -1.73979  -1.19488  -1.14825  -0.83974  -0.83974
 Alpha  occ. eigenvalues --   -0.83031  -0.83031  -0.81512  -0.73905  -0.51863
 Alpha  occ. eigenvalues --   -0.51863  -0.49514  -0.49514
 Alpha virt. eigenvalues --    0.43257   0.48459   0.64239   0.64239   0.70151
 Alpha virt. eigenvalues --    0.70151   0.71583   0.75600   0.75600   0.76478
 Alpha virt. eigenvalues --    0.85023   0.86116   0.89171   0.93230   0.93230

 Mulliken charges and spin densities:
               1          2
     1  O   -0.024338   1.005913
     2  O    0.024338   0.994087
     3  O    0.024338   0.994087
     4  O   -0.024338   1.005913
 Sum of Mulliken charges =  -0.00000   4.00000

 Dipole moment (field-independent basis, Debye):
    X=             -0.0000    Y=             -0.0000    Z=              0.0000  Tot=              0.0000
 Quadrupole moment (field-independent basis, Debye-Ang):
   XX=            -19.6262   YY=            -19.6262   ZZ=            -21.2160
   XY=              0.0000   XZ=              0.0000   YZ=              0.0000

 7063\MP4SDQ=-300.2056708\CCSD=-300.198868\CCSD(T)=-300.2346442\RMSD=2.
 Normal termination of Gaussian 16 at Tue Feb 13 14:40:31 2024.
