 Gaussian 16, Revision A.03,
 Gaussian 16:  ES64L-G16RevA.03 25-Dec-2016

 --------------------
 #p ROCCSD(T)/cc-pVTZ
 --------------------

 --------
 O2_O2_82
 --------
 Symbolic Z-matrix:
 Charge =  0 Multiplicity = 5

                         Standard orientation:
 ---------------------------------------------------------------------
 Center     Atomic      Atomic             Coordinates (Angstroms)
 Number     Number       Type             X           Y           Z
 ---------------------------------------------------------------------
      1          8           0        0.615183   -1.945183    0.000000
      2          8           0       -0.205061   -1.124939    0.000000
      3          8           0       -0.205061    0.955061   -0.000000
      4          8           0       -0.205061    2.115061   -0.000000
 ---------------------------------------------------------------------

 SCF Done:  E(ROHF) =  -299.293758359     A.U. after   22 cycles
 E2 =    -0.9260028340D+00 EUMP2 =    -0.30021976119286D+03
 CCSD(T)
 CCSD(T)= -0.30023092761D+03

 The electronic state is 5-A'.
 Alpha  occ. eigenvalues --  -20.73885 -20.73365 -20.73222 -20.73059  -1.74690
 Alpha  occ. eigenvalues --   -1.73923  -1.19737  -1.14849  -0.84709  -0.84160
 Alpha  occ. eigenvalues --   -0.83635  -0.82982  -0.80347  -0.74263  -0.51985
 Alpha  occ. eigenvalues --   -0.51336  -0.49779  -0.49510
 Alpha virt. eigenvalues --    0.42569   0.47194   0.63912   0.64062   0.70374
 Alpha virt. eigenvalues --    0.70636   0.72354   0.75184   0.76477   0.78563
 Alpha virt. eigenvalues --    0.79278   0.85872   0.91319   0.91365   0.92854

 Mulliken charges and spin densities:
               1          2
     1  O   -0.017029   0.982988
     2  O    0.014561   1.015437
     3  O    0.017752   0.988445
     4  O   -0.015284   1.013129
 Sum of Mulliken charges =   0.00000   4.00000

 Dipole moment (field-independent basis, Debye):
    X=             -0.0640    Y=              0.1195    Z=             -0.0000  Tot=              0.1356
 Quadrupole moment (field-independent basis, Debye-Ang):
   XX=            -19.9940   YY=            -21.0236   ZZ=            -19.6201
   XY=              0.4054   XZ=             -0.0000   YZ=              0.0000

 584\PMP2-0=-300.2197612\MP4SDQ=-300.2015064\CCSD=-300.1950988\CCSD(T)=
 Normal termination of Gaussian 16 at Tue Feb 13 14:37:04 2024.
