 Gaussian 16, Revision A.03,
 Gaussian 16:  ES64L-G16RevA.03 25-Dec-2016

 --------------------
 #p ROCCSD(T)/cc-pVTZ
 --------------------

 ---------
 O2_O2_213
 ---------
 Symbolic Z-matrix:
 Charge =  0 Multiplicity = 5

                         Standard orientation:
 ---------------------------------------------------------------------
 Center     Atomic      Atomic             Coordinates (Angstroms)
 Number     Number       Type             X           Y           Z
 ---------------------------------------------------------------------
      1          8           0        0.000000    0.000000    3.080000
      2          8           0        0.000000    0.000000    1.920000
      3          8           0        0.000000    0.000000   -1.920000
      4          8           0        0.000000    0.000000   -3.080000
 ---------------------------------------------------------------------

 SCF Done:  E(ROHF) =  -299.316612578     A.U. after   12 cycles
 E2 =    -0.9224793823D+00 EUMP2 =    -0.30023909196031D+03
 CCSD(T)
 CCSD(T)= -0.30024983107D+03

 The electronic state is 5-SGG.
 Alpha  occ. eigenvalues --  -20.74006 -20.74006 -20.73927 -20.73927  -1.74505
 Alpha  occ. eigenvalues --   -1.74503  -1.17071  -1.17018  -0.83790  -0.83790
 Alpha  occ. eigenvalues --   -0.83778  -0.83778  -0.78213  -0.78034  -0.51003
 Alpha  occ. eigenvalues --   -0.51003  -0.50953  -0.50953
 Alpha virt. eigenvalues --    0.36535   0.45422   0.67174   0.67758   0.67758
 Alpha virt. eigenvalues --    0.68253   0.68253   0.74668   0.76791   0.78990
 Alpha virt. eigenvalues --    0.78990   0.80672   0.80672   0.84654   0.87064

 Mulliken charges and spin densities:
               1          2
     1  O   -0.000093   0.999199
     2  O    0.000093   1.000801
     3  O    0.000093   1.000801
     4  O   -0.000093   0.999199
 Sum of Mulliken charges =  -0.00000   4.00000

 Dipole moment (field-independent basis, Debye):
    X=              0.0000    Y=              0.0000    Z=              0.0000  Tot=              0.0000
 Quadrupole moment (field-independent basis, Debye-Ang):
   XX=            -19.6385   YY=            -19.6385   ZZ=            -20.8887
   XY=              0.0000   XZ=              0.0000   YZ=              0.0000

 \MP4SDQ=-300.2210345\CCSD=-300.2145475\CCSD(T)=-300.2498311\RMSD=1.103
 Normal termination of Gaussian 16 at Tue Feb 13 18:05:26 2024.
