 Gaussian 16, Revision A.03,
 Gaussian 16:  ES64L-G16RevA.03 25-Dec-2016

 --------------------
 #p ROCCSD(T)/cc-pVTZ
 --------------------

 ---------
 O2_O2_158
 ---------
 Symbolic Z-matrix:
 Charge =  0 Multiplicity = 5

                         Standard orientation:
 ---------------------------------------------------------------------
 Center     Atomic      Atomic             Coordinates (Angstroms)
 Number     Number       Type             X           Y           Z
 ---------------------------------------------------------------------
      1          8           0       -0.870000   -1.830000    0.000000
      2          8           0        0.290000   -1.830000    0.000000
      3          8           0        0.290000    1.250000    0.000000
      4          8           0        0.290000    2.410000    0.000000
 ---------------------------------------------------------------------

 SCF Done:  E(ROHF) =  -299.316383385     A.U. after   16 cycles
 E2 =    -0.9231440783D+00 EUMP2 =    -0.30023952746358D+03
 CCSD(T)
 CCSD(T)= -0.30025022598D+03

 The electronic state is 5-A'.
 Alpha  occ. eigenvalues --  -20.74124 -20.74032 -20.73949 -20.73865  -1.74623
 Alpha  occ. eigenvalues --   -1.74437  -1.17216  -1.16959  -0.83934  -0.83921
 Alpha  occ. eigenvalues --   -0.83752  -0.83702  -0.78369  -0.77907  -0.51260
 Alpha  occ. eigenvalues --   -0.51115  -0.50904  -0.50754
 Alpha virt. eigenvalues --    0.39474   0.41979   0.62082   0.65891   0.66750
 Alpha virt. eigenvalues --    0.69401   0.71954   0.74145   0.76706   0.78384
 Alpha virt. eigenvalues --    0.78961   0.79271   0.81534   0.86804   0.87520

 Mulliken charges and spin densities:
               1          2
     1  O   -0.000646   0.998681
     2  O    0.001003   1.001318
     3  O   -0.002855   0.998217
     4  O    0.002498   1.001785
 Sum of Mulliken charges =  -0.00000   4.00000

 Dipole moment (field-independent basis, Debye):
    X=              0.0093    Y=              0.0158    Z=              0.0000  Tot=              0.0183
 Quadrupole moment (field-independent basis, Debye-Ang):
   XX=            -20.2420   YY=            -20.2372   ZZ=            -19.6382
   XY=             -0.0071   XZ=              0.0000   YZ=              0.0000

 5275\MP4SDQ=-300.2213401\CCSD=-300.2148523\CCSD(T)=-300.250226\RMSD=2.
 Normal termination of Gaussian 16 at Tue Feb 13 16:41:13 2024.
