 Gaussian 16, Revision A.03,
 Gaussian 16:  ES64L-G16RevA.03 25-Dec-2016

 --------------------
 #p ROCCSD(T)/cc-pVTZ
 --------------------

 ---------
 O2_O2_262
 ---------
 Symbolic Z-matrix:
 Charge =  0 Multiplicity = 5

                         Standard orientation:
 ---------------------------------------------------------------------
 Center     Atomic      Atomic             Coordinates (Angstroms)
 Number     Number       Type             X           Y           Z
 ---------------------------------------------------------------------
      1          8           0        0.615183   -3.145183    0.000000
      2          8           0       -0.205061   -2.324939    0.000000
      3          8           0       -0.205061    2.155061    0.000000
      4          8           0       -0.205061    3.315061    0.000000
 ---------------------------------------------------------------------

 SCF Done:  E(ROHF) =  -299.316599328     A.U. after   16 cycles
 E2 =    -0.9223299145D+00 EUMP2 =    -0.30023892924255D+03
 CCSD(T)
 CCSD(T)= -0.30024969716D+03

 The electronic state is 5-A'.
 Alpha  occ. eigenvalues --  -20.74035 -20.74016 -20.73959 -20.73939  -1.74535
 Alpha  occ. eigenvalues --   -1.74515  -1.17079  -1.17057  -0.83814  -0.83814
 Alpha  occ. eigenvalues --   -0.83794  -0.83793  -0.78167  -0.78130  -0.51010
 Alpha  occ. eigenvalues --   -0.51009  -0.50988  -0.50988
 Alpha virt. eigenvalues --    0.40264   0.42464   0.67888   0.67956   0.68002
 Alpha virt. eigenvalues --    0.68047   0.71097   0.72820   0.77229   0.78536
 Alpha virt. eigenvalues --    0.79636   0.79784   0.79934   0.80520   0.87051

 Mulliken charges and spin densities:
               1          2
     1  O   -0.000430   0.999510
     2  O    0.000449   1.000478
     3  O    0.000216   1.000300
     4  O   -0.000235   0.999712
 Sum of Mulliken charges =  -0.00000   4.00000

 Dipole moment (field-independent basis, Debye):
    X=             -0.0023    Y=              0.0003    Z=              0.0000  Tot=              0.0023
 Quadrupole moment (field-independent basis, Debye-Ang):
   XX=            -19.9389   YY=            -20.5618   ZZ=            -19.6383
   XY=              0.3039   XZ=             -0.0000   YZ=              0.0000

 Normal termination of Gaussian 16 at Tue Feb 13 19:37:27 2024.
