 Gaussian 16, Revision A.03,
 Gaussian 16:  ES64L-G16RevA.03 25-Dec-2016

 --------------------
 #p ROCCSD(T)/cc-pVTZ
 --------------------

 ---------
 O2_O2_141
 ---------
 Symbolic Z-matrix:
 Charge =  0 Multiplicity = 5

                         Standard orientation:
 ---------------------------------------------------------------------
 Center     Atomic      Atomic             Coordinates (Angstroms)
 Number     Number       Type             X           Y           Z
 ---------------------------------------------------------------------
      1          8           0        0.000000    0.000000    2.600000
      2          8           0        0.000000    0.000000    1.440000
      3          8           0        0.000000    0.000000   -1.440000
      4          8           0        0.000000    0.000000   -2.600000
 ---------------------------------------------------------------------

 SCF Done:  E(ROHF) =  -299.315908272     A.U. after   12 cycles
 E2 =    -0.9233006304D+00 EUMP2 =    -0.30023920890268D+03
 CCSD(T)
 CCSD(T)= -0.30024984919D+03

 The electronic state is 5-SGG.
 Alpha  occ. eigenvalues --  -20.73932 -20.73932 -20.73854 -20.73854  -1.74472
 Alpha  occ. eigenvalues --   -1.74426  -1.17341  -1.16668  -0.83796  -0.83796
 Alpha  occ. eigenvalues --   -0.83658  -0.83658  -0.78823  -0.77316  -0.51145
 Alpha  occ. eigenvalues --   -0.51145  -0.50693  -0.50693
 Alpha virt. eigenvalues --    0.37771   0.47832   0.65822   0.65915   0.65915
 Alpha virt. eigenvalues --    0.69205   0.69205   0.75548   0.76110   0.76110
 Alpha virt. eigenvalues --    0.79117   0.85602   0.85602   0.86096   0.87008

 Mulliken charges and spin densities:
               1          2
     1  O   -0.003647   0.998708
     2  O    0.003647   1.001292
     3  O    0.003647   1.001292
     4  O   -0.003647   0.998708
 Sum of Mulliken charges =  -0.00000   4.00000

 Dipole moment (field-independent basis, Debye):
    X=             -0.0000    Y=             -0.0000    Z=              0.0000  Tot=              0.0000
 Quadrupole moment (field-independent basis, Debye-Ang):
   XX=            -19.6387   YY=            -19.6387   ZZ=            -20.9556
   XY=              0.0000   XZ=              0.0000   YZ=              0.0000

 92089\MP4SDQ=-300.2210133\CCSD=-300.2144692\CCSD(T)=-300.2498492\RMSD=
 Normal termination of Gaussian 16 at Tue Feb 13 16:14:39 2024.
