 Gaussian 16, Revision A.03,
 Gaussian 16:  ES64L-G16RevA.03 25-Dec-2016

 --------------------
 #p ROCCSD(T)/cc-pVTZ
 --------------------

 ---------
 O2_O2_228
 ---------
 Symbolic Z-matrix:
 Charge =  0 Multiplicity = 5

                         Standard orientation:
 ---------------------------------------------------------------------
 Center     Atomic      Atomic             Coordinates (Angstroms)
 Number     Number       Type             X           Y           Z
 ---------------------------------------------------------------------
      1          8           0        0.000000    0.000000    3.180000
      2          8           0        0.000000    0.000000    2.020000
      3          8           0        0.000000    0.000000   -2.020000
      4          8           0        0.000000    0.000000   -3.180000
 ---------------------------------------------------------------------

 SCF Done:  E(ROHF) =  -299.316609269     A.U. after   11 cycles
 E2 =    -0.9224153214D+00 EUMP2 =    -0.30023902459046D+03
 CCSD(T)
 CCSD(T)= -0.30024977412D+03

 The electronic state is 5-SGG.
 Alpha  occ. eigenvalues --  -20.74010 -20.74010 -20.73931 -20.73931  -1.74509
 Alpha  occ. eigenvalues --   -1.74508  -1.17065  -1.17035  -0.83791  -0.83791
 Alpha  occ. eigenvalues --   -0.83785  -0.83785  -0.78186  -0.78072  -0.50998
 Alpha  occ. eigenvalues --   -0.50998  -0.50967  -0.50967
 Alpha virt. eigenvalues --    0.37575   0.44620   0.67862   0.67862   0.68160
 Alpha virt. eigenvalues --    0.68160   0.68410   0.74215   0.76770   0.79295
 Alpha virt. eigenvalues --    0.79295   0.80327   0.80327   0.82406   0.87067

 Mulliken charges and spin densities:
               1          2
     1  O   -0.000327   0.999286
     2  O    0.000327   1.000714
     3  O    0.000327   1.000714
     4  O   -0.000327   0.999286
 Sum of Mulliken charges =   0.00000   4.00000

 Dipole moment (field-independent basis, Debye):
    X=             -0.0000    Y=             -0.0000    Z=              0.0000  Tot=              0.0000
 Quadrupole moment (field-independent basis, Debye-Ang):
   XX=            -19.6384   YY=            -19.6384   ZZ=            -20.8841
   XY=              0.0000   XZ=              0.0000   YZ=              0.0000

 0246\MP4SDQ=-300.2209799\CCSD=-300.2144975\CCSD(T)=-300.2497741\RMSD=8
 Normal termination of Gaussian 16 at Tue Feb 13 18:31:22 2024.
