 Gaussian 16, Revision A.03,
 Gaussian 16:  ES64L-G16RevA.03 25-Dec-2016

 --------------------
 #p ROCCSD(T)/cc-pVTZ
 --------------------

 ---------
 O2_O2_198
 ---------
 Symbolic Z-matrix:
 Charge =  0 Multiplicity = 5

                         Standard orientation:
 ---------------------------------------------------------------------
 Center     Atomic      Atomic             Coordinates (Angstroms)
 Number     Number       Type             X           Y           Z
 ---------------------------------------------------------------------
      1          8           0        0.000000    0.000000    2.980000
      2          8           0        0.000000    0.000000    1.820000
      3          8           0        0.000000    0.000000   -1.820000
      4          8           0        0.000000    0.000000   -2.980000
 ---------------------------------------------------------------------

 SCF Done:  E(ROHF) =  -299.316604457     A.U. after   12 cycles
 E2 =    -0.9225671709D+00 EUMP2 =    -0.30023917162772D+03
 CCSD(T)
 CCSD(T)= -0.30024989857D+03

 The electronic state is 5-SGG.
 Alpha  occ. eigenvalues --  -20.74000 -20.74000 -20.73921 -20.73921  -1.74501
 Alpha  occ. eigenvalues --   -1.74496  -1.17084  -1.16993  -0.83788  -0.83788
 Alpha  occ. eigenvalues --   -0.83768  -0.83768  -0.78257  -0.77976  -0.51013
 Alpha  occ. eigenvalues --   -0.51013  -0.50931  -0.50931
 Alpha virt. eigenvalues --    0.35742   0.46170   0.66078   0.67592   0.67592
 Alpha virt. eigenvalues --    0.68383   0.68383   0.75028   0.76953   0.78558
 Alpha virt. eigenvalues --    0.78558   0.81190   0.81190   0.86143   0.87058

 Mulliken charges and spin densities:
               1          2
     1  O    0.000205   0.999101
     2  O   -0.000205   1.000899
     3  O   -0.000205   1.000899
     4  O    0.000205   0.999101
 Sum of Mulliken charges =  -0.00000   4.00000

 Dipole moment (field-independent basis, Debye):
    X=              0.0000    Y=             -0.0000    Z=              0.0000  Tot=              0.0000
 Quadrupole moment (field-independent basis, Debye-Ang):
   XX=            -19.6385   YY=            -19.6385   ZZ=            -20.8955
   XY=              0.0000   XZ=              0.0000   YZ=              0.0000

 1716\MP4SDQ=-300.2210983\CCSD=-300.2146051\CCSD(T)=-300.2498986\RMSD=1
 Normal termination of Gaussian 16 at Tue Feb 13 17:41:49 2024.
