 Gaussian 16, Revision A.03,
 Gaussian 16:  ES64L-G16RevA.03 25-Dec-2016

 --------------------
 #p ROCCSD(T)/cc-pVTZ
 --------------------

 --------
 O2_O2_94
 --------
 Symbolic Z-matrix:
 Charge =  0 Multiplicity = 5

                         Standard orientation:
 ---------------------------------------------------------------------
 Center     Atomic      Atomic             Coordinates (Angstroms)
 Number     Number       Type             X           Y           Z
 ---------------------------------------------------------------------
      1          8           0        0.615183   -2.025183    0.000000
      2          8           0       -0.205061   -1.204939    0.000000
      3          8           0       -0.205061    1.035061   -0.000000
      4          8           0       -0.205061    2.195061   -0.000000
 ---------------------------------------------------------------------

 SCF Done:  E(ROHF) =  -299.304599924     A.U. after   22 cycles
 E2 =    -0.9253591859D+00 EUMP2 =    -0.30022995911020D+03
 CCSD(T)
 CCSD(T)= -0.30024059093D+03

 The electronic state is 5-A'.
 Alpha  occ. eigenvalues --  -20.73880 -20.73585 -20.73505 -20.73381  -1.74583
 Alpha  occ. eigenvalues --   -1.74108  -1.18755  -1.15513  -0.84257  -0.84005
 Alpha  occ. eigenvalues --   -0.83585  -0.83224  -0.79983  -0.75423  -0.51670
 Alpha  occ. eigenvalues --   -0.51233  -0.50184  -0.49936
 Alpha virt. eigenvalues --    0.41876   0.46839   0.63984   0.64027   0.70013
 Alpha virt. eigenvalues --    0.70174   0.71914   0.75125   0.76070   0.78307
 Alpha virt. eigenvalues --    0.79925   0.85990   0.87964   0.90287   0.90875

 Mulliken charges and spin densities:
               1          2
     1  O   -0.010876   0.988910
     2  O    0.010078   1.010790
     3  O    0.014273   0.993742
     4  O   -0.013475   1.006558
 Sum of Mulliken charges =  -0.00000   4.00000

 Dipole moment (field-independent basis, Debye):
    X=             -0.0436    Y=              0.0714    Z=              0.0000  Tot=              0.0836
 Quadrupole moment (field-independent basis, Debye-Ang):
   XX=            -19.9752   YY=            -20.8974   ZZ=            -19.6317
   XY=              0.3725   XZ=              0.0000   YZ=              0.0000

 999\PMP2-0=-300.2299591\MP4SDQ=-300.2114619\CCSD=-300.2049178\CCSD(T)=
 Normal termination of Gaussian 16 at Tue Feb 13 14:59:03 2024.
