 Gaussian 16, Revision A.03,
 Gaussian 16:  ES64L-G16RevA.03 25-Dec-2016

 --------------------
 #p ROCCSD(T)/cc-pVTZ
 --------------------

 --------
 O2_O2_77
 --------
 Symbolic Z-matrix:
 Charge =  0 Multiplicity = 5

                         Standard orientation:
 ---------------------------------------------------------------------
 Center     Atomic      Atomic             Coordinates (Angstroms)
 Number     Number       Type             X           Y           Z
 ---------------------------------------------------------------------
      1          8           0       -0.870000   -1.290000    0.000000
      2          8           0        0.290000   -1.290000    0.000000
      3          8           0        0.290000    0.710000    0.000000
      4          8           0        0.290000    1.870000    0.000000
 ---------------------------------------------------------------------

 SCF Done:  E(ROHF) =  -299.279912363     A.U. after   24 cycles
 E2 =    -0.9220912494D+00 EUMP2 =    -0.30020200361278D+03
 CCSD(T)
 CCSD(T)= -0.30021818411D+03

 The electronic state is 5-A'.
 Alpha  occ. eigenvalues --  -20.74124 -20.73515 -20.73351 -20.72150  -1.75360
 Alpha  occ. eigenvalues --   -1.73708  -1.19428  -1.15673  -0.87000  -0.84745
 Alpha  occ. eigenvalues --   -0.83980  -0.82671  -0.78069  -0.74272  -0.52636
 Alpha  occ. eigenvalues --   -0.51765  -0.49886  -0.48851
 Alpha virt. eigenvalues --    0.41303   0.45923   0.63516   0.66758   0.68369
 Alpha virt. eigenvalues --    0.71188   0.71221   0.73883   0.76097   0.77983
 Alpha virt. eigenvalues --    0.79169   0.85575   0.86766   0.89756   0.97582

 Mulliken charges and spin densities:
               1          2
     1  O   -0.028763   0.954325
     2  O    0.026124   1.042122
     3  O    0.014769   0.984693
     4  O   -0.012130   1.018861
 Sum of Mulliken charges =  -0.00000   4.00000

 Dipole moment (field-independent basis, Debye):
    X=              0.1838    Y=              0.1176    Z=              0.0000  Tot=              0.2182
 Quadrupole moment (field-independent basis, Debye-Ang):
   XX=            -20.3503   YY=            -20.6034   ZZ=            -19.5969
   XY=             -0.2401   XZ=              0.0000   YZ=              0.0000

 6\MP4SDQ=-300.1870479\CCSD=-300.1822056\CCSD(T)=-300.2181841\RMSD=1.01
 Normal termination of Gaussian 16 at Tue Feb 13 14:28:31 2024.
