 Gaussian 16, Revision A.03,
 Gaussian 16:  ES64L-G16RevA.03 25-Dec-2016

 --------------------
 #p ROCCSD(T)/cc-pVTZ
 --------------------

 --------
 O2_O2_37
 --------
 Symbolic Z-matrix:
 Charge =  0 Multiplicity = 5

                         Standard orientation:
 ---------------------------------------------------------------------
 Center     Atomic      Atomic             Coordinates (Angstroms)
 Number     Number       Type             X           Y           Z
 ---------------------------------------------------------------------
      1          8           0        0.615183   -1.645183    0.000000
      2          8           0       -0.205061   -0.824939    0.000000
      3          8           0       -0.205061    0.655061   -0.000000
      4          8           0       -0.205061    1.815061   -0.000000
 ---------------------------------------------------------------------

 SCF Done:  E(ROHF) =  -299.105490170     A.U. after   22 cycles
 E2 =    -0.9203660354D+00 EUMP2 =    -0.30002585620511D+03
 CCSD(T)
 CCSD(T)= -0.30005022457D+03

 The electronic state is 5-A'.
 Alpha  occ. eigenvalues --  -20.75361 -20.74055 -20.70271 -20.68619  -1.78409
 Alpha  occ. eigenvalues --   -1.72456  -1.32824  -1.09614  -0.89783  -0.87746
 Alpha  occ. eigenvalues --   -0.86793  -0.81007  -0.78761  -0.63034  -0.56012
 Alpha  occ. eigenvalues --   -0.53450  -0.45897  -0.43597
 Alpha virt. eigenvalues --    0.44983   0.49067   0.64380   0.64879   0.67948
 Alpha virt. eigenvalues --    0.71094   0.71596   0.74259   0.78106   0.79819
 Alpha virt. eigenvalues --    0.80435   0.84912   0.93180   0.96825   1.01030

 Mulliken charges and spin densities:
               1          2
     1  O   -0.091526   0.921328
     2  O    0.035519   0.985177
     3  O    0.050298   0.982511
     4  O    0.005709   1.110983
 Sum of Mulliken charges =   0.00000   4.00000

 Dipole moment (field-independent basis, Debye):
    X=             -0.2381    Y=              1.0166    Z=             -0.0000  Tot=              1.0441
 Quadrupole moment (field-independent basis, Debye-Ang):
   XX=            -20.2943   YY=            -21.9421   ZZ=            -19.3769
   XY=              0.6196   XZ=              0.0000   YZ=              0.0000

 902\PMP2-0=-300.0258562\MP4SDQ=-300.0160139\CCSD=-300.0129323\CCSD(T)=
 Normal termination of Gaussian 16 at Tue Feb 13 13:11:27 2024.
