 Gaussian 16, Revision A.03,
 Gaussian 16:  ES64L-G16RevA.03 25-Dec-2016

 --------------------
 #p ROCCSD(T)/cc-pVTZ
 --------------------

 -------
 O2_O2_6
 -------
 Symbolic Z-matrix:
 Charge =  0 Multiplicity = 5

                         Standard orientation:
 ---------------------------------------------------------------------
 Center     Atomic      Atomic             Coordinates (Angstroms)
 Number     Number       Type             X           Y           Z
 ---------------------------------------------------------------------
      1          8           0        0.000000    0.000000    1.700000
      2          8           0        0.000000    0.000000    0.540000
      3          8           0        0.000000    0.000000   -0.540000
      4          8           0        0.000000    0.000000   -1.700000
 ---------------------------------------------------------------------

 SCF Done:  E(ROHF) =  -298.655940619     A.U. after   13 cycles
 E2 =    -0.9232134251D+00 EUMP2 =    -0.29957915404384D+03
 CCSD(T)
 CCSD(T)= -0.29960695258D+03

 Unable to determine electronic state:  an orbital has unidentified symmetry.
 Alpha  occ. eigenvalues --  -20.77496 -20.77417 -20.67610 -20.67609  -1.95810
 Alpha  occ. eigenvalues --   -1.72525  -1.54938  -1.02626  -1.00403  -1.00227
 Alpha  occ. eigenvalues --   -0.90529  -0.79673  -0.77209  -0.61145  -0.56170
 Alpha  occ. eigenvalues --   -0.41050  -0.39126  -0.30266
 Alpha virt. eigenvalues --    0.37294   0.49555   0.56534   0.62410   0.63149
 Alpha virt. eigenvalues --    0.66583   0.71314   0.73776   0.81927   0.82779
 Alpha virt. eigenvalues --    0.83663   0.98712   0.99129   1.10974   1.16955

 Mulliken charges and spin densities:
               1          2
     1  O   -0.100946   0.996214
     2  O    0.100946   1.003786
     3  O    0.100946   1.003786
     4  O   -0.100946   0.996214
 Sum of Mulliken charges =  -0.00000   4.00000

 Dipole moment (field-independent basis, Debye):
    X=             -0.0000    Y=             -0.0000    Z=             -0.0000  Tot=              0.0000
 Quadrupole moment (field-independent basis, Debye-Ang):
   XX=            -19.7266   YY=            -18.6475   ZZ=            -26.1570
   XY=             -0.0000   XZ=              0.0000   YZ=             -0.0000

 9.5689249\CCSD=-299.5669462\CCSD(T)=-299.6069526\RMSD=2.429e-09\PG=D*H
 Normal termination of Gaussian 16 at Tue Feb 13 12:07:54 2024.
