 Gaussian 16, Revision A.03,
 Gaussian 16:  ES64L-G16RevA.03 25-Dec-2016

 --------------------
 #p ROCCSD(T)/cc-pVTZ
 --------------------

 ---------
 O2_O2_285
 ---------
 Symbolic Z-matrix:
 Charge =  0 Multiplicity = 5

                         Standard orientation:
 ---------------------------------------------------------------------
 Center     Atomic      Atomic             Coordinates (Angstroms)
 Number     Number       Type             X           Y           Z
 ---------------------------------------------------------------------
      1          8           0        0.000000    0.000000    3.560000
      2          8           0        0.000000    0.000000    2.400000
      3          8           0        0.000000    0.000000   -2.400000
      4          8           0        0.000000    0.000000   -3.560000
 ---------------------------------------------------------------------

 SCF Done:  E(ROHF) =  -299.316588879     A.U. after   11 cycles
 E2 =    -0.9223047415D+00 EUMP2 =    -0.30023889362004D+03
 CCSD(T)
 CCSD(T)= -0.30024966532D+03

 The electronic state is 5-SGG.
 Alpha  occ. eigenvalues --  -20.74021 -20.74021 -20.73944 -20.73944  -1.74521
 Alpha  occ. eigenvalues --   -1.74520  -1.17065  -1.17062  -0.83801  -0.83801
 Alpha  occ. eigenvalues --   -0.83800  -0.83800  -0.78153  -0.78135  -0.50997
 Alpha  occ. eigenvalues --   -0.50997  -0.50993  -0.50993
 Alpha virt. eigenvalues --    0.40578   0.42241   0.67990   0.67990   0.68021
 Alpha virt. eigenvalues --    0.68021   0.71474   0.72570   0.77510   0.78631
 Alpha virt. eigenvalues --    0.79732   0.79732   0.79846   0.79846   0.87064

 Mulliken charges and spin densities:
               1          2
     1  O   -0.000405   0.999546
     2  O    0.000405   1.000454
     3  O    0.000405   1.000454
     4  O   -0.000405   0.999546
 Sum of Mulliken charges =  -0.00000   4.00000

 Dipole moment (field-independent basis, Debye):
    X=             -0.0000    Y=              0.0000    Z=              0.0000  Tot=              0.0000
 Quadrupole moment (field-independent basis, Debye-Ang):
   XX=            -19.6382   YY=            -19.6382   ZZ=            -20.8730
   XY=              0.0000   XZ=              0.0000   YZ=              0.0000

 8936\MP4SDQ=-300.2208739\CCSD=-300.2144002\CCSD(T)=-300.2496653\RMSD=5
 Normal termination of Gaussian 16 at Tue Feb 13 20:22:34 2024.
