 Gaussian 16, Revision A.03,
 Gaussian 16:  ES64L-G16RevA.03 25-Dec-2016

 --------------------
 #p ROCCSD(T)/cc-pVTZ
 --------------------

 ---------
 O2_O2_126
 ---------
 Symbolic Z-matrix:
 Charge =  0 Multiplicity = 5

                         Standard orientation:
 ---------------------------------------------------------------------
 Center     Atomic      Atomic             Coordinates (Angstroms)
 Number     Number       Type             X           Y           Z
 ---------------------------------------------------------------------
      1          8           0        0.000000    0.000000    2.500000
      2          8           0        0.000000    0.000000    1.340000
      3          8           0        0.000000    0.000000   -1.340000
      4          8           0        0.000000    0.000000   -2.500000
 ---------------------------------------------------------------------

 SCF Done:  E(ROHF) =  -299.314900830     A.U. after   12 cycles
 E2 =    -0.9237167859D+00 EUMP2 =    -0.30023861761631D+03
 CCSD(T)
 CCSD(T)= -0.30024919295D+03

 The electronic state is 5-SGG.
 Alpha  occ. eigenvalues --  -20.73881 -20.73881 -20.73804 -20.73804  -1.74462
 Alpha  occ. eigenvalues --   -1.74377  -1.17562  -1.16437  -0.83812  -0.83812
 Alpha  occ. eigenvalues --   -0.83582  -0.83582  -0.79204  -0.76882  -0.51238
 Alpha  occ. eigenvalues --   -0.51238  -0.50539  -0.50539
 Alpha virt. eigenvalues --    0.39340   0.48032   0.65209   0.65209   0.67124
 Alpha virt. eigenvalues --    0.69461   0.69461   0.75604   0.75604   0.75617
 Alpha virt. eigenvalues --    0.80383   0.85870   0.86977   0.87477   0.87477

 Mulliken charges and spin densities:
               1          2
     1  O   -0.007471   0.998889
     2  O    0.007471   1.001111
     3  O    0.007471   1.001111
     4  O   -0.007471   0.998889
 Sum of Mulliken charges =  -0.00000   4.00000

 Dipole moment (field-independent basis, Debye):
    X=             -0.0000    Y=             -0.0000    Z=              0.0000  Tot=              0.0000
 Quadrupole moment (field-independent basis, Debye-Ang):
   XX=            -19.6386   YY=            -19.6386   ZZ=            -20.9912
   XY=              0.0000   XZ=              0.0000   YZ=              0.0000

 86176\MP4SDQ=-300.2203377\CCSD=-300.2137636\CCSD(T)=-300.2491929\RMSD=
 Normal termination of Gaussian 16 at Tue Feb 13 15:50:26 2024.
