 Gaussian 16, Revision A.03,
 Gaussian 16:  ES64L-G16RevA.03 25-Dec-2016

 --------------------
 #p ROCCSD(T)/cc-pVTZ
 --------------------

 ---------
 O2_O2_131
 ---------
 Symbolic Z-matrix:
 Charge =  0 Multiplicity = 5

                         Standard orientation:
 ---------------------------------------------------------------------
 Center     Atomic      Atomic             Coordinates (Angstroms)
 Number     Number       Type             X           Y           Z
 ---------------------------------------------------------------------
      1          8           0       -0.870000   -1.650000    0.000000
      2          8           0        0.290000   -1.650000    0.000000
      3          8           0        0.290000    1.070000    0.000000
      4          8           0        0.290000    2.230000    0.000000
 ---------------------------------------------------------------------

 SCF Done:  E(ROHF) =  -299.314793720     A.U. after   16 cycles
 E2 =    -0.9238571980D+00 EUMP2 =    -0.30023865091838D+03
 CCSD(T)
 CCSD(T)= -0.30024932384D+03

 The electronic state is 5-A'.
 Alpha  occ. eigenvalues --  -20.74134 -20.73992 -20.73876 -20.73748  -1.74663
 Alpha  occ. eigenvalues --   -1.74353  -1.17377  -1.16818  -0.84115  -0.83993
 Alpha  occ. eigenvalues --   -0.83770  -0.83578  -0.78465  -0.77577  -0.51484
 Alpha  occ. eigenvalues --   -0.51176  -0.50792  -0.50495
 Alpha virt. eigenvalues --    0.40464   0.42785   0.63358   0.64481   0.66398
 Alpha virt. eigenvalues --    0.70024   0.71829   0.73813   0.76006   0.77733
 Alpha virt. eigenvalues --    0.78858   0.79446   0.82998   0.86721   0.91445

 Mulliken charges and spin densities:
               1          2
     1  O   -0.001829   0.995782
     2  O    0.002219   1.004234
     3  O   -0.001410   0.996650
     4  O    0.001020   1.003334
 Sum of Mulliken charges =  -0.00000   4.00000

 Dipole moment (field-independent basis, Debye):
    X=              0.0234    Y=              0.0331    Z=              0.0000  Tot=              0.0406
 Quadrupole moment (field-independent basis, Debye-Ang):
   XX=            -20.2496   YY=            -20.2933   ZZ=            -19.6378
   XY=             -0.0255   XZ=              0.0000   YZ=              0.0000

 6509\MP4SDQ=-300.2203349\CCSD=-300.2138476\CCSD(T)=-300.2493238\RMSD=5
 Normal termination of Gaussian 16 at Tue Feb 13 15:58:31 2024.
