 Gaussian 16, Revision A.03,
 Gaussian 16:  ES64L-G16RevA.03 25-Dec-2016

 --------------------
 #p ROCCSD(T)/cc-pVTZ
 --------------------

 ---------
 O2_O2_187
 ---------
 Symbolic Z-matrix:
 Charge =  0 Multiplicity = 5

                         Standard orientation:
 ---------------------------------------------------------------------
 Center     Atomic      Atomic             Coordinates (Angstroms)
 Number     Number       Type             X           Y           Z
 ---------------------------------------------------------------------
      1          8           0        0.615183   -2.645183    0.000000
      2          8           0       -0.205061   -1.824939   -0.000000
      3          8           0       -0.205061    1.655062   -0.000000
      4          8           0       -0.205061    2.815060   -0.000000
 ---------------------------------------------------------------------

 SCF Done:  E(ROHF) =  -299.316600017     A.U. after   17 cycles
 E2 =    -0.9226569522D+00 EUMP2 =    -0.30023925696942D+03
 CCSD(T)
 CCSD(T)= -0.30024997904D+03

 The electronic state is 5-A'.
 Alpha  occ. eigenvalues --  -20.74017 -20.74000 -20.73939 -20.73919  -1.74518
 Alpha  occ. eigenvalues --   -1.74494  -1.17114  -1.16981  -0.83805  -0.83803
 Alpha  occ. eigenvalues --   -0.83768  -0.83767  -0.78290  -0.77960  -0.51037
 Alpha  occ. eigenvalues --   -0.51011  -0.50941  -0.50923
 Alpha virt. eigenvalues --    0.37125   0.44749   0.64532   0.67356   0.67684
 Alpha virt. eigenvalues --    0.68531   0.69568   0.74493   0.76755   0.77881
 Alpha virt. eigenvalues --    0.78206   0.80920   0.81639   0.86086   0.87039

 Mulliken charges and spin densities:
               1          2
     1  O   -0.000326   0.998981
     2  O    0.000580   1.000850
     3  O   -0.000614   1.000777
     4  O    0.000360   0.999392
 Sum of Mulliken charges =  -0.00000   4.00000

 Dipole moment (field-independent basis, Debye):
    X=             -0.0049    Y=             -0.0028    Z=              0.0000  Tot=              0.0057
 Quadrupole moment (field-independent basis, Debye-Ang):
   XX=            -19.9396   YY=            -20.5771   ZZ=            -19.6385
   XY=              0.3077   XZ=             -0.0000   YZ=             -0.0000

 P2-0=-300.239257\MP4SDQ=-300.2211655\CCSD=-300.214673\CCSD(T)=-300.249
 Normal termination of Gaussian 16 at Tue Feb 13 17:25:34 2024.
