 Gaussian 16, Revision A.03,
 Gaussian 16:  ES64L-G16RevA.03 25-Dec-2016

 --------------------
 #p ROCCSD(T)/cc-pVTZ
 --------------------

 ---------
 O2_O2_263
 ---------
 Symbolic Z-matrix:
 Charge =  0 Multiplicity = 5

                         Standard orientation:
 ---------------------------------------------------------------------
 Center     Atomic      Atomic             Coordinates (Angstroms)
 Number     Number       Type             X           Y           Z
 ---------------------------------------------------------------------
      1          8           0       -0.870000   -2.530000    0.000000
      2          8           0        0.290000   -2.530000    0.000000
      3          8           0        0.290000    1.950000    0.000000
      4          8           0        0.290000    3.110000    0.000000
 ---------------------------------------------------------------------

 SCF Done:  E(ROHF) =  -299.316609905     A.U. after   16 cycles
 E2 =    -0.9223330954D+00 EUMP2 =    -0.30023894300049D+03
 CCSD(T)
 CCSD(T)= -0.30024971313D+03

 The electronic state is 5-A'.
 Alpha  occ. eigenvalues --  -20.74080 -20.74009 -20.74003 -20.73932  -1.74578
 Alpha  occ. eigenvalues --   -1.74506  -1.17124  -1.17052  -0.83858  -0.83857
 Alpha  occ. eigenvalues --   -0.83787  -0.83784  -0.78207  -0.78133  -0.51055
 Alpha  occ. eigenvalues --   -0.51054  -0.50983  -0.50979
 Alpha virt. eigenvalues --    0.41184   0.41520   0.67540   0.67908   0.67969
 Alpha virt. eigenvalues --    0.68061   0.72058   0.72339   0.77851   0.78103
 Alpha virt. eigenvalues --    0.79523   0.79698   0.79831   0.80237   0.87006

 Mulliken charges and spin densities:
               1          2
     1  O   -0.000139   0.999855
     2  O    0.000170   1.000142
     3  O   -0.000464   0.999529
     4  O    0.000433   1.000474
 Sum of Mulliken charges =  -0.00000   4.00000

 Dipole moment (field-independent basis, Debye):
    X=              0.0013    Y=              0.0042    Z=              0.0000  Tot=              0.0044
 Quadrupole moment (field-independent basis, Debye-Ang):
   XX=            -20.2387   YY=            -20.2273   ZZ=            -19.6381
   XY=             -0.0008   XZ=              0.0000   YZ=              0.0000

 43\MP4SDQ=-300.2209152\CCSD=-300.2144454\CCSD(T)=-300.2497131\RMSD=2.1
 Normal termination of Gaussian 16 at Tue Feb 13 19:39:36 2024.
