 Gaussian 16, Revision A.03,
 Gaussian 16:  ES64L-G16RevA.03 25-Dec-2016

 --------------------
 #p ROCCSD(T)/cc-pVTZ
 --------------------

 ---------
 O2_O2_271
 ---------
 Symbolic Z-matrix:
 Charge =  0 Multiplicity = 5

                         Standard orientation:
 ---------------------------------------------------------------------
 Center     Atomic      Atomic             Coordinates (Angstroms)
 Number     Number       Type             X           Y           Z
 ---------------------------------------------------------------------
      1          8           0        0.615183   -3.205183   -0.000000
      2          8           0       -0.205061   -2.384939   -0.000000
      3          8           0       -0.205061    2.215061    0.000000
      4          8           0       -0.205061    3.375061    0.000000
 ---------------------------------------------------------------------

 SCF Done:  E(ROHF) =  -299.316595516     A.U. after   16 cycles
 E2 =    -0.9223172397D+00 EUMP2 =    -0.30023891275578D+03
 CCSD(T)
 CCSD(T)= -0.30024968319D+03

 The electronic state is 5-A'.
 Alpha  occ. eigenvalues --  -20.74036 -20.74017 -20.73960 -20.73940  -1.74536
 Alpha  occ. eigenvalues --   -1.74516  -1.17080  -1.17059  -0.83815  -0.83815
 Alpha  occ. eigenvalues --   -0.83796  -0.83795  -0.78165  -0.78135  -0.51011
 Alpha  occ. eigenvalues --   -0.51010  -0.50990  -0.50990
 Alpha virt. eigenvalues --    0.40529   0.42246   0.67939   0.67968   0.68001
 Alpha virt. eigenvalues --    0.68032   0.71348   0.72642   0.77388   0.78469
 Alpha virt. eigenvalues --    0.79679   0.79774   0.79887   0.80219   0.87050

 Mulliken charges and spin densities:
               1          2
     1  O   -0.000415   0.999537
     2  O    0.000426   1.000456
     3  O    0.000212   1.000270
     4  O   -0.000224   0.999737
 Sum of Mulliken charges =   0.00000   4.00000

 Dipole moment (field-independent basis, Debye):
    X=             -0.0021    Y=              0.0005    Z=              0.0000  Tot=              0.0022
 Quadrupole moment (field-independent basis, Debye-Ang):
   XX=            -19.9388   YY=            -20.5610   ZZ=            -19.6382
   XY=              0.3038   XZ=              0.0000   YZ=             -0.0000

 5955\PMP2-0=-300.2389128\MP4SDQ=-300.22089\CCSD=-300.2144169\CCSD(T)=-
 Normal termination of Gaussian 16 at Tue Feb 13 19:54:47 2024.
