 Gaussian 16, Revision A.03,
 Gaussian 16:  ES64L-G16RevA.03 25-Dec-2016

 --------------------
 #p ROCCSD(T)/cc-pVTZ
 --------------------

 ---------
 O2_O2_284
 ---------
 Symbolic Z-matrix:
 Charge =  0 Multiplicity = 5

                         Standard orientation:
 ---------------------------------------------------------------------
 Center     Atomic      Atomic             Coordinates (Angstroms)
 Number     Number       Type             X           Y           Z
 ---------------------------------------------------------------------
      1          8           0       -0.870000   -2.670000    0.000000
      2          8           0        0.290000   -2.670000    0.000000
      3          8           0        0.290000    2.090000    0.000000
      4          8           0        0.290000    3.250000    0.000000
 ---------------------------------------------------------------------

 SCF Done:  E(ROHF) =  -299.316600056     A.U. after   16 cycles
 E2 =    -0.9223052264D+00 EUMP2 =    -0.30023890528234D+03
 CCSD(T)
 CCSD(T)= -0.30024968042D+03

 The electronic state is 5-A'.
 Alpha  occ. eigenvalues --  -20.74075 -20.74013 -20.73999 -20.73937  -1.74573
 Alpha  occ. eigenvalues --   -1.74512  -1.17119  -1.17057  -0.83853  -0.83853
 Alpha  occ. eigenvalues --   -0.83792  -0.83790  -0.78201  -0.78139  -0.51049
 Alpha  occ. eigenvalues --   -0.51049  -0.50988  -0.50986
 Alpha virt. eigenvalues --    0.41299   0.41474   0.67876   0.67943   0.67978
 Alpha virt. eigenvalues --    0.68025   0.72045   0.72101   0.77913   0.78047
 Alpha virt. eigenvalues --    0.79631   0.79726   0.79802   0.79961   0.87013

 Mulliken charges and spin densities:
               1          2
     1  O   -0.000129   0.999862
     2  O    0.000138   1.000137
     3  O   -0.000360   0.999611
     4  O    0.000351   1.000390
 Sum of Mulliken charges =  -0.00000   4.00000

 Dipole moment (field-independent basis, Debye):
    X=              0.0011    Y=              0.0037    Z=              0.0000  Tot=              0.0039
 Quadrupole moment (field-independent basis, Debye-Ang):
   XX=            -20.2386   YY=            -20.2299   ZZ=            -19.6381
   XY=             -0.0010   XZ=              0.0000   YZ=              0.0000

 9053\MP4SDQ=-300.2208845\CCSD=-300.2144154\CCSD(T)=-300.2496804\RMSD=2
 Normal termination of Gaussian 16 at Tue Feb 13 20:21:12 2024.
