 Gaussian 16, Revision A.03,
 Gaussian 16:  ES64L-G16RevA.03 25-Dec-2016

 --------------------
 #p ROCCSD(T)/cc-pVTZ
 --------------------

 --------
 O2_O2_83
 --------
 Symbolic Z-matrix:
 Charge =  0 Multiplicity = 5

                         Standard orientation:
 ---------------------------------------------------------------------
 Center     Atomic      Atomic             Coordinates (Angstroms)
 Number     Number       Type             X           Y           Z
 ---------------------------------------------------------------------
      1          8           0       -0.870000   -1.330000    0.000000
      2          8           0        0.290000   -1.330000    0.000000
      3          8           0        0.290000    0.750000    0.000000
      4          8           0        0.290000    1.910000    0.000000
 ---------------------------------------------------------------------

 SCF Done:  E(ROHF) =  -299.289486728     A.U. after   21 cycles
 E2 =    -0.9235049209D+00 EUMP2 =    -0.30021299164878D+03
 CCSD(T)
 CCSD(T)= -0.30022716045D+03

 The electronic state is 5-A'.
 Alpha  occ. eigenvalues --  -20.74129 -20.73580 -20.73469 -20.72554  -1.75156
 Alpha  occ. eigenvalues --   -1.73836  -1.18910  -1.15913  -0.86356  -0.84557
 Alpha  occ. eigenvalues --   -0.83909  -0.82848  -0.78195  -0.75033  -0.52440
 Alpha  occ. eigenvalues --   -0.51621  -0.50075  -0.49182
 Alpha virt. eigenvalues --    0.41253   0.45662   0.63362   0.66404   0.69197
 Alpha virt. eigenvalues --    0.71042   0.71349   0.73469   0.75377   0.77869
 Alpha virt. eigenvalues --    0.79092   0.85423   0.86644   0.87910   0.97161

 Mulliken charges and spin densities:
               1          2
     1  O   -0.021504   0.964445
     2  O    0.019770   1.033628
     3  O    0.012935   0.986310
     4  O   -0.011200   1.015617
 Sum of Mulliken charges =  -0.00000   4.00000

 Dipole moment (field-independent basis, Debye):
    X=              0.1460    Y=              0.1017    Z=              0.0000  Tot=              0.1779
 Quadrupole moment (field-independent basis, Debye-Ang):
   XX=            -20.3245   YY=            -20.5495   ZZ=            -19.6106
   XY=             -0.1929   XZ=              0.0000   YZ=              0.0000

 916\MP4SDQ=-300.1966948\CCSD=-300.191259\CCSD(T)=-300.2271605\RMSD=7.5
 Normal termination of Gaussian 16 at Tue Feb 13 14:39:00 2024.
