 Gaussian 16, Revision A.03,
 Gaussian 16:  ES64L-G16RevA.03 25-Dec-2016

 --------------------
 #p ROCCSD(T)/cc-pVTZ
 --------------------

 --------
 O2_O2_28
 --------
 Symbolic Z-matrix:
 Charge =  0 Multiplicity = 5

                         Standard orientation:
 ---------------------------------------------------------------------
 Center     Atomic      Atomic             Coordinates (Angstroms)
 Number     Number       Type             X           Y           Z
 ---------------------------------------------------------------------
      1          8           0        0.615183   -1.585183   -0.000000
      2          8           0       -0.205061   -0.764939   -0.000000
      3          8           0       -0.205061    0.595061    0.000000
      4          8           0       -0.205061    1.755061    0.000000
 ---------------------------------------------------------------------

 SCF Done:  E(ROHF) =  -299.010180312     A.U. after   21 cycles
 E2 =    -0.9196694854D+00 EUMP2 =    -0.29992984979718D+03
 CCSD(T)
 CCSD(T)= -0.29995480853D+03

 The electronic state is 5-A'.
 Alpha  occ. eigenvalues --  -20.76667 -20.76142 -20.69171 -20.66743  -1.81637
 Alpha  occ. eigenvalues --   -1.72201  -1.38906  -1.08273  -0.91112  -0.90465
 Alpha  occ. eigenvalues --   -0.88794  -0.80353  -0.77564  -0.59334  -0.58046
 Alpha  occ. eigenvalues --   -0.54175  -0.44621  -0.39580
 Alpha virt. eigenvalues --    0.44873   0.50073   0.63898   0.64316   0.65832
 Alpha virt. eigenvalues --    0.70426   0.71322   0.74017   0.79235   0.79701
 Alpha virt. eigenvalues --    0.81308   0.85432   0.92933   0.96990   1.02423

 Mulliken charges and spin densities:
               1          2
     1  O   -0.121389   0.901251
     2  O    0.011987   0.899066
     3  O    0.100362   1.046811
     4  O    0.009040   1.152872
 Sum of Mulliken charges =  -0.00000   4.00000

 Dipole moment (field-independent basis, Debye):
    X=             -0.2865    Y=              1.4519    Z=              0.0000  Tot=              1.4798
 Quadrupole moment (field-independent basis, Debye-Ang):
   XX=            -20.4467   YY=            -22.4069   ZZ=            -19.2370
   XY=              0.6565   XZ=              0.0000   YZ=             -0.0000

 803\PMP2-0=-299.9298498\MP4SDQ=-299.9201811\CCSD=-299.9171095\CCSD(T)=
 Normal termination of Gaussian 16 at Tue Feb 13 12:51:51 2024.
