 Gaussian 16, Revision A.03,
 Gaussian 16:  ES64L-G16RevA.03 25-Dec-2016

 --------------------
 #p ROCCSD(T)/cc-pVTZ
 --------------------

 ---------
 O2_O2_137
 ---------
 Symbolic Z-matrix:
 Charge =  0 Multiplicity = 5

                         Standard orientation:
 ---------------------------------------------------------------------
 Center     Atomic      Atomic             Coordinates (Angstroms)
 Number     Number       Type             X           Y           Z
 ---------------------------------------------------------------------
      1          8           0       -0.870000   -1.690000    0.000000
      2          8           0        0.290000   -1.690000    0.000000
      3          8           0        0.290000    1.110000    0.000000
      4          8           0        0.290000    2.270000    0.000000
 ---------------------------------------------------------------------

 SCF Done:  E(ROHF) =  -299.315385552     A.U. after   16 cycles
 E2 =    -0.9236630474D+00 EUMP2 =    -0.30023904859941D+03
 CCSD(T)
 CCSD(T)= -0.30024972416D+03

 The electronic state is 5-A'.
 Alpha  occ. eigenvalues --  -20.74132 -20.74008 -20.73897 -20.73786  -1.74650
 Alpha  occ. eigenvalues --   -1.74378  -1.17325  -1.16861  -0.84049  -0.83971
 Alpha  occ. eigenvalues --   -0.83764  -0.83616  -0.78447  -0.77678  -0.51421
 Alpha  occ. eigenvalues --   -0.51158  -0.50826  -0.50569
 Alpha virt. eigenvalues --    0.40243   0.42507   0.62941   0.64799   0.66315
 Alpha virt. eigenvalues --    0.69889   0.71862   0.73845   0.76429   0.77859
 Alpha virt. eigenvalues --    0.78865   0.79133   0.82638   0.86744   0.90545

 Mulliken charges and spin densities:
               1          2
     1  O   -0.001435   0.996742
     2  O    0.001788   1.003276
     3  O   -0.002042   0.997137
     4  O    0.001690   1.002845
 Sum of Mulliken charges =  -0.00000   4.00000

 Dipole moment (field-independent basis, Debye):
    X=              0.0190    Y=              0.0284    Z=              0.0000  Tot=              0.0341
 Quadrupole moment (field-independent basis, Debye-Ang):
   XX=            -20.2471   YY=            -20.2769   ZZ=            -19.6380
   XY=             -0.0195   XZ=              0.0000   YZ=              0.0000

 486\MP4SDQ=-300.220766\CCSD=-300.2142765\CCSD(T)=-300.2497242\RMSD=4.0
 Normal termination of Gaussian 16 at Tue Feb 13 16:08:41 2024.
