 Gaussian 16, Revision A.03,
 Gaussian 16:  ES64L-G16RevA.03 25-Dec-2016

 --------------------
 #p ROCCSD(T)/cc-pVTZ
 --------------------

 --------
 O2_O2_15
 --------
 Symbolic Z-matrix:
 Charge =  0 Multiplicity = 5

                         Standard orientation:
 ---------------------------------------------------------------------
 Center     Atomic      Atomic             Coordinates (Angstroms)
 Number     Number       Type             X           Y           Z
 ---------------------------------------------------------------------
      1          8           0        0.000000    0.000000    1.760000
      2          8           0        0.000000    0.000000    0.600000
      3          8           0        0.000000    0.000000   -0.600000
      4          8           0        0.000000    0.000000   -1.760000
 ---------------------------------------------------------------------

 SCF Done:  E(ROHF) =  -298.808874854     A.U. after   13 cycles
 E2 =    -0.9225206974D+00 EUMP2 =    -0.29973139555167D+03
 CCSD(T)
 CCSD(T)= -0.29975990052D+03

 Unable to determine electronic state:  an orbital has unidentified symmetry.
 Alpha  occ. eigenvalues --  -20.76903 -20.76882 -20.69131 -20.69130  -1.87101
 Alpha  occ. eigenvalues --   -1.72960  -1.49612  -1.04776  -0.94847  -0.94484
 Alpha  occ. eigenvalues --   -0.90065  -0.80949  -0.78660  -0.59962  -0.55442
 Alpha  occ. eigenvalues --   -0.43964  -0.42763  -0.41747
 Alpha virt. eigenvalues --    0.41246   0.49916   0.59379   0.63602   0.64380
 Alpha virt. eigenvalues --    0.68330   0.71039   0.73365   0.81403   0.83068
 Alpha virt. eigenvalues --    0.83089   0.98220   0.98705   1.01365   1.08892

 Mulliken charges and spin densities:
               1          2
     1  O   -0.107773   0.968808
     2  O    0.107773   1.031192
     3  O    0.107773   1.031192
     4  O   -0.107773   0.968808
 Sum of Mulliken charges =  -0.00000   4.00000

 Dipole moment (field-independent basis, Debye):
    X=             -0.0000    Y=              0.0000    Z=              0.0000  Tot=              0.0000
 Quadrupole moment (field-independent basis, Debye-Ang):
   XX=            -19.9465   YY=            -18.8589   ZZ=            -24.9188
   XY=              0.0000   XZ=              0.0000   YZ=              0.0000

 299.7222527\CCSD=-299.7203584\CCSD(T)=-299.7599005\RMSD=5.188e-09\PG=D
 Normal termination of Gaussian 16 at Tue Feb 13 12:24:47 2024.
