 Gaussian 16, Revision A.03,
 Gaussian 16:  ES64L-G16RevA.03 25-Dec-2016

 --------------------
 #p ROCCSD(T)/cc-pVTZ
 --------------------

 --------
 O2_O2_13
 --------
 Symbolic Z-matrix:
 Charge =  0 Multiplicity = 5

                         Standard orientation:
 ---------------------------------------------------------------------
 Center     Atomic      Atomic             Coordinates (Angstroms)
 Number     Number       Type             X           Y           Z
 ---------------------------------------------------------------------
      1          8           0        0.615183   -1.485183    0.000000
      2          8           0       -0.205061   -0.664939    0.000000
      3          8           0       -0.205061    0.495061   -0.000000
      4          8           0       -0.205061    1.655061   -0.000000
 ---------------------------------------------------------------------

 SCF Done:  E(ROHF) =  -298.797974289     A.U. after   21 cycles
 E2 =    -0.9215924970D+00 EUMP2 =    -0.29971956678579D+03
 CCSD(T)
 CCSD(T)= -0.29974124969D+03

 The electronic state is 5-A'.
 Alpha  occ. eigenvalues --  -20.79748 -20.74198 -20.69839 -20.66366  -1.90479
 Alpha  occ. eigenvalues --   -1.73184  -1.49124  -1.06588  -0.96451  -0.95158
 Alpha  occ. eigenvalues --   -0.90809  -0.79985  -0.76319  -0.61158  -0.57952
 Alpha  occ. eigenvalues --   -0.49559  -0.42079  -0.28397
 Alpha virt. eigenvalues --    0.44826   0.51771   0.63038   0.63130   0.64081
 Alpha virt. eigenvalues --    0.66294   0.71373   0.74802   0.78522   0.81811
 Alpha virt. eigenvalues --    0.82040   0.87114   0.92233   0.97247   1.07694

 Mulliken charges and spin densities:
               1          2
     1  O   -0.148403   0.868309
     2  O    0.013908   0.568070
     3  O    0.099724   1.152572
     4  O    0.034771   1.411049
 Sum of Mulliken charges =  -0.00000   4.00000

 Dipole moment (field-independent basis, Debye):
    X=             -0.2818    Y=              1.2062    Z=             -0.0000  Tot=              1.2387
 Quadrupole moment (field-independent basis, Debye-Ang):
   XX=            -20.5097   YY=            -23.4471   ZZ=            -18.9126
   XY=              0.7052   XZ=             -0.0000   YZ=              0.0000

 743\PMP2-0=-299.7195668\MP4SDQ=-299.7069014\CCSD=-299.7033139\CCSD(T)=
 Normal termination of Gaussian 16 at Tue Feb 13 12:20:59 2024.
