 Gaussian 16, Revision A.03,
 Gaussian 16:  ES64L-G16RevA.03 25-Dec-2016

 --------------------
 #p ROCCSD(T)/cc-pVTZ
 --------------------

 --------
 O2_O2_90
 --------
 Symbolic Z-matrix:
 Charge =  0 Multiplicity = 5

                         Standard orientation:
 ---------------------------------------------------------------------
 Center     Atomic      Atomic             Coordinates (Angstroms)
 Number     Number       Type             X           Y           Z
 ---------------------------------------------------------------------
      1          8           0        0.000000    0.000000    2.260000
      2          8           0        0.000000    0.000000    1.100000
      3          8           0        0.000000    0.000000   -1.100000
      4          8           0        0.000000    0.000000   -2.260000
 ---------------------------------------------------------------------

 SCF Done:  E(ROHF) =  -299.303180450     A.U. after   11 cycles
 E2 =    -0.9260393121D+00 EUMP2 =    -0.30022921976235D+03
 CCSD(T)
 CCSD(T)= -0.30023932441D+03

 The electronic state is 5-SGG.
 Alpha  occ. eigenvalues --  -20.73665 -20.73665 -20.73339 -20.73338  -1.74456
 Alpha  occ. eigenvalues --   -1.74076  -1.19001  -1.15191  -0.83930  -0.83930
 Alpha  occ. eigenvalues --   -0.83160  -0.83160  -0.81029  -0.74596  -0.51720
 Alpha  occ. eigenvalues --   -0.51720  -0.49747  -0.49747
 Alpha virt. eigenvalues --    0.42793   0.48411   0.64196   0.64196   0.70054
 Alpha virt. eigenvalues --    0.70054   0.71171   0.75440   0.75440   0.76300
 Alpha virt. eigenvalues --    0.85145   0.85921   0.87750   0.92432   0.92432

 Mulliken charges and spin densities:
               1          2
     1  O   -0.022125   1.003624
     2  O    0.022125   0.996376
     3  O    0.022125   0.996376
     4  O   -0.022125   1.003624
 Sum of Mulliken charges =  -0.00000   4.00000

 Dipole moment (field-independent basis, Debye):
    X=             -0.0000    Y=              0.0000    Z=             -0.0000  Tot=              0.0000
 Quadrupole moment (field-independent basis, Debye-Ang):
   XX=            -19.6308   YY=            -19.6308   ZZ=            -21.1679
   XY=              0.0000   XZ=              0.0000   YZ=              0.0000

 198\MP4SDQ=-300.2103781\CCSD=-300.2036327\CCSD(T)=-300.2393244\RMSD=2.
 Normal termination of Gaussian 16 at Tue Feb 13 14:51:17 2024.
