 Gaussian 16, Revision A.03,
 Gaussian 16:  ES64L-G16RevA.03 25-Dec-2016

 --------------------
 #p ROCCSD(T)/cc-pVTZ
 --------------------

 ---------
 O2_O2_281
 ---------
 Symbolic Z-matrix:
 Charge =  0 Multiplicity = 5

                         Standard orientation:
 ---------------------------------------------------------------------
 Center     Atomic      Atomic             Coordinates (Angstroms)
 Number     Number       Type             X           Y           Z
 ---------------------------------------------------------------------
      1          8           0       -0.870000   -2.650000    0.000000
      2          8           0        0.290000   -2.650000    0.000000
      3          8           0        0.290000    2.070000    0.000000
      4          8           0        0.290000    3.230000    0.000000
 ---------------------------------------------------------------------

 SCF Done:  E(ROHF) =  -299.316601039     A.U. after   16 cycles
 E2 =    -0.9223083722D+00 EUMP2 =    -0.30023890941119D+03
 CCSD(T)
 CCSD(T)= -0.30024968398D+03

 The electronic state is 5-A'.
 Alpha  occ. eigenvalues --  -20.74076 -20.74012 -20.73999 -20.73936  -1.74574
 Alpha  occ. eigenvalues --   -1.74511  -1.17120  -1.17056  -0.83854  -0.83854
 Alpha  occ. eigenvalues --   -0.83791  -0.83790  -0.78202  -0.78138  -0.51050
 Alpha  occ. eigenvalues --   -0.51050  -0.50987  -0.50985
 Alpha virt. eigenvalues --    0.41288   0.41479   0.67850   0.67940   0.67976
 Alpha virt. eigenvalues --    0.68029   0.72048   0.72119   0.77906   0.78053
 Alpha virt. eigenvalues --    0.79617   0.79723   0.79805   0.79987   0.87012

 Mulliken charges and spin densities:
               1          2
     1  O   -0.000131   0.999860
     2  O    0.000142   1.000139
     3  O   -0.000372   0.999600
     4  O    0.000361   1.000401
 Sum of Mulliken charges =  -0.00000   4.00000

 Dipole moment (field-independent basis, Debye):
    X=              0.0012    Y=              0.0038    Z=              0.0000  Tot=              0.0040
 Quadrupole moment (field-independent basis, Debye-Ang):
   XX=            -20.2386   YY=            -20.2296   ZZ=            -19.6381
   XY=             -0.0010   XZ=              0.0000   YZ=              0.0000

 94\MP4SDQ=-300.2208878\CCSD=-300.2144187\CCSD(T)=-300.249684\RMSD=2.10
 Normal termination of Gaussian 16 at Tue Feb 13 20:15:23 2024.
