 Gaussian 16, Revision A.03,
 Gaussian 16:  ES64L-G16RevA.03 25-Dec-2016

 --------------------
 #p ROCCSD(T)/cc-pVTZ
 --------------------

 ---------
 O2_O2_196
 ---------
 Symbolic Z-matrix:
 Charge =  0 Multiplicity = 5

                         Standard orientation:
 ---------------------------------------------------------------------
 Center     Atomic      Atomic             Coordinates (Angstroms)
 Number     Number       Type             X           Y           Z
 ---------------------------------------------------------------------
      1          8           0        0.615183   -2.705183    0.000000
      2          8           0       -0.205061   -1.884939    0.000000
      3          8           0       -0.205061    1.715061   -0.000000
      4          8           0       -0.205061    2.875061   -0.000000
 ---------------------------------------------------------------------

 SCF Done:  E(ROHF) =  -299.316620561     A.U. after   17 cycles
 E2 =    -0.9225852988D+00 EUMP2 =    -0.30023920585984D+03
 CCSD(T)
 CCSD(T)= -0.30024993585D+03

 The electronic state is 5-A'.
 Alpha  occ. eigenvalues --  -20.74021 -20.74005 -20.73943 -20.73925  -1.74521
 Alpha  occ. eigenvalues --   -1.74499  -1.17100  -1.17002  -0.83805  -0.83803
 Alpha  occ. eigenvalues --   -0.83775  -0.83773  -0.78256  -0.78004  -0.51028
 Alpha  occ. eigenvalues --   -0.51008  -0.50953  -0.50941
 Alpha virt. eigenvalues --    0.37338   0.44521   0.65038   0.67517   0.67806
 Alpha virt. eigenvalues --    0.68422   0.69521   0.74361   0.76661   0.78066
 Alpha virt. eigenvalues --    0.78518   0.80598   0.81225   0.86024   0.87040

 Mulliken charges and spin densities:
               1          2
     1  O   -0.000294   0.999130
     2  O    0.000520   1.000722
     3  O   -0.000451   1.000715
     4  O    0.000225   0.999434
 Sum of Mulliken charges =  -0.00000   4.00000

 Dipole moment (field-independent basis, Debye):
    X=             -0.0043    Y=             -0.0028    Z=             -0.0000  Tot=              0.0051
 Quadrupole moment (field-independent basis, Debye-Ang):
   XX=            -19.9394   YY=            -20.5718   ZZ=            -19.6385
   XY=              0.3067   XZ=             -0.0000   YZ=              0.0000

 Normal termination of Gaussian 16 at Tue Feb 13 17:38:57 2024.
