 Gaussian 16, Revision A.03,
 Gaussian 16:  ES64L-G16RevA.03 25-Dec-2016

 --------------------
 #p ROCCSD(T)/cc-pVTZ
 --------------------

 --------
 O2_O2_97
 --------
 Symbolic Z-matrix:
 Charge =  0 Multiplicity = 5

                         Standard orientation:
 ---------------------------------------------------------------------
 Center     Atomic      Atomic             Coordinates (Angstroms)
 Number     Number       Type             X           Y           Z
 ---------------------------------------------------------------------
      1          8           0        0.615183   -2.045183    0.000000
      2          8           0       -0.205061   -1.224939    0.000000
      3          8           0       -0.205061    1.055061    0.000000
      4          8           0       -0.205061    2.215061    0.000000
 ---------------------------------------------------------------------

 SCF Done:  E(ROHF) =  -299.306411703     A.U. after   22 cycles
 E2 =    -0.9251776155D+00 EUMP2 =    -0.30023158931861D+03
 CCSD(T)
 CCSD(T)= -0.30024217209D+03

 The electronic state is 5-A'.
 Alpha  occ. eigenvalues --  -20.73882 -20.73628 -20.73559 -20.73440  -1.74566
 Alpha  occ. eigenvalues --   -1.74144  -1.18573  -1.15646  -0.84184  -0.83979
 Alpha  occ. eigenvalues --   -0.83584  -0.83273  -0.79880  -0.75652  -0.51609
 Alpha  occ. eigenvalues --   -0.51214  -0.50260  -0.50021
 Alpha virt. eigenvalues --    0.41700   0.46751   0.64030   0.64060   0.69806
 Alpha virt. eigenvalues --    0.70122   0.71782   0.75098   0.76005   0.78226
 Alpha virt. eigenvalues --    0.80034   0.85935   0.87253   0.89992   0.90452

 Mulliken charges and spin densities:
               1          2
     1  O   -0.009751   0.990010
     2  O    0.009220   1.009831
     3  O    0.013159   0.994731
     4  O   -0.012628   1.005428
 Sum of Mulliken charges =  -0.00000   4.00000

 Dipole moment (field-independent basis, Debye):
    X=             -0.0397    Y=              0.0627    Z=              0.0000  Tot=              0.0742
 Quadrupole moment (field-independent basis, Debye-Ang):
   XX=            -19.9716   YY=            -20.8709   ZZ=            -19.6333
   XY=              0.3661   XZ=             -0.0000   YZ=              0.0000

 117\PMP2-0=-300.2315893\MP4SDQ=-300.2130866\CCSD=-300.2065301\CCSD(T)=
 Normal termination of Gaussian 16 at Tue Feb 13 15:05:15 2024.
