 Gaussian 16, Revision A.03,
 Gaussian 16:  ES64L-G16RevA.03 25-Dec-2016

 --------------------
 #p ROCCSD(T)/cc-pVTZ
 --------------------

 ---------
 O2_O2_253
 ---------
 Symbolic Z-matrix:
 Charge =  0 Multiplicity = 5

                         Standard orientation:
 ---------------------------------------------------------------------
 Center     Atomic      Atomic             Coordinates (Angstroms)
 Number     Number       Type             X           Y           Z
 ---------------------------------------------------------------------
      1          8           0        0.615183   -3.085183    0.000000
      2          8           0       -0.205061   -2.264939   -0.000000
      3          8           0       -0.205061    2.095062   -0.000000
      4          8           0       -0.205061    3.255060   -0.000000
 ---------------------------------------------------------------------

 SCF Done:  E(ROHF) =  -299.316604453     A.U. after   13 cycles
 E2 =    -0.9223454366D+00 EUMP2 =    -0.30023894988981D+03
 CCSD(T)
 CCSD(T)= -0.30024971486D+03

 The electronic state is 5-A'.
 Alpha  occ. eigenvalues --  -20.74034 -20.74015 -20.73957 -20.73937  -1.74533
 Alpha  occ. eigenvalues --   -1.74513  -1.17078  -1.17055  -0.83813  -0.83813
 Alpha  occ. eigenvalues --   -0.83793  -0.83791  -0.78170  -0.78124  -0.51009
 Alpha  occ. eigenvalues --   -0.51008  -0.50986  -0.50985
 Alpha virt. eigenvalues --    0.39946   0.42713   0.67796   0.67938   0.68001
 Alpha virt. eigenvalues --    0.68066   0.70792   0.73025   0.77061   0.78580
 Alpha virt. eigenvalues --    0.79577   0.79801   0.79997   0.80973   0.87051

 Mulliken charges and spin densities:
               1          2
     1  O   -0.000437   0.999484
     2  O    0.000468   1.000496
     3  O    0.000209   1.000336
     4  O   -0.000240   0.999684
 Sum of Mulliken charges =   0.00000   4.00000

 Dipole moment (field-independent basis, Debye):
    X=             -0.0024    Y=              0.0001    Z=             -0.0000  Tot=              0.0024
 Quadrupole moment (field-independent basis, Debye-Ang):
   XX=            -19.9389   YY=            -20.5625   ZZ=            -19.6383
   XY=              0.3041   XZ=             -0.0000   YZ=              0.0000

 Normal termination of Gaussian 16 at Tue Feb 13 19:19:54 2024.
