 Gaussian 16, Revision A.03,
 Gaussian 16:  ES64L-G16RevA.03 25-Dec-2016

 --------------------
 #p ROCCSD(T)/cc-pVTZ
 --------------------

 ---------
 O2_O2_154
 ---------
 Symbolic Z-matrix:
 Charge =  0 Multiplicity = 5

                         Standard orientation:
 ---------------------------------------------------------------------
 Center     Atomic      Atomic             Coordinates (Angstroms)
 Number     Number       Type             X           Y           Z
 ---------------------------------------------------------------------
      1          8           0        0.615183   -2.425183    0.000000
      2          8           0       -0.205061   -1.604939    0.000000
      3          8           0       -0.205061    1.435062   -0.000000
      4          8           0       -0.205061    2.595060   -0.000000
 ---------------------------------------------------------------------

 SCF Done:  E(ROHF) =  -299.316248800     A.U. after   17 cycles
 E2 =    -0.9230729901D+00 EUMP2 =    -0.30023932179001D+03
 CCSD(T)
 CCSD(T)= -0.30024999985D+03

 The electronic state is 5-A'.
 Alpha  occ. eigenvalues --  -20.73991 -20.73958 -20.73914 -20.73871  -1.74507
 Alpha  occ. eigenvalues --   -1.74453  -1.17239  -1.16820  -0.83812  -0.83812
 Alpha  occ. eigenvalues --   -0.83727  -0.83706  -0.78533  -0.77659  -0.51104
 Alpha  occ. eigenvalues --   -0.51035  -0.50860  -0.50801
 Alpha virt. eigenvalues --    0.37805   0.45373   0.64041   0.66354   0.66865
 Alpha virt. eigenvalues --    0.69059   0.70055   0.74718   0.76872   0.77242
 Alpha virt. eigenvalues --    0.77603   0.82693   0.83948   0.85774   0.87063

 Mulliken charges and spin densities:
               1          2
     1  O   -0.001188   0.997984
     2  O    0.001398   1.001889
     3  O   -0.000125   1.000756
     4  O   -0.000085   0.999371
 Sum of Mulliken charges =   0.00000   4.00000

 Dipole moment (field-independent basis, Debye):
    X=             -0.0092    Y=              0.0017    Z=             -0.0000  Tot=              0.0093
 Quadrupole moment (field-independent basis, Debye-Ang):
   XX=            -19.9423   YY=            -20.6187   ZZ=            -19.6386
   XY=              0.3148   XZ=             -0.0000   YZ=              0.0000

 Normal termination of Gaussian 16 at Tue Feb 13 16:35:01 2024.
