 Gaussian 16, Revision A.03,
 Gaussian 16:  ES64L-G16RevA.03 25-Dec-2016

 --------------------
 #p ROCCSD(T)/cc-pVTZ
 --------------------

 --------
 O2_O2_48
 --------
 Symbolic Z-matrix:
 Charge =  0 Multiplicity = 5

                         Standard orientation:
 ---------------------------------------------------------------------
 Center     Atomic      Atomic             Coordinates (Angstroms)
 Number     Number       Type             X           Y           Z
 ---------------------------------------------------------------------
      1          8           0        0.000000    0.000000    1.980000
      2          8           0        0.000000    0.000000    0.820000
      3          8           0        0.000000    0.000000   -0.820000
      4          8           0        0.000000    0.000000   -1.980000
 ---------------------------------------------------------------------

 SCF Done:  E(ROHF) =  -299.188795677     A.U. after   12 cycles
 E2 =    -0.9380536591D+00 EUMP2 =    -0.30012684933586D+03
 CCSD(T)
 CCSD(T)= -0.30013451332D+03

 The electronic state is 5-SGG.
 Alpha  occ. eigenvalues --  -20.73061 -20.73061 -20.70725 -20.70721  -1.74928
 Alpha  occ. eigenvalues --   -1.72778  -1.26313  -1.11002  -0.85667  -0.84809
 Alpha  occ. eigenvalues --   -0.84809  -0.81585  -0.81585  -0.64993  -0.53650
 Alpha  occ. eigenvalues --   -0.53650  -0.46786  -0.46786
 Alpha virt. eigenvalues --    0.45220   0.48881   0.65623   0.65623   0.70338
 Alpha virt. eigenvalues --    0.70743   0.70743   0.76374   0.78250   0.78250
 Alpha virt. eigenvalues --    0.84827   0.86621   0.97462   0.97462   1.00826

 Mulliken charges and spin densities:
               1          2
     1  O   -0.025514   1.054781
     2  O    0.025514   0.945219
     3  O    0.025514   0.945219
     4  O   -0.025514   1.054781
 Sum of Mulliken charges =  -0.00000   4.00000

 Dipole moment (field-independent basis, Debye):
    X=              0.0000    Y=             -0.0000    Z=              0.0000  Tot=              0.0000
 Quadrupole moment (field-independent basis, Debye-Ang):
   XX=            -19.5350   YY=            -19.5350   ZZ=            -21.5471
   XY=              0.0000   XZ=              0.0000   YZ=              0.0000

 493\MP4SDQ=-300.105168\CCSD=-300.0974889\CCSD(T)=-300.1345133\RMSD=3.6
 Normal termination of Gaussian 16 at Tue Feb 13 13:33:07 2024.
