 Gaussian 16, Revision A.03,
 Gaussian 16:  ES64L-G16RevA.03 25-Dec-2016

 --------------------
 #p ROCCSD(T)/cc-pVTZ
 --------------------

 ---------
 O2_O2_184
 ---------
 Symbolic Z-matrix:
 Charge =  0 Multiplicity = 5

                         Standard orientation:
 ---------------------------------------------------------------------
 Center     Atomic      Atomic             Coordinates (Angstroms)
 Number     Number       Type             X           Y           Z
 ---------------------------------------------------------------------
      1          8           0        0.615183   -2.625183    0.000000
      2          8           0       -0.205061   -1.804939    0.000000
      3          8           0       -0.205061    1.635061   -0.000000
      4          8           0       -0.205061    2.795061   -0.000000
 ---------------------------------------------------------------------

 SCF Done:  E(ROHF) =  -299.316589322     A.U. after   17 cycles
 E2 =    -0.9226843996D+00 EUMP2 =    -0.30023927372182D+03
 CCSD(T)
 CCSD(T)= -0.30024999281D+03

 The electronic state is 5-A'.
 Alpha  occ. eigenvalues --  -20.74016 -20.73998 -20.73938 -20.73917  -1.74517
 Alpha  occ. eigenvalues --   -1.74492  -1.17120  -1.16972  -0.83805  -0.83802
 Alpha  occ. eigenvalues --   -0.83765  -0.83764  -0.78304  -0.77943  -0.51041
 Alpha  occ. eigenvalues --   -0.51012  -0.50936  -0.50916
 Alpha virt. eigenvalues --    0.37088   0.44818   0.64391   0.67293   0.67634
 Alpha virt. eigenvalues --    0.68571   0.69593   0.74530   0.76795   0.77819
 Alpha virt. eigenvalues --    0.78094   0.81043   0.81796   0.86083   0.87039

 Mulliken charges and spin densities:
               1          2
     1  O   -0.000350   0.998922
     2  O    0.000610   1.000905
     3  O   -0.000657   1.000794
     4  O    0.000397   0.999379
 Sum of Mulliken charges =  -0.00000   4.00000

 Dipole moment (field-independent basis, Debye):
    X=             -0.0052    Y=             -0.0027    Z=             -0.0000  Tot=              0.0058
 Quadrupole moment (field-independent basis, Debye-Ang):
   XX=            -19.9397   YY=            -20.5794   ZZ=            -19.6385
   XY=              0.3082   XZ=             -0.0000   YZ=              0.0000

 Normal termination of Gaussian 16 at Tue Feb 13 17:21:06 2024.
