 Gaussian 16, Revision A.03,
 Gaussian 16:  ES64L-G16RevA.03 25-Dec-2016

 --------------------
 #p ROCCSD(T)/cc-pVTZ
 --------------------

 --------
 O2_O2_75
 --------
 Symbolic Z-matrix:
 Charge =  0 Multiplicity = 5

                         Standard orientation:
 ---------------------------------------------------------------------
 Center     Atomic      Atomic             Coordinates (Angstroms)
 Number     Number       Type             X           Y           Z
 ---------------------------------------------------------------------
      1          8           0        0.000000    0.000000    2.160000
      2          8           0        0.000000    0.000000    1.000000
      3          8           0        0.000000    0.000000   -1.000000
      4          8           0        0.000000    0.000000   -2.160000
 ---------------------------------------------------------------------

 SCF Done:  E(ROHF) =  -299.286000560     A.U. after   11 cycles
 E2 =    -0.9283663108D+00 EUMP2 =    -0.30021436687084D+03
 CCSD(T)
 CCSD(T)= -0.30022396987D+03

 The electronic state is 5-SGG.
 Alpha  occ. eigenvalues --  -20.73509 -20.73509 -20.72803 -20.72801  -1.74493
 Alpha  occ. eigenvalues --   -1.73790  -1.20456  -1.14151  -0.84068  -0.84068
 Alpha  occ. eigenvalues --   -0.82789  -0.82789  -0.82355  -0.72582  -0.52134
 Alpha  occ. eigenvalues --   -0.52134  -0.49078  -0.49078
 Alpha virt. eigenvalues --    0.43900   0.48531   0.64439   0.64439   0.70298
 Alpha virt. eigenvalues --    0.70298   0.71917   0.75969   0.75969   0.76745
 Alpha virt. eigenvalues --    0.84894   0.85981   0.91877   0.94383   0.94383

 Mulliken charges and spin densities:
               1          2
     1  O   -0.026796   1.011098
     2  O    0.026796   0.988902
     3  O    0.026796   0.988902
     4  O   -0.026796   1.011098
 Sum of Mulliken charges =  -0.00000   4.00000

 Dipole moment (field-independent basis, Debye):
    X=             -0.0000    Y=              0.0000    Z=             -0.0000  Tot=              0.0000
 Quadrupole moment (field-independent basis, Debye-Ang):
   XX=            -19.6155   YY=            -19.6155   ZZ=            -21.2974
   XY=              0.0000   XZ=              0.0000   YZ=              0.0000

 69\MP4SDQ=-300.1949454\CCSD=-300.1880264\CCSD(T)=-300.2239699\RMSD=2.2
 Normal termination of Gaussian 16 at Tue Feb 13 14:24:30 2024.
