 Gaussian 16, Revision A.03,
 Gaussian 16:  ES64L-G16RevA.03 25-Dec-2016

 --------------------
 #p ROCCSD(T)/cc-pVTZ
 --------------------

 --------
 O2_O2_12
 --------
 Symbolic Z-matrix:
 Charge =  0 Multiplicity = 5

                         Standard orientation:
 ---------------------------------------------------------------------
 Center     Atomic      Atomic             Coordinates (Angstroms)
 Number     Number       Type             X           Y           Z
 ---------------------------------------------------------------------
      1          8           0        0.000000    0.000000    1.740000
      2          8           0        0.000000    0.000000    0.580000
      3          8           0        0.000000    0.000000   -0.580000
      4          8           0        0.000000    0.000000   -1.740000
 ---------------------------------------------------------------------

 SCF Done:  E(ROHF) =  -298.766711924     A.U. after   13 cycles
 E2 =    -0.9221506284D+00 EUMP2 =    -0.29968886255235D+03
 CCSD(T)
 CCSD(T)= -0.29971734224D+03

 Unable to determine electronic state:  an orbital has unidentified symmetry.
 Alpha  occ. eigenvalues --  -20.77025 -20.76990 -20.68642 -20.68641  -1.89506
 Alpha  occ. eigenvalues --   -1.72798  -1.51468  -1.04030  -0.96363  -0.96180
 Alpha  occ. eigenvalues --   -0.90208  -0.80552  -0.78212  -0.60371  -0.55695
 Alpha  occ. eigenvalues --   -0.43093  -0.40966  -0.38681
 Alpha virt. eigenvalues --    0.40184   0.49941   0.58376   0.63289   0.64057
 Alpha virt. eigenvalues --    0.67644   0.71133   0.73508   0.81630   0.83012
 Alpha virt. eigenvalues --    0.83314   0.98390   0.98849   1.05632   1.09632

 Mulliken charges and spin densities:
               1          2
     1  O   -0.106109   0.978384
     2  O    0.106109   1.021616
     3  O    0.106109   1.021616
     4  O   -0.106109   0.978384
 Sum of Mulliken charges =   0.00000   4.00000

 Dipole moment (field-independent basis, Debye):
    X=             -0.0000    Y=              0.0000    Z=              0.0000  Tot=              0.0000
 Quadrupole moment (field-independent basis, Debye-Ang):
   XX=            -18.7907   YY=            -19.8756   ZZ=            -25.2877
   XY=              0.0000   XZ=              0.0000   YZ=              0.0000

 -299.6796522\CCSD=-299.6777601\CCSD(T)=-299.7173422\RMSD=3.360e-09\PG=
 Normal termination of Gaussian 16 at Tue Feb 13 12:18:40 2024.
