 Gaussian 16, Revision A.03,
 Gaussian 16:  ES64L-G16RevA.03 25-Dec-2016

 --------------------
 #p ROCCSD(T)/cc-pVTZ
 --------------------

 ---------
 O2_O2_257
 ---------
 Symbolic Z-matrix:
 Charge =  0 Multiplicity = 5

                         Standard orientation:
 ---------------------------------------------------------------------
 Center     Atomic      Atomic             Coordinates (Angstroms)
 Number     Number       Type             X           Y           Z
 ---------------------------------------------------------------------
      1          8           0       -0.870000   -2.490000    0.000000
      2          8           0        0.290000   -2.490000    0.000000
      3          8           0        0.290000    1.910000    0.000000
      4          8           0        0.290000    3.070000    0.000000
 ---------------------------------------------------------------------

 SCF Done:  E(ROHF) =  -299.316614209     A.U. after   16 cycles
 E2 =    -0.9223442480D+00 EUMP2 =    -0.30023895845718D+03
 CCSD(T)
 CCSD(T)= -0.30024972662D+03

 The electronic state is 5-A'.
 Alpha  occ. eigenvalues --  -20.74081 -20.74007 -20.74004 -20.73931  -1.74579
 Alpha  occ. eigenvalues --   -1.74505  -1.17125  -1.17051  -0.83859  -0.83859
 Alpha  occ. eigenvalues --   -0.83786  -0.83783  -0.78208  -0.78132  -0.51057
 Alpha  occ. eigenvalues --   -0.51055  -0.50981  -0.50977
 Alpha virt. eigenvalues --    0.41131   0.41535   0.67357   0.67890   0.67966
 Alpha virt. eigenvalues --    0.68078   0.72060   0.72469   0.77823   0.78125
 Alpha virt. eigenvalues --    0.79491   0.79685   0.79845   0.80367   0.87003

 Mulliken charges and spin densities:
               1          2
     1  O   -0.000139   0.999856
     2  O    0.000182   1.000140
     3  O   -0.000505   0.999502
     4  O    0.000463   1.000502
 Sum of Mulliken charges =  -0.00000   4.00000

 Dipole moment (field-independent basis, Debye):
    X=              0.0014    Y=              0.0043    Z=              0.0000  Tot=              0.0045
 Quadrupole moment (field-independent basis, Debye-Ang):
   XX=            -20.2387   YY=            -20.2263   ZZ=            -19.6381
   XY=             -0.0008   XZ=              0.0000   YZ=              0.0000

 585\MP4SDQ=-300.2209278\CCSD=-300.2144577\CCSD(T)=-300.2497266\RMSD=2.
 Normal termination of Gaussian 16 at Tue Feb 13 19:27:56 2024.
