 Gaussian 16, Revision A.03,
 Gaussian 16:  ES64L-G16RevA.03 25-Dec-2016

 --------------------
 #p ROCCSD(T)/cc-pVTZ
 --------------------

 --------
 O2_O2_46
 --------
 Symbolic Z-matrix:
 Charge =  0 Multiplicity = 5

                         Standard orientation:
 ---------------------------------------------------------------------
 Center     Atomic      Atomic             Coordinates (Angstroms)
 Number     Number       Type             X           Y           Z
 ---------------------------------------------------------------------
      1          8           0        0.615183   -1.705183    0.000000
      2          8           0       -0.205061   -0.884939    0.000000
      3          8           0       -0.205061    0.715061   -0.000000
      4          8           0       -0.205061    1.875061   -0.000000
 ---------------------------------------------------------------------

 SCF Done:  E(ROHF) =  -299.176276237     A.U. after   22 cycles
 E2 =    -0.9228415709D+00 EUMP2 =    -0.30009911780794D+03
 CCSD(T)
 CCSD(T)= -0.30011986137D+03

 The electronic state is 5-A'.
 Alpha  occ. eigenvalues --  -20.74633 -20.72980 -20.71201 -20.70240  -1.76594
 Alpha  occ. eigenvalues --   -1.72850  -1.28099  -1.11032  -0.88482  -0.86117
 Alpha  occ. eigenvalues --   -0.85360  -0.81600  -0.79640  -0.66551  -0.54510
 Alpha  occ. eigenvalues --   -0.52518  -0.46974  -0.46081
 Alpha virt. eigenvalues --    0.44701   0.48458   0.64477   0.64997   0.69735
 Alpha virt. eigenvalues --    0.70926   0.71671   0.75169   0.77095   0.79410
 Alpha virt. eigenvalues --    0.79874   0.84853   0.93188   0.96314   0.99848

 Mulliken charges and spin densities:
               1          2
     1  O   -0.065996   0.940948
     2  O    0.039473   1.016184
     3  O    0.027414   0.965538
     4  O   -0.000891   1.077329
 Sum of Mulliken charges =  -0.00000   4.00000

 Dipole moment (field-independent basis, Debye):
    X=             -0.1898    Y=              0.6453    Z=             -0.0000  Tot=              0.6726
 Quadrupole moment (field-independent basis, Debye-Ang):
   XX=            -20.1725   YY=            -21.6463   ZZ=            -19.4733
   XY=              0.5738   XZ=             -0.0000   YZ=              0.0000

 762\PMP2-0=-300.0991178\MP4SDQ=-300.0869763\CCSD=-300.0830261\CCSD(T)=
 Normal termination of Gaussian 16 at Tue Feb 13 13:29:13 2024.
