 Gaussian 16, Revision A.03,
 Gaussian 16:  ES64L-G16RevA.03 25-Dec-2016

 --------------------
 #p ROCCSD(T)/cc-pVTZ
 --------------------

 ---------
 O2_O2_266
 ---------
 Symbolic Z-matrix:
 Charge =  0 Multiplicity = 5

                         Standard orientation:
 ---------------------------------------------------------------------
 Center     Atomic      Atomic             Coordinates (Angstroms)
 Number     Number       Type             X           Y           Z
 ---------------------------------------------------------------------
      1          8           0       -0.870000   -2.550000    0.000000
      2          8           0        0.290000   -2.550000    0.000000
      3          8           0        0.290000    1.970000    0.000000
      4          8           0        0.290000    3.130000    0.000000
 ---------------------------------------------------------------------

 SCF Done:  E(ROHF) =  -299.316608025     A.U. after   16 cycles
 E2 =    -0.9223281445D+00 EUMP2 =    -0.30023893616919D+03
 CCSD(T)
 CCSD(T)= -0.30024970718D+03

 The electronic state is 5-A'.
 Alpha  occ. eigenvalues --  -20.74079 -20.74009 -20.74002 -20.73933  -1.74577
 Alpha  occ. eigenvalues --   -1.74507  -1.17123  -1.17053  -0.83857  -0.83857
 Alpha  occ. eigenvalues --   -0.83788  -0.83785  -0.78206  -0.78134  -0.51054
 Alpha  occ. eigenvalues --   -0.51053  -0.50983  -0.50980
 Alpha virt. eigenvalues --    0.41207   0.41512   0.67614   0.67915   0.67970
 Alpha virt. eigenvalues --    0.68054   0.72057   0.72286   0.77862   0.78093
 Alpha virt. eigenvalues --    0.79539   0.79704   0.79825   0.80182   0.87007

 Mulliken charges and spin densities:
               1          2
     1  O   -0.000138   0.999855
     2  O    0.000164   1.000143
     3  O   -0.000446   0.999542
     4  O    0.000419   1.000461
 Sum of Mulliken charges =  -0.00000   4.00000

 Dipole moment (field-independent basis, Debye):
    X=              0.0013    Y=              0.0041    Z=              0.0000  Tot=              0.0043
 Quadrupole moment (field-independent basis, Debye-Ang):
   XX=            -20.2387   YY=            -20.2278   ZZ=            -19.6381
   XY=             -0.0009   XZ=              0.0000   YZ=              0.0000

 62\MP4SDQ=-300.2209096\CCSD=-300.21444\CCSD(T)=-300.2497072\RMSD=2.134
 Normal termination of Gaussian 16 at Tue Feb 13 19:45:26 2024.
