 Gaussian 16, Revision A.03,
 Gaussian 16:  ES64L-G16RevA.03 25-Dec-2016

 --------------------
 #p ROCCSD(T)/cc-pVTZ
 --------------------

 ---------
 O2_O2_291
 ---------
 Symbolic Z-matrix:
 Charge =  0 Multiplicity = 5

                         Standard orientation:
 ---------------------------------------------------------------------
 Center     Atomic      Atomic             Coordinates (Angstroms)
 Number     Number       Type             X           Y           Z
 ---------------------------------------------------------------------
      1          8           0        0.000000    0.000000    3.600000
      2          8           0        0.000000    0.000000    2.440000
      3          8           0        0.000000    0.000000   -2.440000
      4          8           0        0.000000    0.000000   -3.600000
 ---------------------------------------------------------------------

 SCF Done:  E(ROHF) =  -299.316588311     A.U. after   11 cycles
 E2 =    -0.9222996066D+00 EUMP2 =    -0.30023888791801D+03
 CCSD(T)
 CCSD(T)= -0.30024966080D+03

 The electronic state is 5-SGG.
 Alpha  occ. eigenvalues --  -20.74022 -20.74022 -20.73945 -20.73945  -1.74522
 Alpha  occ. eigenvalues --   -1.74522  -1.17066  -1.17064  -0.83801  -0.83801
 Alpha  occ. eigenvalues --   -0.83801  -0.83801  -0.78152  -0.78138  -0.50997
 Alpha  occ. eigenvalues --   -0.50997  -0.50994  -0.50994
 Alpha virt. eigenvalues --    0.40733   0.42099   0.67993   0.67993   0.68017
 Alpha virt. eigenvalues --    0.68017   0.71597   0.72472   0.77591   0.78505
 Alpha virt. eigenvalues --    0.79744   0.79744   0.79831   0.79831   0.87063

 Mulliken charges and spin densities:
               1          2
     1  O   -0.000388   0.999567
     2  O    0.000388   1.000433
     3  O    0.000388   1.000433
     4  O   -0.000388   0.999567
 Sum of Mulliken charges =  -0.00000   4.00000

 Dipole moment (field-independent basis, Debye):
    X=             -0.0000    Y=              0.0000    Z=             -0.0000  Tot=              0.0000
 Quadrupole moment (field-independent basis, Debye-Ang):
   XX=            -19.6382   YY=            -19.6382   ZZ=            -20.8719
   XY=              0.0000   XZ=              0.0000   YZ=              0.0000

 88879\MP4SDQ=-300.2208694\CCSD=-300.2143962\CCSD(T)=-300.2496608\RMSD=
 Normal termination of Gaussian 16 at Tue Feb 13 20:34:19 2024.
