 Gaussian 16, Revision A.03,
 Gaussian 16:  ES64L-G16RevA.03 25-Dec-2016

 --------------------
 #p ROCCSD(T)/cc-pVTZ
 --------------------

 ---------
 O2_O2_251
 ---------
 Symbolic Z-matrix:
 Charge =  0 Multiplicity = 5

                         Standard orientation:
 ---------------------------------------------------------------------
 Center     Atomic      Atomic             Coordinates (Angstroms)
 Number     Number       Type             X           Y           Z
 ---------------------------------------------------------------------
      1          8           0       -0.870000   -2.450000    0.000000
      2          8           0        0.290000   -2.450000    0.000000
      3          8           0        0.290000    1.870000    0.000000
      4          8           0        0.290000    3.030000    0.000000
 ---------------------------------------------------------------------

 SCF Done:  E(ROHF) =  -299.316619256     A.U. after   16 cycles
 E2 =    -0.9223573182D+00 EUMP2 =    -0.30023897657445D+03
 CCSD(T)
 CCSD(T)= -0.30024974248D+03

 The electronic state is 5-A'.
 Alpha  occ. eigenvalues --  -20.74083 -20.74006 -20.74006 -20.73930  -1.74580
 Alpha  occ. eigenvalues --   -1.74504  -1.17127  -1.17049  -0.83860  -0.83860
 Alpha  occ. eigenvalues --   -0.83784  -0.83781  -0.78211  -0.78130  -0.51059
 Alpha  occ. eigenvalues --   -0.51056  -0.50980  -0.50974
 Alpha virt. eigenvalues --    0.41066   0.41551   0.67126   0.67868   0.67962
 Alpha virt. eigenvalues --    0.68099   0.72062   0.72631   0.77787   0.78149
 Alpha virt. eigenvalues --    0.79466   0.79669   0.79863   0.80528   0.86998

 Mulliken charges and spin densities:
               1          2
     1  O   -0.000139   0.999859
     2  O    0.000196   1.000135
     3  O   -0.000555   0.999474
     4  O    0.000497   1.000532
 Sum of Mulliken charges =  -0.00000   4.00000

 Dipole moment (field-independent basis, Debye):
    X=              0.0014    Y=              0.0043    Z=              0.0000  Tot=              0.0046
 Quadrupole moment (field-independent basis, Debye-Ang):
   XX=            -20.2387   YY=            -20.2251   ZZ=            -19.6382
   XY=             -0.0007   XZ=              0.0000   YZ=              0.0000

 66\MP4SDQ=-300.2209427\CCSD=-300.2144722\CCSD(T)=-300.2497425\RMSD=2.1
 Normal termination of Gaussian 16 at Tue Feb 13 19:16:13 2024.
