 Gaussian 16, Revision A.03,
 Gaussian 16:  ES64L-G16RevA.03 25-Dec-2016

 --------------------
 #p ROCCSD(T)/cc-pVTZ
 --------------------

 ---------
 O2_O2_136
 ---------
 Symbolic Z-matrix:
 Charge =  0 Multiplicity = 5

                         Standard orientation:
 ---------------------------------------------------------------------
 Center     Atomic      Atomic             Coordinates (Angstroms)
 Number     Number       Type             X           Y           Z
 ---------------------------------------------------------------------
      1          8           0        0.615183   -2.305183    0.000000
      2          8           0       -0.205061   -1.484939    0.000000
      3          8           0       -0.205061    1.315061    0.000000
      4          8           0       -0.205061    2.475061    0.000000
 ---------------------------------------------------------------------

 SCF Done:  E(ROHF) =  -299.315501759     A.U. after   18 cycles
 E2 =    -0.9234677390D+00 EUMP2 =    -0.30023896949763D+03
 CCSD(T)
 CCSD(T)= -0.30024960070D+03

 The electronic state is 5-A'.
 Alpha  occ. eigenvalues --  -20.73961 -20.73905 -20.73885 -20.73812  -1.74504
 Alpha  occ. eigenvalues --   -1.74406  -1.17410  -1.16634  -0.83839  -0.83828
 Alpha  occ. eigenvalues --   -0.83687  -0.83637  -0.78796  -0.77331  -0.51181
 Alpha  occ. eigenvalues --   -0.51064  -0.50770  -0.50670
 Alpha virt. eigenvalues --    0.39009   0.45706   0.64628   0.65533   0.66574
 Alpha virt. eigenvalues --    0.69399   0.70461   0.74753   0.76251   0.77365
 Alpha virt. eigenvalues --    0.78281   0.83705   0.85731   0.85747   0.87200

 Mulliken charges and spin densities:
               1          2
     1  O   -0.002424   0.996890
     2  O    0.002590   1.003091
     3  O    0.001764   1.000307
     4  O   -0.001930   0.999712
 Sum of Mulliken charges =  -0.00000   4.00000

 Dipole moment (field-independent basis, Debye):
    X=             -0.0137    Y=              0.0092    Z=              0.0000  Tot=              0.0165
 Quadrupole moment (field-independent basis, Debye-Ang):
   XX=            -19.9462   YY=            -20.6628   ZZ=            -19.6386
   XY=              0.3225   XZ=              0.0000   YZ=              0.0000

 Normal termination of Gaussian 16 at Tue Feb 13 16:07:07 2024.
