 Gaussian 16, Revision A.03,
 Gaussian 16:  ES64L-G16RevA.03 25-Dec-2016

 --------------------
 #p ROCCSD(T)/cc-pVTZ
 --------------------

 ---------
 O2_O2_144
 ---------
 Symbolic Z-matrix:
 Charge =  0 Multiplicity = 5

                         Standard orientation:
 ---------------------------------------------------------------------
 Center     Atomic      Atomic             Coordinates (Angstroms)
 Number     Number       Type             X           Y           Z
 ---------------------------------------------------------------------
      1          8           0        0.000000    0.000000    2.620000
      2          8           0        0.000000    0.000000    1.460000
      3          8           0        0.000000    0.000000   -1.460000
      4          8           0        0.000000    0.000000   -2.620000
 ---------------------------------------------------------------------

 SCF Done:  E(ROHF) =  -299.316024719     A.U. after   12 cycles
 E2 =    -0.9232346934D+00 EUMP2 =    -0.30023925941211D+03
 CCSD(T)
 CCSD(T)= -0.30024990876D+03

 The electronic state is 5-SGG.
 Alpha  occ. eigenvalues --  -20.73940 -20.73940 -20.73861 -20.73861  -1.74474
 Alpha  occ. eigenvalues --   -1.74434  -1.17310  -1.16703  -0.83794  -0.83794
 Alpha  occ. eigenvalues --   -0.83670  -0.83670  -0.78765  -0.77383  -0.51131
 Alpha  occ. eigenvalues --   -0.51131  -0.50717  -0.50717
 Alpha virt. eigenvalues --    0.37480   0.47787   0.65634   0.66051   0.66051
 Alpha virt. eigenvalues --    0.69153   0.69153   0.75541   0.76232   0.76232
 Alpha virt. eigenvalues --    0.78917   0.85259   0.85259   0.86135   0.87013

 Mulliken charges and spin densities:
               1          2
     1  O   -0.003050   0.998707
     2  O    0.003050   1.001293
     3  O    0.003050   1.001293
     4  O   -0.003050   0.998707
 Sum of Mulliken charges =  -0.00000   4.00000

 Dipole moment (field-independent basis, Debye):
    X=             -0.0000    Y=              0.0000    Z=              0.0000  Tot=              0.0000
 Quadrupole moment (field-independent basis, Debye-Ang):
   XX=            -19.6387   YY=            -19.6387   ZZ=            -20.9500
   XY=              0.0000   XZ=              0.0000   YZ=              0.0000

 92594\MP4SDQ=-300.221076\CCSD=-300.2145366\CCSD(T)=-300.2499088\RMSD=9
 Normal termination of Gaussian 16 at Tue Feb 13 16:19:20 2024.
