 Gaussian 16, Revision A.03,
 Gaussian 16:  ES64L-G16RevA.03 25-Dec-2016

 --------------------
 #p ROCCSD(T)/cc-pVTZ
 --------------------

 --------
 O2_O2_91
 --------
 Symbolic Z-matrix:
 Charge =  0 Multiplicity = 5

                         Standard orientation:
 ---------------------------------------------------------------------
 Center     Atomic      Atomic             Coordinates (Angstroms)
 Number     Number       Type             X           Y           Z
 ---------------------------------------------------------------------
      1          8           0        0.615183   -2.005183    0.000000
      2          8           0       -0.205061   -1.184939    0.000000
      3          8           0       -0.205061    1.015061   -0.000000
      4          8           0       -0.205061    2.175061   -0.000000
 ---------------------------------------------------------------------

 SCF Done:  E(ROHF) =  -299.302481673     A.U. after   22 cycles
 E2 =    -0.9255385173D+00 EUMP2 =    -0.30022802019078D+03
 CCSD(T)
 CCSD(T)= -0.30023872669D+03

 The electronic state is 5-A'.
 Alpha  occ. eigenvalues --  -20.73879 -20.73537 -20.73446 -20.73315  -1.74602
 Alpha  occ. eigenvalues --   -1.74068  -1.18959  -1.15367  -0.84343  -0.84036
 Alpha  occ. eigenvalues --   -0.83589  -0.83171  -0.80085  -0.75172  -0.51737
 Alpha  occ. eigenvalues --   -0.51255  -0.50100  -0.49842
 Alpha virt. eigenvalues --    0.42050   0.46927   0.63949   0.64010   0.70196
 Alpha virt. eigenvalues --    0.70225   0.72043   0.75147   0.76149   0.78387
 Alpha virt. eigenvalues --    0.79783   0.85991   0.88781   0.90573   0.91316

 Mulliken charges and spin densities:
               1          2
     1  O   -0.012145   0.987673
     2  O    0.011023   1.011834
     3  O    0.015319   0.992628
     4  O   -0.014197   1.007865
 Sum of Mulliken charges =   0.00000   4.00000

 Dipole moment (field-independent basis, Debye):
    X=             -0.0479    Y=              0.0812    Z=              0.0000  Tot=              0.0943
 Quadrupole moment (field-independent basis, Debye-Ang):
   XX=            -19.9792   YY=            -20.9258   ZZ=            -19.6296
   XY=              0.3796   XZ=              0.0000   YZ=             -0.0000

 817\PMP2-0=-300.2280202\MP4SDQ=-300.2095447\CCSD=-300.2030195\CCSD(T)=
 Normal termination of Gaussian 16 at Tue Feb 13 14:53:16 2024.
