 Gaussian 16, Revision A.03,
 Gaussian 16:  ES64L-G16RevA.03 25-Dec-2016

 --------------------
 #p ROCCSD(T)/cc-pVTZ
 --------------------

 --------
 O2_O2_70
 --------
 Symbolic Z-matrix:
 Charge =  0 Multiplicity = 5

                         Standard orientation:
 ---------------------------------------------------------------------
 Center     Atomic      Atomic             Coordinates (Angstroms)
 Number     Number       Type             X           Y           Z
 ---------------------------------------------------------------------
      1          8           0        0.615183   -1.865183   -0.000000
      2          8           0       -0.205061   -1.044939   -0.000000
      3          8           0       -0.205061    0.875061    0.000000
      4          8           0       -0.205061    2.035061    0.000000
 ---------------------------------------------------------------------

 SCF Done:  E(ROHF) =  -299.273862961     A.U. after   21 cycles
 E2 =    -0.9261440442D+00 EUMP2 =    -0.30020000700534D+03
 CCSD(T)
 CCSD(T)= -0.30021272065D+03

 The electronic state is 5-A'.
 Alpha  occ. eigenvalues --  -20.73942 -20.73079 -20.72784 -20.72533  -1.74923
 Alpha  occ. eigenvalues --   -1.73664  -1.21318  -1.13926  -0.85540  -0.84445
 Alpha  occ. eigenvalues --   -0.83835  -0.82650  -0.80498  -0.72573  -0.52470
 Alpha  occ. eigenvalues --   -0.51506  -0.49123  -0.48915
 Alpha virt. eigenvalues --    0.43279   0.47567   0.64022   0.64337   0.70565
 Alpha virt. eigenvalues --    0.71065   0.72361   0.75236   0.77155   0.78029
 Alpha virt. eigenvalues --    0.79238   0.85569   0.92242   0.93613   0.95679

 Mulliken charges and spin densities:
               1          2
     1  O   -0.026951   0.973919
     2  O    0.021622   1.020788
     3  O    0.018839   0.980613
     4  O   -0.013511   1.024680
 Sum of Mulliken charges =  -0.00000   4.00000

 Dipole moment (field-independent basis, Debye):
    X=             -0.0941    Y=              0.2025    Z=              0.0000  Tot=              0.2233
 Quadrupole moment (field-independent basis, Debye-Ang):
   XX=            -20.0239   YY=            -21.1838   ZZ=            -19.5965
   XY=              0.4512   XZ=              0.0000   YZ=             -0.0000

 \PMP2-0=-300.200007\MP4SDQ=-300.1826829\CCSD=-300.1766721\CCSD(T)=-300
 Normal termination of Gaussian 16 at Tue Feb 13 14:15:30 2024.
