 Gaussian 16, Revision A.03,
 Gaussian 16:  ES64L-G16RevA.03 25-Dec-2016

 --------------------
 #p ROCCSD(T)/cc-pVTZ
 --------------------

 ---------
 O2_O2_226
 ---------
 Symbolic Z-matrix:
 Charge =  0 Multiplicity = 5

                         Standard orientation:
 ---------------------------------------------------------------------
 Center     Atomic      Atomic             Coordinates (Angstroms)
 Number     Number       Type             X           Y           Z
 ---------------------------------------------------------------------
      1          8           0        0.615183   -2.905183   -0.000000
      2          8           0       -0.205061   -2.084939   -0.000000
      3          8           0       -0.205061    1.915061    0.000000
      4          8           0       -0.205061    3.075061    0.000000
 ---------------------------------------------------------------------

 SCF Done:  E(ROHF) =  -299.316624115     A.U. after   13 cycles
 E2 =    -0.9224221477D+00 EUMP2 =    -0.30023904626267D+03
 CCSD(T)
 CCSD(T)= -0.30024979800D+03

 The electronic state is 5-A'.
 Alpha  occ. eigenvalues --  -20.74029 -20.74012 -20.73952 -20.73934  -1.74529
 Alpha  occ. eigenvalues --   -1.74508  -1.17080  -1.17042  -0.83809  -0.83809
 Alpha  occ. eigenvalues --   -0.83788  -0.83785  -0.78192  -0.78090  -0.51012
 Alpha  occ. eigenvalues --   -0.51006  -0.50976  -0.50974
 Alpha virt. eigenvalues --    0.38704   0.43585   0.66970   0.67828   0.67979
 Alpha virt. eigenvalues --    0.68173   0.69834   0.73720   0.76665   0.78513
 Alpha virt. eigenvalues --    0.79255   0.79972   0.80348   0.83515   0.87048

 Mulliken charges and spin densities:
               1          2
     1  O   -0.000389   0.999391
     2  O    0.000490   1.000544
     3  O    0.000058   1.000487
     4  O   -0.000159   0.999578
 Sum of Mulliken charges =  -0.00000   4.00000

 Dipole moment (field-independent basis, Debye):
    X=             -0.0030    Y=             -0.0013    Z=              0.0000  Tot=              0.0032
 Quadrupole moment (field-independent basis, Debye-Ang):
   XX=            -19.9390   YY=            -20.5643   ZZ=            -19.6384
   XY=              0.3047   XZ=              0.0000   YZ=             -0.0000

 Normal termination of Gaussian 16 at Tue Feb 13 18:28:01 2024.
