 Gaussian 16, Revision A.03,
 Gaussian 16:  ES64L-G16RevA.03 25-Dec-2016

 --------------------
 #p ROCCSD(T)/cc-pVTZ
 --------------------

 ---------
 O2_O2_227
 ---------
 Symbolic Z-matrix:
 Charge =  0 Multiplicity = 5

                         Standard orientation:
 ---------------------------------------------------------------------
 Center     Atomic      Atomic             Coordinates (Angstroms)
 Number     Number       Type             X           Y           Z
 ---------------------------------------------------------------------
      1          8           0       -0.870000   -2.290000    0.000000
      2          8           0        0.290000   -2.290000    0.000000
      3          8           0        0.290000    1.710000    0.000000
      4          8           0        0.290000    2.870000    0.000000
 ---------------------------------------------------------------------

 SCF Done:  E(ROHF) =  -299.316645694     A.U. after   16 cycles
 E2 =    -0.9224357938D+00 EUMP2 =    -0.30023908148733D+03
 CCSD(T)
 CCSD(T)= -0.30024983501D+03

 The electronic state is 5-A'.
 Alpha  occ. eigenvalues --  -20.74090 -20.74012 -20.74001 -20.73925  -1.74587
 Alpha  occ. eigenvalues --   -1.74497  -1.17134  -1.17042  -0.83867  -0.83867
 Alpha  occ. eigenvalues --   -0.83778  -0.83772  -0.78223  -0.78118  -0.51073
 Alpha  occ. eigenvalues --   -0.51064  -0.50974  -0.50959
 Alpha virt. eigenvalues --    0.40634   0.41615   0.65687   0.67712   0.67921
 Alpha virt. eigenvalues --    0.68241   0.72067   0.73550   0.77507   0.78221
 Alpha virt. eigenvalues --    0.79564   0.79571   0.79986   0.81575   0.86974

 Mulliken charges and spin densities:
               1          2
     1  O   -0.000142   0.999875
     2  O    0.000299   1.000110
     3  O   -0.000873   0.999340
     4  O    0.000716   1.000675
 Sum of Mulliken charges =   0.00000   4.00000

 Dipole moment (field-independent basis, Debye):
    X=              0.0016    Y=              0.0044    Z=              0.0000  Tot=              0.0047
 Quadrupole moment (field-independent basis, Debye-Ang):
   XX=            -20.2386   YY=            -20.2189   ZZ=            -19.6382
   XY=             -0.0002   XZ=              0.0000   YZ=              0.0000

 15\MP4SDQ=-300.221029\CCSD=-300.2145559\CCSD(T)=-300.249835\RMSD=2.480
 Normal termination of Gaussian 16 at Tue Feb 13 18:29:54 2024.
