 Gaussian 16, Revision A.03,
 Gaussian 16:  ES64L-G16RevA.03 25-Dec-2016

 --------------------
 #p ROCCSD(T)/cc-pVTZ
 --------------------

 ---------
 O2_O2_118
 ---------
 Symbolic Z-matrix:
 Charge =  0 Multiplicity = 5

                         Standard orientation:
 ---------------------------------------------------------------------
 Center     Atomic      Atomic             Coordinates (Angstroms)
 Number     Number       Type             X           Y           Z
 ---------------------------------------------------------------------
      1          8           0        0.615183   -2.185183    0.000000
      2          8           0       -0.205061   -1.364939    0.000000
      3          8           0       -0.205061    1.195061    0.000000
      4          8           0       -0.205061    2.355061    0.000000
 ---------------------------------------------------------------------

 SCF Done:  E(ROHF) =  -299.313456408     A.U. after   22 cycles
 E2 =    -0.9240774039D+00 EUMP2 =    -0.30023753381193D+03
 CCSD(T)
 CCSD(T)= -0.30024809547D+03

 The electronic state is 5-A'.
 Alpha  occ. eigenvalues --  -20.73920 -20.73821 -20.73804 -20.73704  -1.74512
 Alpha  occ. eigenvalues --   -1.74324  -1.17747  -1.16314  -0.83915  -0.83867
 Alpha  occ. eigenvalues --   -0.83634  -0.83519  -0.79206  -0.76785  -0.51316
 Alpha  occ. eigenvalues --   -0.51114  -0.50613  -0.50455
 Alpha virt. eigenvalues --    0.40348   0.46144   0.64540   0.64687   0.67788
 Alpha virt. eigenvalues --    0.69742   0.70964   0.74867   0.75909   0.77691
 Alpha virt. eigenvalues --    0.79432   0.84115   0.86225   0.87727   0.88027

 Mulliken charges and spin densities:
               1          2
     1  O   -0.004630   0.994906
     2  O    0.004801   1.005177
     3  O    0.005691   0.998969
     4  O   -0.005862   1.000948
 Sum of Mulliken charges =  -0.00000   4.00000

 Dipole moment (field-independent basis, Debye):
    X=             -0.0216    Y=              0.0243    Z=              0.0000  Tot=              0.0325
 Quadrupole moment (field-independent basis, Debye-Ang):
   XX=            -19.9541   YY=            -20.7330   ZZ=            -19.6382
   XY=              0.3359   XZ=             -0.0000   YZ=              0.0000

 Normal termination of Gaussian 16 at Tue Feb 13 15:38:27 2024.
