 Gaussian 16, Revision A.03,
 Gaussian 16:  ES64L-G16RevA.03 25-Dec-2016

 --------------------
 #p ROCCSD(T)/cc-pVTZ
 --------------------

 ---------
 O2_O2_170
 ---------
 Symbolic Z-matrix:
 Charge =  0 Multiplicity = 5

                         Standard orientation:
 ---------------------------------------------------------------------
 Center     Atomic      Atomic             Coordinates (Angstroms)
 Number     Number       Type             X           Y           Z
 ---------------------------------------------------------------------
      1          8           0       -0.870000   -1.910000    0.000000
      2          8           0        0.290000   -1.910000    0.000000
      3          8           0        0.290000    1.330000    0.000000
      4          8           0        0.290000    2.490000    0.000000
 ---------------------------------------------------------------------

 SCF Done:  E(ROHF) =  -299.316573421     A.U. after   16 cycles
 E2 =    -0.9229366224D+00 EUMP2 =    -0.30023951004319D+03
 CCSD(T)
 CCSD(T)= -0.30025021996D+03

 The electronic state is 5-A'.
 Alpha  occ. eigenvalues --  -20.74117 -20.74032 -20.73968 -20.73888  -1.74614
 Alpha  occ. eigenvalues --   -1.74457  -1.17185  -1.16990  -0.83908  -0.83904
 Alpha  occ. eigenvalues --   -0.83752  -0.83730  -0.78327  -0.77983  -0.51199
 Alpha  occ. eigenvalues --   -0.51100  -0.50929  -0.50823
 Alpha virt. eigenvalues --    0.39291   0.41851   0.62111   0.66420   0.67126
 Alpha virt. eigenvalues --    0.69126   0.71998   0.74414   0.76568   0.78313
 Alpha virt. eigenvalues --    0.79059   0.79884   0.81053   0.85980   0.86880

 Mulliken charges and spin densities:
               1          2
     1  O   -0.000442   0.999221
     2  O    0.000838   1.000762
     3  O   -0.002681   0.998581
     4  O    0.002286   1.001435
 Sum of Mulliken charges =  -0.00000   4.00000

 Dipole moment (field-independent basis, Debye):
    X=              0.0063    Y=              0.0109    Z=              0.0000  Tot=              0.0126
 Quadrupole moment (field-independent basis, Debye-Ang):
   XX=            -20.2405   YY=            -20.2240   ZZ=            -19.6382
   XY=             -0.0037   XZ=              0.0000   YZ=              0.0000

 MP4SDQ=-300.2213604\CCSD=-300.2148752\CCSD(T)=-300.25022\RMSD=2.361e-0
 Normal termination of Gaussian 16 at Tue Feb 13 16:59:02 2024.
