 Gaussian 16, Revision A.03,
 Gaussian 16:  ES64L-G16RevA.03 25-Dec-2016

 --------------------
 #p ROCCSD(T)/cc-pVTZ
 --------------------

 --------
 O2_O2_20
 --------
 Symbolic Z-matrix:
 Charge =  0 Multiplicity = 5

                         Standard orientation:
 ---------------------------------------------------------------------
 Center     Atomic      Atomic             Coordinates (Angstroms)
 Number     Number       Type             X           Y           Z
 ---------------------------------------------------------------------
      1          8           0       -0.870000   -0.910000    0.000000
      2          8           0        0.290000   -0.910000    0.000000
      3          8           0        0.290000    0.330000    0.000000
      4          8           0        0.290000    1.490000    0.000000
 ---------------------------------------------------------------------

 SCF Done:  E(ROHF) =  -298.864344129     A.U. after   21 cycles
 E2 =    -0.9215991322D+00 EUMP2 =    -0.29978594326082D+03
 CCSD(T)
 CCSD(T)= -0.29980848568D+03

 The electronic state is 5-A'.
 Alpha  occ. eigenvalues --  -20.79610 -20.72461 -20.71910 -20.66494  -1.92073
 Alpha  occ. eigenvalues --   -1.73142  -1.38563  -1.11391  -0.95832  -0.95559
 Alpha  occ. eigenvalues --   -0.89684  -0.79677  -0.75839  -0.59382  -0.57562
 Alpha  occ. eigenvalues --   -0.50779  -0.46186  -0.33958
 Alpha virt. eigenvalues --    0.40491   0.46604   0.59689   0.63553   0.67508
 Alpha virt. eigenvalues --    0.69430   0.71221   0.73177   0.78559   0.79512
 Alpha virt. eigenvalues --    0.84827   0.85916   0.86829   0.98231   1.02515

 Mulliken charges and spin densities:
               1          2
     1  O   -0.153040   0.834925
     2  O    0.055546   0.741795
     3  O    0.157588   1.258602
     4  O   -0.060094   1.164678
 Sum of Mulliken charges =  -0.00000   4.00000

 Dipole moment (field-independent basis, Debye):
    X=              0.7664    Y=              0.4137    Z=              0.0000  Tot=              0.8709
 Quadrupole moment (field-independent basis, Debye-Ang):
   XX=            -20.6899   YY=            -22.6638   ZZ=            -19.0202
   XY=             -0.5652   XZ=              0.0000   YZ=              0.0000

 3\MP4SDQ=-299.7739714\CCSD=-299.7710854\CCSD(T)=-299.8084857\RMSD=2.18
 Normal termination of Gaussian 16 at Tue Feb 13 12:35:52 2024.
