 Gaussian 16, Revision A.03,
 Gaussian 16:  ES64L-G16RevA.03 25-Dec-2016

 --------------------
 #p ROCCSD(T)/cc-pVTZ
 --------------------

 ---------
 O2_O2_288
 ---------
 Symbolic Z-matrix:
 Charge =  0 Multiplicity = 5

                         Standard orientation:
 ---------------------------------------------------------------------
 Center     Atomic      Atomic             Coordinates (Angstroms)
 Number     Number       Type             X           Y           Z
 ---------------------------------------------------------------------
      1          8           0        0.000000    0.000000    3.580000
      2          8           0        0.000000    0.000000    2.420000
      3          8           0        0.000000    0.000000   -2.420000
      4          8           0        0.000000    0.000000   -3.580000
 ---------------------------------------------------------------------

 SCF Done:  E(ROHF) =  -299.316588566     A.U. after   11 cycles
 E2 =    -0.9223020929D+00 EUMP2 =    -0.30023889065898D+03
 CCSD(T)
 CCSD(T)= -0.30024966296D+03

 The electronic state is 5-SGG.
 Alpha  occ. eigenvalues --  -20.74021 -20.74021 -20.73945 -20.73945  -1.74521
 Alpha  occ. eigenvalues --   -1.74521  -1.17066  -1.17063  -0.83801  -0.83801
 Alpha  occ. eigenvalues --   -0.83800  -0.83800  -0.78152  -0.78137  -0.50997
 Alpha  occ. eigenvalues --   -0.50997  -0.50994  -0.50994
 Alpha virt. eigenvalues --    0.40659   0.42167   0.67991   0.67991   0.68019
 Alpha virt. eigenvalues --    0.68019   0.71539   0.72519   0.77551   0.78565
 Alpha virt. eigenvalues --    0.79739   0.79739   0.79838   0.79838   0.87063

 Mulliken charges and spin densities:
               1          2
     1  O   -0.000397   0.999556
     2  O    0.000397   1.000444
     3  O    0.000397   1.000444
     4  O   -0.000397   0.999556
 Sum of Mulliken charges =  -0.00000   4.00000

 Dipole moment (field-independent basis, Debye):
    X=             -0.0000    Y=             -0.0000    Z=             -0.0000  Tot=              0.0000
 Quadrupole moment (field-independent basis, Debye-Ang):
   XX=            -19.6382   YY=            -19.6382   ZZ=            -20.8724
   XY=              0.0000   XZ=              0.0000   YZ=              0.0000

 907\MP4SDQ=-300.2208716\CCSD=-300.2143981\CCSD(T)=-300.249663\RMSD=5.1
 Normal termination of Gaussian 16 at Tue Feb 13 20:28:29 2024.
