 Gaussian 16, Revision A.03,
 Gaussian 16:  ES64L-G16RevA.03 25-Dec-2016

 --------------------
 #p ROCCSD(T)/cc-pVTZ
 --------------------

 ---------
 O2_O2_167
 ---------
 Symbolic Z-matrix:
 Charge =  0 Multiplicity = 5

                         Standard orientation:
 ---------------------------------------------------------------------
 Center     Atomic      Atomic             Coordinates (Angstroms)
 Number     Number       Type             X           Y           Z
 ---------------------------------------------------------------------
      1          8           0       -0.870000   -1.890000    0.000000
      2          8           0        0.290000   -1.890000    0.000000
      3          8           0        0.290000    1.310000    0.000000
      4          8           0        0.290000    2.470000    0.000000
 ---------------------------------------------------------------------

 SCF Done:  E(ROHF) =  -299.316539886     A.U. after   16 cycles
 E2 =    -0.9229836165D+00 EUMP2 =    -0.30023952350236D+03
 CCSD(T)
 CCSD(T)= -0.30025023079D+03

 The electronic state is 5-A'.
 Alpha  occ. eigenvalues --  -20.74119 -20.74033 -20.73964 -20.73883  -1.74616
 Alpha  occ. eigenvalues --   -1.74453  -1.17191  -1.16983  -0.83913  -0.83907
 Alpha  occ. eigenvalues --   -0.83751  -0.83724  -0.78337  -0.77966  -0.51213
 Alpha  occ. eigenvalues --   -0.51103  -0.50924  -0.50808
 Alpha virt. eigenvalues --    0.39311   0.41877   0.62069   0.66297   0.67036
 Alpha virt. eigenvalues --    0.69193   0.71988   0.74346   0.76600   0.78329
 Alpha virt. eigenvalues --    0.79032   0.79749   0.81163   0.86321   0.86883

 Mulliken charges and spin densities:
               1          2
     1  O   -0.000483   0.999111
     2  O    0.000871   1.000876
     3  O   -0.002753   0.998501
     4  O    0.002365   1.001512
 Sum of Mulliken charges =  -0.00000   4.00000

 Dipole moment (field-independent basis, Debye):
    X=              0.0069    Y=              0.0120    Z=              0.0000  Tot=              0.0138
 Quadrupole moment (field-independent basis, Debye-Ang):
   XX=            -20.2408   YY=            -20.2267   ZZ=            -19.6382
   XY=             -0.0044   XZ=              0.0000   YZ=              0.0000

 235\MP4SDQ=-300.2213653\CCSD=-300.2148795\CCSD(T)=-300.2502308\RMSD=2.
 Normal termination of Gaussian 16 at Tue Feb 13 16:54:41 2024.
