 Gaussian 16, Revision A.03,
 Gaussian 16:  ES64L-G16RevA.03 25-Dec-2016

 --------------------
 #p ROCCSD(T)/cc-pVTZ
 --------------------

 --------
 O2_O2_24
 --------
 Symbolic Z-matrix:
 Charge =  0 Multiplicity = 5

                         Standard orientation:
 ---------------------------------------------------------------------
 Center     Atomic      Atomic             Coordinates (Angstroms)
 Number     Number       Type             X           Y           Z
 ---------------------------------------------------------------------
      1          8           0        0.000000    0.000000    1.820000
      2          8           0        0.000000    0.000000    0.660000
      3          8           0        0.000000    0.000000   -0.660000
      4          8           0        0.000000    0.000000   -1.820000
 ---------------------------------------------------------------------

 SCF Done:  E(ROHF) =  -298.895054266     A.U. after   14 cycles
 E2 =    -0.9272285376D+00 EUMP2 =    -0.29982228280377D+03
 CCSD(T)
 CCSD(T)= -0.29984977112D+03

 Unable to determine electronic state:  an orbital has unidentified symmetry.
 Alpha  occ. eigenvalues --  -20.76908 -20.76906 -20.70405 -20.70404  -1.82186
 Alpha  occ. eigenvalues --   -1.73508  -1.43872  -1.07122  -0.91538  -0.90689
 Alpha  occ. eigenvalues --   -0.89626  -0.81992  -0.79814  -0.58740  -0.54648
 Alpha  occ. eigenvalues --   -0.53523  -0.46127  -0.43681
 Alpha virt. eigenvalues --    0.43144   0.49380   0.62434   0.64155   0.64945
 Alpha virt. eigenvalues --    0.70634   0.70757   0.72940   0.80460   0.82105
 Alpha virt. eigenvalues --    0.83229   0.92606   0.97674   0.98241   1.06395

 Mulliken charges and spin densities:
               1          2
     1  O   -0.106671   0.945541
     2  O    0.106671   1.054459
     3  O    0.106671   1.054459
     4  O   -0.106671   0.945541
 Sum of Mulliken charges =   0.00000   4.00000

 Dipole moment (field-independent basis, Debye):
    X=             -0.0000    Y=             -0.0000    Z=             -0.0000  Tot=              0.0000
 Quadrupole moment (field-independent basis, Debye-Ang):
   XX=            -20.1392   YY=            -19.0407   ZZ=            -24.0218
   XY=              0.0000   XZ=              0.0000   YZ=              0.0000

 -299.8116083\CCSD=-299.8096112\CCSD(T)=-299.8497711\RMSD=2.278e-09\PG=
 Normal termination of Gaussian 16 at Tue Feb 13 12:43:26 2024.
