 Gaussian 16, Revision A.03,
 Gaussian 16:  ES64L-G16RevA.03 25-Dec-2016

 --------------------
 #p ROCCSD(T)/cc-pVTZ
 --------------------

 --------
 O2_O2_62
 --------
 Symbolic Z-matrix:
 Charge =  0 Multiplicity = 5

                         Standard orientation:
 ---------------------------------------------------------------------
 Center     Atomic      Atomic             Coordinates (Angstroms)
 Number     Number       Type             X           Y           Z
 ---------------------------------------------------------------------
      1          8           0       -0.870000   -1.190000    0.000000
      2          8           0        0.290000   -1.190000    0.000000
      3          8           0        0.290000    0.610000    0.000000
      4          8           0        0.290000    1.770000    0.000000
 ---------------------------------------------------------------------

 SCF Done:  E(ROHF) =  -299.240493533     A.U. after   23 cycles
 E2 =    -0.9163457693D+00 EUMP2 =    -0.30015683930212D+03
 CCSD(T)
 CCSD(T)= -0.30017991722D+03

 The electronic state is 5-A'.
 Alpha  occ. eigenvalues --  -20.74119 -20.73285 -20.73142 -20.70718  -1.76299
 Alpha  occ. eigenvalues --   -1.73318  -1.21518  -1.14869  -0.89016  -0.85525
 Alpha  occ. eigenvalues --   -0.84361  -0.82105  -0.77613  -0.71544  -0.53203
 Alpha  occ. eigenvalues --   -0.52340  -0.49259  -0.47721
 Alpha virt. eigenvalues --    0.41403   0.46419   0.64103   0.65819   0.67590
 Alpha virt. eigenvalues --    0.70762   0.71620   0.74591   0.77680   0.78930
 Alpha virt. eigenvalues --    0.79419   0.85789   0.87028   0.94380   0.98335

 Mulliken charges and spin densities:
               1          2
     1  O   -0.053415   0.919888
     2  O    0.046795   1.065725
     3  O    0.020579   0.985333
     4  O   -0.013959   1.029054
 Sum of Mulliken charges =  -0.00000   4.00000

 Dipole moment (field-independent basis, Debye):
    X=              0.3137    Y=              0.1828    Z=              0.0000  Tot=              0.3630
 Quadrupole moment (field-independent basis, Debye-Ang):
   XX=            -20.4430   YY=            -20.7902   ZZ=            -19.5391
   XY=             -0.3813   XZ=              0.0000   YZ=              0.0000

 93\MP4SDQ=-300.1464768\CCSD=-300.143725\CCSD(T)=-300.1799172\RMSD=3.90
 Normal termination of Gaussian 16 at Tue Feb 13 13:59:32 2024.
