 Gaussian 16, Revision A.03,
 Gaussian 16:  ES64L-G16RevA.03 25-Dec-2016

 --------------------
 #p ROCCSD(T)/cc-pVTZ
 --------------------

 --------
 O2_O2_29
 --------
 Symbolic Z-matrix:
 Charge =  0 Multiplicity = 5

                         Standard orientation:
 ---------------------------------------------------------------------
 Center     Atomic      Atomic             Coordinates (Angstroms)
 Number     Number       Type             X           Y           Z
 ---------------------------------------------------------------------
      1          8           0       -0.870000   -0.970000    0.000000
      2          8           0        0.290000   -0.970000    0.000000
      3          8           0        0.290000    0.390000    0.000000
      4          8           0        0.290000    1.550000    0.000000
 ---------------------------------------------------------------------

 SCF Done:  E(ROHF) =  -298.994321245     A.U. after   20 cycles
 E2 =    -0.9127410302D+00 EUMP2 =    -0.29990706227477D+03
 CCSD(T)
 CCSD(T)= -0.29993377780D+03

 The electronic state is 5-A'.
 Alpha  occ. eigenvalues --  -20.77231 -20.73915 -20.71820 -20.66354  -1.85467
 Alpha  occ. eigenvalues --   -1.72881  -1.33724  -1.11990  -0.94102  -0.91878
 Alpha  occ. eigenvalues --   -0.88289  -0.80282  -0.75925  -0.60820  -0.56035
 Alpha  occ. eigenvalues --   -0.52919  -0.46970  -0.40721
 Alpha virt. eigenvalues --    0.41093   0.46398   0.60791   0.64173   0.67625
 Alpha virt. eigenvalues --    0.69748   0.72740   0.72902   0.79344   0.79388
 Alpha virt. eigenvalues --    0.82917   0.85783   0.87073   0.98426   1.01214

 Mulliken charges and spin densities:
               1          2
     1  O   -0.140471   0.827650
     2  O    0.058130   0.949569
     3  O    0.132256   1.151476
     4  O   -0.049915   1.071304
 Sum of Mulliken charges =  -0.00000   4.00000

 Dipole moment (field-independent basis, Debye):
    X=              0.7410    Y=              0.5892    Z=              0.0000  Tot=              0.9467
 Quadrupole moment (field-independent basis, Debye-Ang):
   XX=            -20.7385   YY=            -22.0419   ZZ=            -19.1907
   XY=             -0.5629   XZ=              0.0000   YZ=              0.0000

 623\MP4SDQ=-299.8993376\CCSD=-299.8969774\CCSD(T)=-299.9337778\RMSD=8.
 Normal termination of Gaussian 16 at Tue Feb 13 12:54:07 2024.
