 Gaussian 16, Revision A.03,
 Gaussian 16:  ES64L-G16RevA.03 25-Dec-2016

 --------------------
 #p ROCCSD(T)/cc-pVTZ
 --------------------

 ---------
 O2_O2_205
 ---------
 Symbolic Z-matrix:
 Charge =  0 Multiplicity = 5

                         Standard orientation:
 ---------------------------------------------------------------------
 Center     Atomic      Atomic             Coordinates (Angstroms)
 Number     Number       Type             X           Y           Z
 ---------------------------------------------------------------------
      1          8           0        0.615183   -2.765183    0.000000
      2          8           0       -0.205061   -1.944939    0.000000
      3          8           0       -0.205061    1.775061   -0.000000
      4          8           0       -0.205061    2.935061   -0.000000
 ---------------------------------------------------------------------

 SCF Done:  E(ROHF) =  -299.316629044     A.U. after   17 cycles
 E2 =    -0.9225251959D+00 EUMP2 =    -0.30023915424014D+03
 CCSD(T)
 CCSD(T)= -0.30024989150D+03

 The electronic state is 5-A'.
 Alpha  occ. eigenvalues --  -20.74024 -20.74008 -20.73947 -20.73929  -1.74524
 Alpha  occ. eigenvalues --   -1.74503  -1.17091  -1.17019  -0.83806  -0.83805
 Alpha  occ. eigenvalues --   -0.83780  -0.83778  -0.78230  -0.78038  -0.51021
 Alpha  occ. eigenvalues --   -0.51007  -0.50962  -0.50954
 Alpha virt. eigenvalues --    0.37675   0.44264   0.65630   0.67641   0.67889
 Alpha virt. eigenvalues --    0.68329   0.69528   0.74199   0.76608   0.78236
 Alpha virt. eigenvalues --    0.78788   0.80344   0.80888   0.85745   0.87042

 Mulliken charges and spin densities:
               1          2
     1  O   -0.000306   0.999240
     2  O    0.000495   1.000636
     3  O   -0.000271   1.000645
     4  O    0.000082   0.999478
 Sum of Mulliken charges =  -0.00000   4.00000

 Dipole moment (field-independent basis, Debye):
    X=             -0.0037    Y=             -0.0025    Z=             -0.0000  Tot=              0.0045
 Quadrupole moment (field-independent basis, Debye-Ang):
   XX=            -19.9392   YY=            -20.5682   ZZ=            -19.6385
   XY=              0.3058   XZ=             -0.0000   YZ=              0.0000

 29\PMP2-0=-300.2391542\MP4SDQ=-300.2210871\CCSD=-300.2146017\CCSD(T)=-
 Normal termination of Gaussian 16 at Tue Feb 13 17:52:13 2024.
