 Gaussian 16, Revision A.03,
 Gaussian 16:  ES64L-G16RevA.03 25-Dec-2016

 --------------------
 #p ROCCSD(T)/cc-pVTZ
 --------------------

 ---------
 O2_O2_299
 ---------
 Symbolic Z-matrix:
 Charge =  0 Multiplicity = 5

                         Standard orientation:
 ---------------------------------------------------------------------
 Center     Atomic      Atomic             Coordinates (Angstroms)
 Number     Number       Type             X           Y           Z
 ---------------------------------------------------------------------
      1          8           0       -0.870000   -2.770000    0.000000
      2          8           0        0.290000   -2.770000    0.000000
      3          8           0        0.290000    2.190000    0.000000
      4          8           0        0.290000    3.350000    0.000000
 ---------------------------------------------------------------------

 SCF Done:  E(ROHF) =  -299.316596629     A.U. after   16 cycles
 E2 =    -0.9222923965D+00 EUMP2 =    -0.30023888902540D+03
 CCSD(T)
 CCSD(T)= -0.30024966648D+03

 The electronic state is 5-A'.
 Alpha  occ. eigenvalues --  -20.74072 -20.74016 -20.73996 -20.73940  -1.74571
 Alpha  occ. eigenvalues --   -1.74515  -1.17117  -1.17060  -0.83851  -0.83851
 Alpha  occ. eigenvalues --   -0.83795  -0.83794  -0.78199  -0.78142  -0.51046
 Alpha  occ. eigenvalues --   -0.51046  -0.50991  -0.50990
 Alpha virt. eigenvalues --    0.41339   0.41451   0.67943   0.67954   0.67991
 Alpha virt. eigenvalues --    0.68014   0.72022   0.72065   0.77936   0.78025
 Alpha virt. eigenvalues --    0.79684   0.79734   0.79793   0.79869   0.87016

 Mulliken charges and spin densities:
               1          2
     1  O   -0.000116   0.999875
     2  O    0.000119   1.000124
     3  O   -0.000309   0.999661
     4  O    0.000305   1.000340
 Sum of Mulliken charges =  -0.00000   4.00000

 Dipole moment (field-independent basis, Debye):
    X=              0.0010    Y=              0.0033    Z=              0.0000  Tot=              0.0035
 Quadrupole moment (field-independent basis, Debye-Ang):
   XX=            -20.2386   YY=            -20.2311   ZZ=            -19.6381
   XY=             -0.0010   XZ=              0.0000   YZ=              0.0000

 89\MP4SDQ=-300.2208715\CCSD=-300.2144027\CCSD(T)=-300.2496665\RMSD=2.1
 Normal termination of Gaussian 16 at Tue Feb 13 20:49:45 2024.
