 Gaussian 16, Revision A.03,
 Gaussian 16:  ES64L-G16RevA.03 25-Dec-2016

 --------------------
 #p ROCCSD(T)/cc-pVTZ
 --------------------

 ---------
 O2_O2_142
 ---------
 Symbolic Z-matrix:
 Charge =  0 Multiplicity = 5

                         Standard orientation:
 ---------------------------------------------------------------------
 Center     Atomic      Atomic             Coordinates (Angstroms)
 Number     Number       Type             X           Y           Z
 ---------------------------------------------------------------------
      1          8           0        0.615183   -2.345183    0.000000
      2          8           0       -0.205061   -1.524939    0.000000
      3          8           0       -0.205061    1.355062   -0.000000
      4          8           0       -0.205061    2.515060   -0.000000
 ---------------------------------------------------------------------

 SCF Done:  E(ROHF) =  -299.315837688     A.U. after   18 cycles
 E2 =    -0.9233170341D+00 EUMP2 =    -0.30023915472201D+03
 CCSD(T)
 CCSD(T)= -0.30024980435D+03

 The electronic state is 5-A'.
 Alpha  occ. eigenvalues --  -20.73973 -20.73927 -20.73897 -20.73836  -1.74505
 Alpha  occ. eigenvalues --   -1.74425  -1.17340  -1.16707  -0.83827  -0.83821
 Alpha  occ. eigenvalues --   -0.83702  -0.83664  -0.78695  -0.77459  -0.51151
 Alpha  occ. eigenvalues --   -0.51053  -0.50805  -0.50721
 Alpha virt. eigenvalues --    0.38571   0.45586   0.64430   0.65820   0.66575
 Alpha virt. eigenvalues --    0.69284   0.70317   0.74738   0.76434   0.77304
 Alpha virt. eigenvalues --    0.78002   0.83426   0.85103   0.85691   0.87125

 Mulliken charges and spin densities:
               1          2
     1  O   -0.001931   0.997324
     2  O    0.002103   1.002617
     3  O    0.000949   1.000520
     4  O   -0.001121   0.999539
 Sum of Mulliken charges =  -0.00000   4.00000

 Dipole moment (field-independent basis, Debye):
    X=             -0.0119    Y=              0.0061    Z=             -0.0000  Tot=              0.0134
 Quadrupole moment (field-independent basis, Debye-Ang):
   XX=            -19.9446   YY=            -20.6458   ZZ=            -19.6386
   XY=              0.3194   XZ=             -0.0000   YZ=              0.0000

 Normal termination of Gaussian 16 at Tue Feb 13 16:16:21 2024.
