 Gaussian 16, Revision A.03,
 Gaussian 16:  ES64L-G16RevA.03 25-Dec-2016

 --------------------
 #p ROCCSD(T)/cc-pVTZ
 --------------------

 --------
 O2_O2_10
 --------
 Symbolic Z-matrix:
 Charge =  0 Multiplicity = 5

                         Standard orientation:
 ---------------------------------------------------------------------
 Center     Atomic      Atomic             Coordinates (Angstroms)
 Number     Number       Type             X           Y           Z
 ---------------------------------------------------------------------
      1          8           0        0.615183   -1.465183    0.000000
      2          8           0       -0.205061   -0.644939    0.000000
      3          8           0       -0.205061    0.475062    0.000000
      4          8           0       -0.205061    1.635060    0.000000
 ---------------------------------------------------------------------

 SCF Done:  E(ROHF) =  -298.747343851     A.U. after   21 cycles
 E2 =    -0.9161677426D+00 EUMP2 =    -0.29966351159366D+03
 CCSD(T)
 CCSD(T)= -0.29968800944D+03

 The electronic state is 5-A'.
 Alpha  occ. eigenvalues --  -20.78972 -20.73148 -20.70885 -20.66819  -1.92934
 Alpha  occ. eigenvalues --   -1.73439  -1.50973  -1.06247  -0.97850  -0.96183
 Alpha  occ. eigenvalues --   -0.91229  -0.79895  -0.76152  -0.61656  -0.57864
 Alpha  occ. eigenvalues --   -0.48446  -0.41222  -0.26560
 Alpha virt. eigenvalues --    0.44963   0.51856   0.62871   0.62908   0.64631
 Alpha virt. eigenvalues --    0.65401   0.71336   0.74912   0.78553   0.81724
 Alpha virt. eigenvalues --    0.82493   0.87913   0.92137   0.97388   1.10126

 Mulliken charges and spin densities:
               1          2
     1  O   -0.151760   0.853024
     2  O    0.040944   0.501568
     3  O    0.057391   1.134411
     4  O    0.053426   1.510997
 Sum of Mulliken charges =  -0.00000   4.00000

 Dipole moment (field-independent basis, Debye):
    X=             -0.2759    Y=              0.9574    Z=              0.0000  Tot=              0.9963
 Quadrupole moment (field-independent basis, Debye-Ang):
   XX=            -20.4706   YY=            -23.6635   ZZ=            -18.8386
   XY=              0.7211   XZ=             -0.0000   YZ=             -0.0000

 9\PMP2-0=-299.6635116\MP4SDQ=-299.6533035\CCSD=-299.6503178\CCSD(T)=-2
 Normal termination of Gaussian 16 at Tue Feb 13 12:15:10 2024.
