 Gaussian 16, Revision A.03,
 Gaussian 16:  ES64L-G16RevA.03 25-Dec-2016

 --------------------
 #p ROCCSD(T)/cc-pVTZ
 --------------------

 ---------
 O2_O2_287
 ---------
 Symbolic Z-matrix:
 Charge =  0 Multiplicity = 5

                         Standard orientation:
 ---------------------------------------------------------------------
 Center     Atomic      Atomic             Coordinates (Angstroms)
 Number     Number       Type             X           Y           Z
 ---------------------------------------------------------------------
      1          8           0       -0.870000   -2.690000    0.000000
      2          8           0        0.290000   -2.690000    0.000000
      3          8           0        0.290000    2.110000    0.000000
      4          8           0        0.290000    3.270000    0.000000
 ---------------------------------------------------------------------

 SCF Done:  E(ROHF) =  -299.316599186     A.U. after   16 cycles
 E2 =    -0.9223022972D+00 EUMP2 =    -0.30023890148319D+03
 CCSD(T)
 CCSD(T)= -0.30024967715D+03

 The electronic state is 5-A'.
 Alpha  occ. eigenvalues --  -20.74075 -20.74014 -20.73998 -20.73938  -1.74573
 Alpha  occ. eigenvalues --   -1.74512  -1.17119  -1.17058  -0.83853  -0.83853
 Alpha  occ. eigenvalues --   -0.83793  -0.83791  -0.78201  -0.78139  -0.51049
 Alpha  occ. eigenvalues --   -0.51049  -0.50988  -0.50987
 Alpha virt. eigenvalues --    0.41309   0.41468   0.67897   0.67946   0.67980
 Alpha virt. eigenvalues --    0.68023   0.72041   0.72088   0.77918   0.78042
 Alpha virt. eigenvalues --    0.79643   0.79728   0.79800   0.79937   0.87014

 Mulliken charges and spin densities:
               1          2
     1  O   -0.000127   0.999865
     2  O    0.000134   1.000135
     3  O   -0.000348   0.999622
     4  O    0.000341   1.000379
 Sum of Mulliken charges =  -0.00000   4.00000

 Dipole moment (field-independent basis, Debye):
    X=              0.0011    Y=              0.0036    Z=              0.0000  Tot=              0.0038
 Quadrupole moment (field-independent basis, Debye-Ang):
   XX=            -20.2386   YY=            -20.2302   ZZ=            -19.6381
   XY=             -0.0010   XZ=              0.0000   YZ=              0.0000

 015\MP4SDQ=-300.2208815\CCSD=-300.2144125\CCSD(T)=-300.2496771\RMSD=2.
 Normal termination of Gaussian 16 at Tue Feb 13 20:26:53 2024.
