 Gaussian 16, Revision A.03,
 Gaussian 16:  ES64L-G16RevA.03 25-Dec-2016

 --------------------
 #p ROCCSD(T)/cc-pVTZ
 --------------------

 ---------
 O2_O2_130
 ---------
 Symbolic Z-matrix:
 Charge =  0 Multiplicity = 5

                         Standard orientation:
 ---------------------------------------------------------------------
 Center     Atomic      Atomic             Coordinates (Angstroms)
 Number     Number       Type             X           Y           Z
 ---------------------------------------------------------------------
      1          8           0        0.615183   -2.265183   -0.000000
      2          8           0       -0.205061   -1.444939    0.000000
      3          8           0       -0.205061    1.275061    0.000000
      4          8           0       -0.205061    2.435061    0.000000
 ---------------------------------------------------------------------

 SCF Done:  E(ROHF) =  -299.315031705     A.U. after   16 cycles
 E2 =    -0.9236415982D+00 EUMP2 =    -0.30023867330308D+03
 CCSD(T)
 CCSD(T)= -0.30024928322D+03

 The electronic state is 5-A'.
 Alpha  occ. eigenvalues --  -20.73948 -20.73878 -20.73869 -20.73783  -1.74505
 Alpha  occ. eigenvalues --   -1.74384  -1.17499  -1.16545  -0.83857  -0.83838
 Alpha  occ. eigenvalues --   -0.83671  -0.83604  -0.78915  -0.77179  -0.51218
 Alpha  occ. eigenvalues --   -0.51078  -0.50727  -0.50610
 Alpha virt. eigenvalues --    0.39461   0.45839   0.64717   0.65241   0.66780
 Alpha virt. eigenvalues --    0.69514   0.70615   0.74777   0.76099   0.77453
 Alpha virt. eigenvalues --    0.78615   0.83882   0.85893   0.86384   0.87342

 Mulliken charges and spin densities:
               1          2
     1  O   -0.003020   0.996362
     2  O    0.003191   1.003660
     3  O    0.002804   0.999999
     4  O   -0.002975   0.999979
 Sum of Mulliken charges =  -0.00000   4.00000

 Dipole moment (field-independent basis, Debye):
    X=             -0.0159    Y=              0.0131    Z=             -0.0000  Tot=              0.0205
 Quadrupole moment (field-independent basis, Debye-Ang):
   XX=            -19.9483   YY=            -20.6826   ZZ=            -19.6386
   XY=              0.3261   XZ=             -0.0000   YZ=              0.0000

 17\PMP2-0=-300.2386733\MP4SDQ=-300.2203937\CCSD=-300.2138527\CCSD(T)=-
 Normal termination of Gaussian 16 at Tue Feb 13 15:56:51 2024.
