 Gaussian 16, Revision A.03,
 Gaussian 16:  ES64L-G16RevA.03 25-Dec-2016

 --------------------
 #p ROCCSD(T)/cc-pVTZ
 --------------------

 -------
 O2_O2_7
 -------
 Symbolic Z-matrix:
 Charge =  0 Multiplicity = 5

                         Standard orientation:
 ---------------------------------------------------------------------
 Center     Atomic      Atomic             Coordinates (Angstroms)
 Number     Number       Type             X           Y           Z
 ---------------------------------------------------------------------
      1          8           0        0.615183   -1.445183    0.000000
      2          8           0       -0.205061   -0.624939    0.000000
      3          8           0       -0.205061    0.455061   -0.000000
      4          8           0       -0.205061    1.615061   -0.000000
 ---------------------------------------------------------------------

 SCF Done:  E(ROHF) =  -298.691886850     A.U. after   20 cycles
 E2 =    -0.9095421507D+00 EUMP2 =    -0.29960142900096D+03
 CCSD(T)
 CCSD(T)= -0.29962893516D+03

 The electronic state is 5-A'.
 Alpha  occ. eigenvalues --  -20.78086 -20.72129 -20.72013 -20.67198  -1.95962
 Alpha  occ. eigenvalues --   -1.73601  -1.52803  -1.05885  -0.99601  -0.97511
 Alpha  occ. eigenvalues --   -0.91697  -0.79688  -0.75863  -0.62102  -0.57778
 Alpha  occ. eigenvalues --   -0.47339  -0.40190  -0.25269
 Alpha virt. eigenvalues --    0.45099   0.51768   0.62514   0.62634   0.64292
 Alpha virt. eigenvalues --    0.65613   0.71353   0.75040   0.78686   0.81567
 Alpha virt. eigenvalues --    0.82788   0.88990   0.92028   0.97517   1.13501

 Mulliken charges and spin densities:
               1          2
     1  O   -0.158315   0.834959
     2  O    0.073452   0.459281
     3  O    0.016741   1.112354
     4  O    0.068122   1.593406
 Sum of Mulliken charges =  -0.00000   4.00000

 Dipole moment (field-independent basis, Debye):
    X=             -0.2911    Y=              0.7013    Z=             -0.0000  Tot=              0.7593
 Quadrupole moment (field-independent basis, Debye-Ang):
   XX=            -20.4240   YY=            -23.9223   ZZ=            -18.7641
   XY=              0.7561   XZ=             -0.0000   YZ=              0.0000

 9\PMP2-0=-299.601429\MP4SDQ=-299.5939597\CCSD=-299.5916148\CCSD(T)=-29
 Normal termination of Gaussian 16 at Tue Feb 13 12:09:45 2024.
