 Gaussian 16, Revision A.03,
 Gaussian 16:  ES64L-G16RevA.03 25-Dec-2016

 --------------------
 #p ROCCSD(T)/cc-pVTZ
 --------------------

 ---------
 O2_O2_124
 ---------
 Symbolic Z-matrix:
 Charge =  0 Multiplicity = 5

                         Standard orientation:
 ---------------------------------------------------------------------
 Center     Atomic      Atomic             Coordinates (Angstroms)
 Number     Number       Type             X           Y           Z
 ---------------------------------------------------------------------
      1          8           0        0.615183   -2.225183    0.000000
      2          8           0       -0.205061   -1.404939    0.000000
      3          8           0       -0.205061    1.235061   -0.000000
      4          8           0       -0.205061    2.395061   -0.000000
 ---------------------------------------------------------------------

 SCF Done:  E(ROHF) =  -299.314374331     A.U. after   17 cycles
 E2 =    -0.9238432899D+00 EUMP2 =    -0.30023821762107D+03
 CCSD(T)
 CCSD(T)= -0.30024880376D+03

 The electronic state is 5-A'.
 Alpha  occ. eigenvalues --  -20.73934 -20.73849 -20.73845 -20.73748  -1.74507
 Alpha  occ. eigenvalues --   -1.74357  -1.17609  -1.16440  -0.83881  -0.83850
 Alpha  occ. eigenvalues --   -0.83653  -0.83565  -0.79051  -0.76999  -0.51263
 Alpha  occ. eigenvalues --   -0.51095  -0.50675  -0.50539
 Alpha virt. eigenvalues --    0.39911   0.45985   0.64671   0.64955   0.67209
 Alpha virt. eigenvalues --    0.69628   0.70782   0.74815   0.75984   0.77562
 Alpha virt. eigenvalues --    0.79006   0.83987   0.86077   0.87052   0.87605

 Mulliken charges and spin densities:
               1          2
     1  O   -0.003745   0.995712
     2  O    0.003923   1.004346
     3  O    0.004103   0.999568
     4  O   -0.004282   1.000374
 Sum of Mulliken charges =   0.00000   4.00000

 Dipole moment (field-independent basis, Debye):
    X=             -0.0184    Y=              0.0180    Z=             -0.0000  Tot=              0.0258
 Quadrupole moment (field-independent basis, Debye-Ang):
   XX=            -19.9509   YY=            -20.7058   ZZ=            -19.6385
   XY=              0.3305   XZ=             -0.0000   YZ=              0.0000

 Normal termination of Gaussian 16 at Tue Feb 13 15:47:31 2024.
