 Gaussian 16, Revision A.03,
 Gaussian 16:  ES64L-G16RevA.03 25-Dec-2016

 --------------------
 #p ROCCSD(T)/cc-pVTZ
 --------------------

 ---------
 O2_O2_278
 ---------
 Symbolic Z-matrix:
 Charge =  0 Multiplicity = 5

                         Standard orientation:
 ---------------------------------------------------------------------
 Center     Atomic      Atomic             Coordinates (Angstroms)
 Number     Number       Type             X           Y           Z
 ---------------------------------------------------------------------
      1          8           0       -0.870000   -2.630000    0.000000
      2          8           0        0.290000   -2.630000    0.000000
      3          8           0        0.290000    2.050000    0.000000
      4          8           0        0.290000    3.210000    0.000000
 ---------------------------------------------------------------------

 SCF Done:  E(ROHF) =  -299.316602146     A.U. after   16 cycles
 E2 =    -0.9223117554D+00 EUMP2 =    -0.30023891390125D+03
 CCSD(T)
 CCSD(T)= -0.30024968786D+03

 The electronic state is 5-A'.
 Alpha  occ. eigenvalues --  -20.74076 -20.74012 -20.74000 -20.73936  -1.74574
 Alpha  occ. eigenvalues --   -1.74510  -1.17121  -1.17056  -0.83854  -0.83854
 Alpha  occ. eigenvalues --   -0.83791  -0.83789  -0.78203  -0.78137  -0.51050
 Alpha  occ. eigenvalues --   -0.51050  -0.50986  -0.50984
 Alpha virt. eigenvalues --    0.41275   0.41485   0.67818   0.67936   0.67975
 Alpha virt. eigenvalues --    0.68032   0.72051   0.72141   0.77899   0.78060
 Alpha virt. eigenvalues --    0.79603   0.79720   0.79808   0.80018   0.87012

 Mulliken charges and spin densities:
               1          2
     1  O   -0.000133   0.999858
     2  O    0.000146   1.000140
     3  O   -0.000385   0.999589
     4  O    0.000372   1.000412
 Sum of Mulliken charges =  -0.00000   4.00000

 Dipole moment (field-independent basis, Debye):
    X=              0.0012    Y=              0.0039    Z=              0.0000  Tot=              0.0040
 Quadrupole moment (field-independent basis, Debye-Ang):
   XX=            -20.2386   YY=            -20.2293   ZZ=            -19.6381
   XY=             -0.0010   XZ=              0.0000   YZ=              0.0000

 9139\MP4SDQ=-300.2208915\CCSD=-300.2144223\CCSD(T)=-300.2496879\RMSD=2
 Normal termination of Gaussian 16 at Tue Feb 13 20:09:30 2024.
