 Gaussian 16, Revision A.03,
 Gaussian 16:  ES64L-G16RevA.03 25-Dec-2016

 --------------------
 #p ROCCSD(T)/cc-pVTZ
 --------------------

 ---------
 O2_O2_103
 ---------
 Symbolic Z-matrix:
 Charge =  0 Multiplicity = 5

                         Standard orientation:
 ---------------------------------------------------------------------
 Center     Atomic      Atomic             Coordinates (Angstroms)
 Number     Number       Type             X           Y           Z
 ---------------------------------------------------------------------
      1          8           0        0.615183   -2.085183   -0.000000
      2          8           0       -0.205061   -1.264939   -0.000000
      3          8           0       -0.205061    1.095061    0.000000
      4          8           0       -0.205061    2.255061    0.000000
 ---------------------------------------------------------------------

 SCF Done:  E(ROHF) =  -299.309280335     A.U. after   22 cycles
 E2 =    -0.9248234752D+00 EUMP2 =    -0.30023410381030D+03
 CCSD(T)
 CCSD(T)= -0.30024464139D+03

 The electronic state is 5-A'.
 Alpha  occ. eigenvalues --  -20.73890 -20.73701 -20.73649 -20.73538  -1.74542
 Alpha  occ. eigenvalues --   -1.74208  -1.18267  -1.15880  -0.84072  -0.83935
 Alpha  occ. eigenvalues --   -0.83592  -0.83359  -0.79672  -0.76051  -0.51505
 Alpha  occ. eigenvalues --   -0.51179  -0.50389  -0.50172
 Alpha virt. eigenvalues --    0.41340   0.46575   0.64149   0.64174   0.69317
 Alpha virt. eigenvalues --    0.70016   0.71520   0.75035   0.75916   0.78064
 Alpha virt. eigenvalues --    0.80115   0.85402   0.86497   0.89374   0.89656

 Mulliken charges and spin densities:
               1          2
     1  O   -0.007862   0.991849
     2  O    0.007709   1.008158
     3  O    0.010852   0.996376
     4  O   -0.010700   1.003616
 Sum of Mulliken charges =  -0.00000   4.00000

 Dipole moment (field-independent basis, Debye):
    X=             -0.0330    Y=              0.0483    Z=              0.0000  Tot=              0.0585
 Quadrupole moment (field-independent basis, Debye-Ang):
   XX=            -19.9654   YY=            -20.8235   ZZ=            -19.6357
   XY=              0.3551   XZ=              0.0000   YZ=             -0.0000

 Normal termination of Gaussian 16 at Tue Feb 13 15:15:45 2024.
