 Gaussian 16, Revision A.03,
 Gaussian 16:  ES64L-G16RevA.03 25-Dec-2016

 --------------------
 #p ROCCSD(T)/cc-pVTZ
 --------------------

 --------
 O2_O2_74
 --------
 Symbolic Z-matrix:
 Charge =  0 Multiplicity = 5

                         Standard orientation:
 ---------------------------------------------------------------------
 Center     Atomic      Atomic             Coordinates (Angstroms)
 Number     Number       Type             X           Y           Z
 ---------------------------------------------------------------------
      1          8           0       -0.870000   -1.270000    0.000000
      2          8           0        0.290000   -1.270000    0.000000
      3          8           0        0.290000    0.690000    0.000000
      4          8           0        0.290000    1.850000    0.000000
 ---------------------------------------------------------------------

 SCF Done:  E(ROHF) =  -299.274021124     A.U. after   23 cycles
 E2 =    -0.9211750795D+00 EUMP2 =    -0.30019519620359D+03
 CCSD(T)
 CCSD(T)= -0.30021258243D+03

 The electronic state is 5-A'.
 Alpha  occ. eigenvalues --  -20.74122 -20.73477 -20.73294 -20.71914  -1.75491
 Alpha  occ. eigenvalues --   -1.73638  -1.19743  -1.15537  -0.87359  -0.84860
 Alpha  occ. eigenvalues --   -0.84029  -0.82572  -0.77995  -0.73829  -0.52741
 Alpha  occ. eigenvalues --   -0.51852  -0.49779  -0.48662
 Alpha virt. eigenvalues --    0.41327   0.46041   0.63616   0.66896   0.67944
 Alpha virt. eigenvalues --    0.71135   0.71266   0.74065   0.76482   0.78067
 Alpha virt. eigenvalues --    0.79213   0.85636   0.86818   0.90709   0.97766

 Mulliken charges and spin densities:
               1          2
     1  O   -0.032943   0.948493
     2  O    0.029773   1.046741
     3  O    0.015628   0.984101
     4  O   -0.012458   1.020664
 Sum of Mulliken charges =  -0.00000   4.00000

 Dipole moment (field-independent basis, Debye):
    X=              0.2055    Y=              0.1271    Z=              0.0000  Tot=              0.2417
 Quadrupole moment (field-independent basis, Debye-Ang):
   XX=            -20.3654   YY=            -20.6337   ZZ=            -19.5883
   XY=             -0.2661   XZ=              0.0000   YZ=              0.0000

 962\MP4SDQ=-300.1810461\CCSD=-300.1765636\CCSD(T)=-300.2125824\RMSD=7.
 Normal termination of Gaussian 16 at Tue Feb 13 14:23:13 2024.
