 Gaussian 16, Revision A.03,
 Gaussian 16:  ES64L-G16RevA.03 25-Dec-2016

 --------------------
 #p ROCCSD(T)/cc-pVTZ
 --------------------

 ---------
 O2_O2_120
 ---------
 Symbolic Z-matrix:
 Charge =  0 Multiplicity = 5

                         Standard orientation:
 ---------------------------------------------------------------------
 Center     Atomic      Atomic             Coordinates (Angstroms)
 Number     Number       Type             X           Y           Z
 ---------------------------------------------------------------------
      1          8           0        0.000000    0.000000    2.460000
      2          8           0        0.000000    0.000000    1.300000
      3          8           0        0.000000    0.000000   -1.300000
      4          8           0        0.000000    0.000000   -2.460000
 ---------------------------------------------------------------------

 SCF Done:  E(ROHF) =  -299.314182791     A.U. after   12 cycles
 E2 =    -0.9239376408D+00 EUMP2 =    -0.30023812043178D+03
 CCSD(T)
 CCSD(T)= -0.30024865671D+03

 The electronic state is 5-SGG.
 Alpha  occ. eigenvalues --  -20.73854 -20.73854 -20.73772 -20.73771  -1.74459
 Alpha  occ. eigenvalues --   -1.74349  -1.17691  -1.16310  -0.83821  -0.83821
 Alpha  occ. eigenvalues --   -0.83540  -0.83540  -0.79405  -0.76649  -0.51287
 Alpha  occ. eigenvalues --   -0.51287  -0.50457  -0.50457
 Alpha virt. eigenvalues --    0.39982   0.48104   0.64938   0.64938   0.67792
 Alpha virt. eigenvalues --    0.69563   0.69563   0.75463   0.75463   0.75674
 Alpha virt. eigenvalues --    0.81057   0.85766   0.86962   0.88283   0.88283

 Mulliken charges and spin densities:
               1          2
     1  O   -0.009441   0.999105
     2  O    0.009441   1.000895
     3  O    0.009441   1.000895
     4  O   -0.009441   0.999105
 Sum of Mulliken charges =  -0.00000   4.00000

 Dipole moment (field-independent basis, Debye):
    X=             -0.0000    Y=             -0.0000    Z=              0.0000  Tot=              0.0000
 Quadrupole moment (field-independent basis, Debye-Ang):
   XX=            -19.6384   YY=            -19.6384   ZZ=            -21.0100
   XY=              0.0000   XZ=              0.0000   YZ=              0.0000

 1204\MP4SDQ=-300.2197917\CCSD=-300.2132014\CCSD(T)=-300.2486567\RMSD=8
 Normal termination of Gaussian 16 at Tue Feb 13 15:41:21 2024.
