 Gaussian 16, Revision A.03,
 Gaussian 16:  ES64L-G16RevA.03 25-Dec-2016

 --------------------
 #p ROCCSD(T)/cc-pVTZ
 --------------------

 ---------
 O2_O2_233
 ---------
 Symbolic Z-matrix:
 Charge =  0 Multiplicity = 5

                         Standard orientation:
 ---------------------------------------------------------------------
 Center     Atomic      Atomic             Coordinates (Angstroms)
 Number     Number       Type             X           Y           Z
 ---------------------------------------------------------------------
      1          8           0       -0.870000   -2.330000    0.000000
      2          8           0        0.290000   -2.330000    0.000000
      3          8           0        0.290000    1.750000    0.000000
      4          8           0        0.290000    2.910000    0.000000
 ---------------------------------------------------------------------

 SCF Done:  E(ROHF) =  -299.316638420     A.U. after   16 cycles
 E2 =    -0.9224114751D+00 EUMP2 =    -0.30023904989470D+03
 CCSD(T)
 CCSD(T)= -0.30024980702D+03

 The electronic state is 5-A'.
 Alpha  occ. eigenvalues --  -20.74088 -20.74011 -20.74003 -20.73926  -1.74585
 Alpha  occ. eigenvalues --   -1.74499  -1.17132  -1.17044  -0.83865  -0.83865
 Alpha  occ. eigenvalues --   -0.83780  -0.83774  -0.78219  -0.78122  -0.51069
 Alpha  occ. eigenvalues --   -0.51062  -0.50976  -0.50964
 Alpha virt. eigenvalues --    0.40771   0.41599   0.66116   0.67763   0.67937
 Alpha virt. eigenvalues --    0.68196   0.72066   0.73294   0.77606   0.78211
 Alpha virt. eigenvalues --    0.79499   0.79597   0.79946   0.81247   0.86981

 Mulliken charges and spin densities:
               1          2
     1  O   -0.000139   0.999873
     2  O    0.000265   1.000115
     3  O   -0.000770   0.999377
     4  O    0.000644   1.000635
 Sum of Mulliken charges =  -0.00000   4.00000

 Dipole moment (field-independent basis, Debye):
    X=              0.0016    Y=              0.0044    Z=              0.0000  Tot=              0.0046
 Quadrupole moment (field-independent basis, Debye-Ang):
   XX=            -20.2386   YY=            -20.2206   ZZ=            -19.6382
   XY=             -0.0003   XZ=              0.0000   YZ=              0.0000

 0499\MP4SDQ=-300.221003\CCSD=-300.2145308\CCSD(T)=-300.249807\RMSD=2.2
 Normal termination of Gaussian 16 at Tue Feb 13 18:40:34 2024.
