 Gaussian 16, Revision A.03,
 Gaussian 16:  ES64L-G16RevA.03 25-Dec-2016

 --------------------
 #p ROCCSD(T)/cc-pVTZ
 --------------------

 ---------
 O2_O2_217
 ---------
 Symbolic Z-matrix:
 Charge =  0 Multiplicity = 5

                         Standard orientation:
 ---------------------------------------------------------------------
 Center     Atomic      Atomic             Coordinates (Angstroms)
 Number     Number       Type             X           Y           Z
 ---------------------------------------------------------------------
      1          8           0        0.615183   -2.845183    0.000000
      2          8           0       -0.205061   -2.024939   -0.000000
      3          8           0       -0.205061    1.855061   -0.000000
      4          8           0       -0.205061    3.015061   -0.000000
 ---------------------------------------------------------------------

 SCF Done:  E(ROHF) =  -299.316628956     A.U. after   17 cycles
 E2 =    -0.9224606250D+00 EUMP2 =    -0.30023908958056D+03
 CCSD(T)
 CCSD(T)= -0.30024983555D+03

 The electronic state is 5-A'.
 Alpha  occ. eigenvalues --  -20.74027 -20.74010 -20.73950 -20.73932  -1.74527
 Alpha  occ. eigenvalues --   -1.74506  -1.17083  -1.17034  -0.83808  -0.83807
 Alpha  occ. eigenvalues --   -0.83785  -0.83782  -0.78205  -0.78071  -0.51015
 Alpha  occ. eigenvalues --   -0.51006  -0.50971  -0.50967
 Alpha virt. eigenvalues --    0.38244   0.43885   0.66441   0.67763   0.67954
 Alpha virt. eigenvalues --    0.68230   0.69645   0.73940   0.76609   0.78418
 Alpha virt. eigenvalues --    0.79082   0.80098   0.80543   0.84665   0.87045

 Mulliken charges and spin densities:
               1          2
     1  O   -0.000352   0.999341
     2  O    0.000489   1.000570
     3  O   -0.000059   1.000552
     4  O   -0.000077   0.999537
 Sum of Mulliken charges =   0.00000   4.00000

 Dipole moment (field-independent basis, Debye):
    X=             -0.0032    Y=             -0.0018    Z=             -0.0000  Tot=              0.0037
 Quadrupole moment (field-independent basis, Debye-Ang):
   XX=            -19.9391   YY=            -20.5654   ZZ=            -19.6384
   XY=              0.3051   XZ=             -0.0000   YZ=             -0.0000

 29\PMP2-0=-300.2390896\MP4SDQ=-300.2210352\CCSD=-300.2145534\CCSD(T)=-
 Normal termination of Gaussian 16 at Tue Feb 13 18:11:59 2024.
