 Gaussian 16, Revision A.03,
 Gaussian 16:  ES64L-G16RevA.03 25-Dec-2016

 --------------------
 #p ROCCSD(T)/cc-pVTZ
 --------------------

 ---------
 O2_O2_147
 ---------
 Symbolic Z-matrix:
 Charge =  0 Multiplicity = 5

                         Standard orientation:
 ---------------------------------------------------------------------
 Center     Atomic      Atomic             Coordinates (Angstroms)
 Number     Number       Type             X           Y           Z
 ---------------------------------------------------------------------
      1          8           0        0.000000    0.000000    2.640000
      2          8           0        0.000000    0.000000    1.480000
      3          8           0        0.000000    0.000000   -1.480000
      4          8           0        0.000000    0.000000   -2.640000
 ---------------------------------------------------------------------

 SCF Done:  E(ROHF) =  -299.316122660     A.U. after   12 cycles
 E2 =    -0.9231733139D+00 EUMP2 =    -0.30023929597398D+03
 CCSD(T)
 CCSD(T)= -0.30024995342D+03

 The electronic state is 5-SGG.
 Alpha  occ. eigenvalues --  -20.73947 -20.73947 -20.73868 -20.73868  -1.74476
 Alpha  occ. eigenvalues --   -1.74440  -1.17282  -1.16735  -0.83793  -0.83793
 Alpha  occ. eigenvalues --   -0.83680  -0.83680  -0.78711  -0.77445  -0.51119
 Alpha  occ. eigenvalues --   -0.51119  -0.50739  -0.50739
 Alpha virt. eigenvalues --    0.37202   0.47739   0.65471   0.66183   0.66183
 Alpha virt. eigenvalues --    0.69102   0.69102   0.75534   0.76359   0.76359
 Alpha virt. eigenvalues --    0.78731   0.84927   0.84927   0.86172   0.87018

 Mulliken charges and spin densities:
               1          2
     1  O   -0.002506   0.998714
     2  O    0.002506   1.001286
     3  O    0.002506   1.001286
     4  O   -0.002506   0.998714
 Sum of Mulliken charges =   0.00000   4.00000

 Dipole moment (field-independent basis, Debye):
    X=             -0.0000    Y=             -0.0000    Z=              0.0000  Tot=              0.0000
 Quadrupole moment (field-independent basis, Debye-Ang):
   XX=            -19.6387   YY=            -19.6387   ZZ=            -20.9449
   XY=              0.0000   XZ=              0.0000   YZ=              0.0000

 296\MP4SDQ=-300.2211237\CCSD=-300.2145886\CCSD(T)=-300.2499534\RMSD=9.
 Normal termination of Gaussian 16 at Tue Feb 13 16:23:59 2024.
