 Gaussian 16, Revision A.03,
 Gaussian 16:  ES64L-G16RevA.03 25-Dec-2016

 --------------------
 #p ROCCSD(T)/cc-pVTZ
 --------------------

 --------
 O2_O2_85
 --------
 Symbolic Z-matrix:
 Charge =  0 Multiplicity = 5

                         Standard orientation:
 ---------------------------------------------------------------------
 Center     Atomic      Atomic             Coordinates (Angstroms)
 Number     Number       Type             X           Y           Z
 ---------------------------------------------------------------------
      1          8           0        0.615183   -1.965183    0.000000
      2          8           0       -0.205061   -1.144939    0.000000
      3          8           0       -0.205061    0.975061   -0.000000
      4          8           0       -0.205061    2.135061   -0.000000
 ---------------------------------------------------------------------

 SCF Done:  E(ROHF) =  -299.297121751     A.U. after   22 cycles
 E2 =    -0.9258675616D+00 EUMP2 =    -0.30022298931241D+03
 CCSD(T)
 CCSD(T)= -0.30023395368D+03

 The electronic state is 5-A'.
 Alpha  occ. eigenvalues --  -20.73881 -20.73427 -20.73305 -20.73155  -1.74655
 Alpha  occ. eigenvalues --   -1.73976  -1.19447  -1.15037  -0.84566  -0.84113
 Alpha  occ. eigenvalues --   -0.83613  -0.83050  -0.80269  -0.74595  -0.51894
 Alpha  occ. eigenvalues --   -0.51306  -0.49898  -0.49630
 Alpha virt. eigenvalues --    0.42395   0.47104   0.63913   0.64028   0.70325
 Alpha virt. eigenvalues --    0.70504   0.72268   0.75176   0.76352   0.78526
 Alpha virt. eigenvalues --    0.79442   0.85925   0.90508   0.91113   0.92288

 Mulliken charges and spin densities:
               1          2
     1  O   -0.015199   0.984726
     2  O    0.013244   1.014164
     3  O    0.017085   0.989989
     4  O   -0.015130   1.011120
 Sum of Mulliken charges =   0.00000   4.00000

 Dipole moment (field-independent basis, Debye):
    X=             -0.0581    Y=              0.1050    Z=             -0.0000  Tot=              0.1200
 Quadrupole moment (field-independent basis, Debye-Ang):
   XX=            -19.9885   YY=            -20.9889   ZZ=            -19.6239
   XY=              0.3960   XZ=             -0.0000   YZ=              0.0000

 8\PMP2-0=-300.2229893\MP4SDQ=-300.2046283\CCSD=-300.1981689\CCSD(T)=-3
 Normal termination of Gaussian 16 at Tue Feb 13 14:42:37 2024.
