 Gaussian 16, Revision A.03,
 Gaussian 16:  ES64L-G16RevA.03 25-Dec-2016

 --------------------
 #p ROCCSD(T)/cc-pVTZ
 --------------------

 --------
 O2_O2_98
 --------
 Symbolic Z-matrix:
 Charge =  0 Multiplicity = 5

                         Standard orientation:
 ---------------------------------------------------------------------
 Center     Atomic      Atomic             Coordinates (Angstroms)
 Number     Number       Type             X           Y           Z
 ---------------------------------------------------------------------
      1          8           0       -0.870000   -1.430000    0.000000
      2          8           0        0.290000   -1.430000    0.000000
      3          8           0        0.290000    0.850000    0.000000
      4          8           0        0.290000    2.010000    0.000000
 ---------------------------------------------------------------------

 SCF Done:  E(ROHF) =  -299.304236335     A.U. after   21 cycles
 E2 =    -0.9248515759D+00 EUMP2 =    -0.30022908791134D+03
 CCSD(T)
 CCSD(T)= -0.30024054595D+03

 The electronic state is 5-A'.
 Alpha  occ. eigenvalues --  -20.74136 -20.73726 -20.73704 -20.73218  -1.74862
 Alpha  occ. eigenvalues --   -1.74081  -1.18079  -1.16352  -0.85172  -0.84257
 Alpha  occ. eigenvalues --   -0.83821  -0.83188  -0.78400  -0.76351  -0.52034
 Alpha  occ. eigenvalues --   -0.51386  -0.50424  -0.49793
 Alpha virt. eigenvalues --    0.41108   0.44878   0.63291   0.65435   0.70060
 Alpha virt. eigenvalues --    0.70714   0.71147   0.73074   0.74275   0.77713
 Alpha virt. eigenvalues --    0.78961   0.83737   0.84864   0.86665   0.95791

 Mulliken charges and spin densities:
               1          2
     1  O   -0.009470   0.981736
     2  O    0.009318   1.017907
     3  O    0.007306   0.990868
     4  O   -0.007154   1.009489
 Sum of Mulliken charges =   0.00000   4.00000

 Dipole moment (field-independent basis, Debye):
    X=              0.0806    Y=              0.0727    Z=              0.0000  Tot=              0.1086
 Quadrupole moment (field-independent basis, Debye-Ang):
   XX=            -20.2826   YY=            -20.4415   ZZ=            -19.6295
   XY=             -0.1055   XZ=              0.0000   YZ=              0.0000

 879\MP4SDQ=-300.2110471\CCSD=-300.2048178\CCSD(T)=-300.240546\RMSD=4.9
 Normal termination of Gaussian 16 at Tue Feb 13 15:07:09 2024.
