 Gaussian 16, Revision A.03,
 Gaussian 16:  ES64L-G16RevA.03 25-Dec-2016

 --------------------
 #p ROCCSD(T)/cc-pVTZ
 --------------------

 ---------
 O2_O2_272
 ---------
 Symbolic Z-matrix:
 Charge =  0 Multiplicity = 5

                         Standard orientation:
 ---------------------------------------------------------------------
 Center     Atomic      Atomic             Coordinates (Angstroms)
 Number     Number       Type             X           Y           Z
 ---------------------------------------------------------------------
      1          8           0       -0.870000   -2.590000    0.000000
      2          8           0        0.290000   -2.590000    0.000000
      3          8           0        0.290000    2.010000    0.000000
      4          8           0        0.290000    3.170000    0.000000
 ---------------------------------------------------------------------

 SCF Done:  E(ROHF) =  -299.316604775     A.U. after   16 cycles
 E2 =    -0.9223193262D+00 EUMP2 =    -0.30023892410076D+03
 CCSD(T)
 CCSD(T)= -0.30024969669D+03

 The electronic state is 5-A'.
 Alpha  occ. eigenvalues --  -20.74078 -20.74010 -20.74001 -20.73934  -1.74576
 Alpha  occ. eigenvalues --   -1.74509  -1.17122  -1.17054  -0.83856  -0.83855
 Alpha  occ. eigenvalues --   -0.83789  -0.83787  -0.78204  -0.78136  -0.51052
 Alpha  occ. eigenvalues --   -0.51052  -0.50985  -0.50982
 Alpha virt. eigenvalues --    0.41245   0.41498   0.67732   0.67927   0.67972
 Alpha virt. eigenvalues --    0.68042   0.72054   0.72201   0.77883   0.78075
 Alpha virt. eigenvalues --    0.79572   0.79713   0.79815   0.80090   0.87010

 Mulliken charges and spin densities:
               1          2
     1  O   -0.000136   0.999856
     2  O    0.000155   1.000142
     3  O   -0.000413   0.999566
     4  O    0.000394   1.000436
 Sum of Mulliken charges =  -0.00000   4.00000

 Dipole moment (field-independent basis, Debye):
    X=              0.0013    Y=              0.0040    Z=              0.0000  Tot=              0.0042
 Quadrupole moment (field-independent basis, Debye-Ang):
   XX=            -20.2387   YY=            -20.2286   ZZ=            -19.6381
   XY=             -0.0009   XZ=              0.0000   YZ=              0.0000

 241\MP4SDQ=-300.2208998\CCSD=-300.2144303\CCSD(T)=-300.2496967\RMSD=2.
 Normal termination of Gaussian 16 at Tue Feb 13 19:56:51 2024.
