 Gaussian 16, Revision A.03,
 Gaussian 16:  ES64L-G16RevA.03 25-Dec-2016

 --------------------
 #p ROCCSD(T)/cc-pVTZ
 --------------------

 ---------
 O2_O2_122
 ---------
 Symbolic Z-matrix:
 Charge =  0 Multiplicity = 5

                         Standard orientation:
 ---------------------------------------------------------------------
 Center     Atomic      Atomic             Coordinates (Angstroms)
 Number     Number       Type             X           Y           Z
 ---------------------------------------------------------------------
      1          8           0       -0.870000   -1.590000    0.000000
      2          8           0        0.290000   -1.590000    0.000000
      3          8           0        0.290000    1.010000    0.000000
      4          8           0        0.290000    2.170000    0.000000
 ---------------------------------------------------------------------

 SCF Done:  E(ROHF) =  -299.313438289     A.U. after   17 cycles
 E2 =    -0.9241874741D+00 EUMP2 =    -0.30023762576305D+03
 CCSD(T)
 CCSD(T)= -0.30024831410D+03

 The electronic state is 5-A'.
 Alpha  occ. eigenvalues --  -20.74136 -20.73953 -20.73839 -20.73670  -1.74689
 Alpha  occ. eigenvalues --   -1.74305  -1.17485  -1.16735  -0.84264  -0.84036
 Alpha  occ. eigenvalues --   -0.83778  -0.83507  -0.78481  -0.77377  -0.51596
 Alpha  occ. eigenvalues --   -0.51211  -0.50726  -0.50360
 Alpha virt. eigenvalues --    0.40725   0.43313   0.63998   0.64033   0.66892
 Alpha virt. eigenvalues --    0.70219   0.71757   0.73811   0.75177   0.77665
 Alpha virt. eigenvalues --    0.78863   0.80127   0.83549   0.86687   0.92762

 Mulliken charges and spin densities:
               1          2
     1  O   -0.002687   0.993764
     2  O    0.003138   1.006236
     3  O    0.000015   0.995675
     4  O   -0.000465   1.004324
 Sum of Mulliken charges =  -0.00000   4.00000

 Dipole moment (field-independent basis, Debye):
    X=              0.0323    Y=              0.0416    Z=              0.0000  Tot=              0.0526
 Quadrupole moment (field-independent basis, Debye-Ang):
   XX=            -20.2546   YY=            -20.3232   ZZ=            -19.6372
   XY=             -0.0378   XZ=              0.0000   YZ=              0.0000

 258\MP4SDQ=-300.2192631\CCSD=-300.2127866\CCSD(T)=-300.2483141\RMSD=9.
 Normal termination of Gaussian 16 at Tue Feb 13 15:44:40 2024.
