 Gaussian 16, Revision A.03,
 Gaussian 16:  ES64L-G16RevA.03 25-Dec-2016

 --------------------
 #p ROCCSD(T)/cc-pVTZ
 --------------------

 --------
 O2_O2_21
 --------
 Symbolic Z-matrix:
 Charge =  0 Multiplicity = 5

                         Standard orientation:
 ---------------------------------------------------------------------
 Center     Atomic      Atomic             Coordinates (Angstroms)
 Number     Number       Type             X           Y           Z
 ---------------------------------------------------------------------
      1          8           0        0.000000    0.000000    1.800000
      2          8           0        0.000000    0.000000    0.640000
      3          8           0        0.000000    0.000000   -0.640000
      4          8           0        0.000000    0.000000   -1.800000
 ---------------------------------------------------------------------

 SCF Done:  E(ROHF) =  -298.872203826     A.U. after   14 cycles
 E2 =    -0.9250962165D+00 EUMP2 =    -0.29979730004246D+03
 CCSD(T)
 CCSD(T)= -0.29982528475D+03

 Unable to determine electronic state:  an orbital has unidentified symmetry.
 Alpha  occ. eigenvalues --  -20.76858 -20.76852 -20.70014 -20.70013  -1.83502
 Alpha  occ. eigenvalues --   -1.73320  -1.45783  -1.06329  -0.92467  -0.91768
 Alpha  occ. eigenvalues --   -0.89779  -0.81668  -0.79460  -0.59140  -0.54915
 Alpha  occ. eigenvalues --   -0.50230  -0.45472  -0.43095
 Alpha virt. eigenvalues --    0.42689   0.49601   0.61432   0.64025   0.64815
 Alpha virt. eigenvalues --    0.69855   0.70850   0.73080   0.80810   0.82457
 Alpha virt. eigenvalues --    0.83192   0.94976   0.97862   0.98400   1.07270

 Mulliken charges and spin densities:
               1          2
     1  O   -0.108081   0.952079
     2  O    0.108081   1.047921
     3  O    0.108081   1.047921
     4  O   -0.108081   0.952079
 Sum of Mulliken charges =  -0.00000   4.00000

 Dipole moment (field-independent basis, Debye):
    X=             -0.0000    Y=             -0.0000    Z=             -0.0000  Tot=              0.0000
 Quadrupole moment (field-independent basis, Debye-Ang):
   XX=            -18.9842   YY=            -20.0787   ZZ=            -24.2914
   XY=              0.0000   XZ=              0.0000   YZ=              0.0000

 74006\CCSD=-299.7854518\CCSD(T)=-299.8252847\RMSD=1.783e-09\PG=D*H [C*
 Normal termination of Gaussian 16 at Tue Feb 13 12:37:26 2024.
