 Gaussian 16, Revision A.03,
 Gaussian 16:  ES64L-G16RevA.03 25-Dec-2016

 --------------------
 #p ROCCSD(T)/cc-pVTZ
 --------------------

 --------
 O2_O2_33
 --------
 Symbolic Z-matrix:
 Charge =  0 Multiplicity = 5

                         Standard orientation:
 ---------------------------------------------------------------------
 Center     Atomic      Atomic             Coordinates (Angstroms)
 Number     Number       Type             X           Y           Z
 ---------------------------------------------------------------------
      1          8           0        0.000000    0.000000    1.880000
      2          8           0        0.000000    0.000000    0.720000
      3          8           0        0.000000    0.000000   -0.720000
      4          8           0        0.000000    0.000000   -1.880000
 ---------------------------------------------------------------------

 SCF Done:  E(ROHF) =  -299.044884185     A.U. after   13 cycles
 E2 =    -0.9491131286D+00 EUMP2 =    -0.29999399731344D+03
 CCSD(T)
 CCSD(T)= -0.30000027936D+03

 The electronic state is 5-SGG.
 Alpha  occ. eigenvalues --  -20.72689 -20.72689 -20.68768 -20.68766  -1.75959
 Alpha  occ. eigenvalues --   -1.71816  -1.32866  -1.08547  -0.87807  -0.85949
 Alpha  occ. eigenvalues --   -0.85949  -0.80564  -0.80564  -0.56173  -0.55341
 Alpha  occ. eigenvalues --   -0.55341  -0.44392  -0.44392
 Alpha virt. eigenvalues --    0.45167   0.49248   0.66156   0.66156   0.67204
 Alpha virt. eigenvalues --    0.70925   0.70925   0.74172   0.80312   0.80312
 Alpha virt. eigenvalues --    0.84251   0.91489   0.99009   0.99009   1.05732

 Mulliken charges and spin densities:
               1          2
     1  O   -0.006283   1.122322
     2  O    0.006283   0.877678
     3  O    0.006283   0.877678
     4  O   -0.006283   1.122322
 Sum of Mulliken charges =   0.00000   4.00000

 Dipole moment (field-independent basis, Debye):
    X=              0.0000    Y=              0.0000    Z=             -0.0000  Tot=              0.0000
 Quadrupole moment (field-independent basis, Debye-Ang):
   XX=            -19.4306   YY=            -19.4306   ZZ=            -21.6285
   XY=              0.0000   XZ=              0.0000   YZ=              0.0000

 973\MP4SDQ=-299.9702062\CCSD=-299.9617119\CCSD(T)=-300.0002794\RMSD=2.
 Normal termination of Gaussian 16 at Tue Feb 13 13:02:15 2024.
