 Gaussian 16, Revision A.03,
 Gaussian 16:  ES64L-G16RevA.03 25-Dec-2016

 --------------------
 #p ROCCSD(T)/cc-pVTZ
 --------------------

 ---------
 O2_O2_179
 ---------
 Symbolic Z-matrix:
 Charge =  0 Multiplicity = 5

                         Standard orientation:
 ---------------------------------------------------------------------
 Center     Atomic      Atomic             Coordinates (Angstroms)
 Number     Number       Type             X           Y           Z
 ---------------------------------------------------------------------
      1          8           0       -0.870000   -1.970000    0.000000
      2          8           0        0.290000   -1.970000    0.000000
      3          8           0        0.290000    1.390000    0.000000
      4          8           0        0.290000    2.550000    0.000000
 ---------------------------------------------------------------------

 SCF Done:  E(ROHF) =  -299.316637028     A.U. after   16 cycles
 E2 =    -0.9228123191D+00 EUMP2 =    -0.30023944934763D+03
 CCSD(T)
 CCSD(T)= -0.30025016690D+03

 The electronic state is 5-A'.
 Alpha  occ. eigenvalues --  -20.74112 -20.74030 -20.73978 -20.73900  -1.74608
 Alpha  occ. eigenvalues --   -1.74468  -1.17169  -1.17006  -0.83896  -0.83894
 Alpha  occ. eigenvalues --   -0.83753  -0.83745  -0.78300  -0.78024  -0.51164
 Alpha  occ. eigenvalues --   -0.51091  -0.50943  -0.50861
 Alpha virt. eigenvalues --    0.39326   0.41789   0.62364   0.66754   0.67371
 Alpha virt. eigenvalues --    0.68933   0.72024   0.74590   0.76516   0.78276
 Alpha virt. eigenvalues --    0.79145   0.80178   0.80765   0.85039   0.86895

 Mulliken charges and spin densities:
               1          2
     1  O   -0.000348   0.999481
     2  O    0.000751   1.000495
     3  O   -0.002395   0.998785
     4  O    0.001992   1.001239
 Sum of Mulliken charges =  -0.00000   4.00000

 Dipole moment (field-independent basis, Debye):
    X=              0.0047    Y=              0.0083    Z=              0.0000  Tot=              0.0095
 Quadrupole moment (field-independent basis, Debye-Ang):
   XX=            -20.2397   YY=            -20.2177   ZZ=            -19.6382
   XY=             -0.0021   XZ=              0.0000   YZ=              0.0000

 93\MP4SDQ=-300.2213222\CCSD=-300.2148392\CCSD(T)=-300.2501669\RMSD=2.5
 Normal termination of Gaussian 16 at Tue Feb 13 17:13:47 2024.
