 Gaussian 16, Revision A.03,
 Gaussian 16:  ES64L-G16RevA.03 25-Dec-2016

 --------------------
 #p ROCCSD(T)/cc-pVTZ
 --------------------

 ---------
 O2_O2_148
 ---------
 Symbolic Z-matrix:
 Charge =  0 Multiplicity = 5

                         Standard orientation:
 ---------------------------------------------------------------------
 Center     Atomic      Atomic             Coordinates (Angstroms)
 Number     Number       Type             X           Y           Z
 ---------------------------------------------------------------------
      1          8           0        0.615183   -2.385183   -0.000000
      2          8           0       -0.205061   -1.564939    0.000000
      3          8           0       -0.205061    1.395061    0.000000
      4          8           0       -0.205061    2.555061    0.000000
 ---------------------------------------------------------------------

 SCF Done:  E(ROHF) =  -299.316077553     A.U. after   18 cycles
 E2 =    -0.9231869714D+00 EUMP2 =    -0.30023926452413D+03
 CCSD(T)
 CCSD(T)= -0.30024992954D+03

 The electronic state is 5-A'.
 Alpha  occ. eigenvalues --  -20.73983 -20.73944 -20.73906 -20.73855  -1.74506
 Alpha  occ. eigenvalues --   -1.74440  -1.17284  -1.16769  -0.83818  -0.83816
 Alpha  occ. eigenvalues --   -0.83715  -0.83687  -0.78608  -0.77567  -0.51125
 Alpha  occ. eigenvalues --   -0.51043  -0.50835  -0.50764
 Alpha virt. eigenvalues --    0.38164   0.45476   0.64213   0.66096   0.66696
 Alpha virt. eigenvalues --    0.69170   0.70181   0.74728   0.76643   0.77266
 Alpha virt. eigenvalues --    0.77775   0.83074   0.84507   0.85711   0.87085

 Mulliken charges and spin densities:
               1          2
     1  O   -0.001523   0.997684
     2  O    0.001711   1.002220
     3  O    0.000328   1.000664
     4  O   -0.000516   0.999432
 Sum of Mulliken charges =   0.00000   4.00000

 Dipole moment (field-independent basis, Debye):
    X=             -0.0104    Y=              0.0036    Z=              0.0000  Tot=              0.0110
 Quadrupole moment (field-independent basis, Debye-Ang):
   XX=            -19.9433   YY=            -20.6312   ZZ=            -19.6386
   XY=              0.3169   XZ=              0.0000   YZ=             -0.0000

 76\PMP2-0=-300.2392645\MP4SDQ=-300.2210761\CCSD=-300.2145564\CCSD(T)=-
 Normal termination of Gaussian 16 at Tue Feb 13 16:25:41 2024.
