 Gaussian 16, Revision A.03,
 Gaussian 16:  ES64L-G16RevA.03 25-Dec-2016

 --------------------
 #p ROCCSD(T)/cc-pVTZ
 --------------------

 --------
 O2_O2_53
 --------
 Symbolic Z-matrix:
 Charge =  0 Multiplicity = 5

                         Standard orientation:
 ---------------------------------------------------------------------
 Center     Atomic      Atomic             Coordinates (Angstroms)
 Number     Number       Type             X           Y           Z
 ---------------------------------------------------------------------
      1          8           0       -0.870000   -1.130000    0.000000
      2          8           0        0.290000   -1.130000    0.000000
      3          8           0        0.290000    0.550000    0.000000
      4          8           0        0.290000    1.710000    0.000000
 ---------------------------------------------------------------------

 SCF Done:  E(ROHF) =  -299.200882999     A.U. after   23 cycles
 E2 =    -0.9121886860D+00 EUMP2 =    -0.30011307168548D+03
 CCSD(T)
 CCSD(T)= -0.30014026363D+03

 The electronic state is 5-A'.
 Alpha  occ. eigenvalues --  -20.74137 -20.73267 -20.73068 -20.69557  -1.77392
 Alpha  occ. eigenvalues --   -1.73059  -1.23608  -1.14219  -0.90420  -0.86360
 Alpha  occ. eigenvalues --   -0.84859  -0.81677  -0.77222  -0.69172  -0.53568
 Alpha  occ. eigenvalues --   -0.52922  -0.48762  -0.46752
 Alpha virt. eigenvalues --    0.41431   0.46563   0.64329   0.64449   0.67770
 Alpha virt. eigenvalues --    0.70484   0.71936   0.74699   0.78116   0.79574
 Alpha virt. eigenvalues --    0.80119   0.85837   0.87156   0.96777   0.98604

 Mulliken charges and spin densities:
               1          2
     1  O   -0.073054   0.893344
     2  O    0.060018   1.075331
     3  O    0.030482   0.994993
     4  O   -0.017447   1.036333
 Sum of Mulliken charges =   0.00000   4.00000

 Dipole moment (field-independent basis, Debye):
    X=              0.4181    Y=              0.2557    Z=              0.0000  Tot=              0.4901
 Quadrupole moment (field-independent basis, Debye-Ang):
   XX=            -20.5201   YY=            -20.9702   ZZ=            -19.4817
   XY=             -0.4689   XZ=              0.0000   YZ=              0.0000

 7\MP4SDQ=-300.1054711\CCSD=-300.1039361\CCSD(T)=-300.1402636\RMSD=5.46
 Normal termination of Gaussian 16 at Tue Feb 13 13:42:52 2024.
