 Gaussian 16, Revision A.03,
 Gaussian 16:  ES64L-G16RevA.03 25-Dec-2016

 --------------------
 #p ROCCSD(T)/cc-pVTZ
 --------------------

 ---------
 O2_O2_218
 ---------
 Symbolic Z-matrix:
 Charge =  0 Multiplicity = 5

                         Standard orientation:
 ---------------------------------------------------------------------
 Center     Atomic      Atomic             Coordinates (Angstroms)
 Number     Number       Type             X           Y           Z
 ---------------------------------------------------------------------
      1          8           0       -0.870000   -2.230000    0.000000
      2          8           0        0.290000   -2.230000    0.000000
      3          8           0        0.290000    1.650000    0.000000
      4          8           0        0.290000    2.810000    0.000000
 ---------------------------------------------------------------------

 SCF Done:  E(ROHF) =  -299.316656530     A.U. after   16 cycles
 E2 =    -0.9224795936D+00 EUMP2 =    -0.30023913612336D+03
 CCSD(T)
 CCSD(T)= -0.30024988362D+03

 The electronic state is 5-A'.
 Alpha  occ. eigenvalues --  -20.74093 -20.74015 -20.73999 -20.73923  -1.74590
 Alpha  occ. eigenvalues --   -1.74494  -1.17138  -1.17039  -0.83870  -0.83870
 Alpha  occ. eigenvalues --   -0.83775  -0.83769  -0.78231  -0.78110  -0.51082
 Alpha  occ. eigenvalues --   -0.51067  -0.50971  -0.50950
 Alpha virt. eigenvalues --    0.40392   0.41640   0.64988   0.67614   0.67886
 Alpha virt. eigenvalues --    0.68325   0.72066   0.73930   0.77314   0.78229
 Alpha virt. eigenvalues --    0.79504   0.79741   0.80064   0.82136   0.86963

 Mulliken charges and spin densities:
               1          2
     1  O   -0.000154   0.999870
     2  O    0.000366   1.000110
     3  O   -0.001065   0.999276
     4  O    0.000854   1.000744
 Sum of Mulliken charges =  -0.00000   4.00000

 Dipole moment (field-independent basis, Debye):
    X=              0.0018    Y=              0.0044    Z=              0.0000  Tot=              0.0047
 Quadrupole moment (field-independent basis, Debye-Ang):
   XX=            -20.2386   YY=            -20.2164   ZZ=            -19.6382
   XY=             -0.0001   XZ=              0.0000   YZ=              0.0000

 1361\MP4SDQ=-300.2210738\CCSD=-300.2145993\CCSD(T)=-300.2498836\RMSD=3
 Normal termination of Gaussian 16 at Tue Feb 13 18:13:52 2024.
