 Gaussian 16, Revision A.03,
 Gaussian 16:  ES64L-G16RevA.03 25-Dec-2016

 --------------------
 #p ROCCSD(T)/cc-pVTZ
 --------------------

 --------
 O2_O2_89
 --------
 Symbolic Z-matrix:
 Charge =  0 Multiplicity = 5

                         Standard orientation:
 ---------------------------------------------------------------------
 Center     Atomic      Atomic             Coordinates (Angstroms)
 Number     Number       Type             X           Y           Z
 ---------------------------------------------------------------------
      1          8           0       -0.870000   -1.370000    0.000000
      2          8           0        0.290000   -1.370000    0.000000
      3          8           0        0.290000    0.790000    0.000000
      4          8           0        0.290000    1.950000    0.000000
 ---------------------------------------------------------------------

 SCF Done:  E(ROHF) =  -299.296690919     A.U. after   23 cycles
 E2 =    -0.9243733643D+00 EUMP2 =    -0.30022106428316D+03
 CCSD(T)
 CCSD(T)= -0.30023378245D+03

 The electronic state is 5-A'.
 Alpha  occ. eigenvalues --  -20.74132 -20.73635 -20.73581 -20.72872  -1.75009
 Alpha  occ. eigenvalues --   -1.73946  -1.18512  -1.16114  -0.85811  -0.84413
 Alpha  occ. eigenvalues --   -0.83862  -0.83000  -0.78295  -0.75649  -0.52264
 Alpha  occ. eigenvalues --   -0.51509  -0.50234  -0.49459
 Alpha virt. eigenvalues --    0.41199   0.45371   0.63277   0.66015   0.69894
 Alpha virt. eigenvalues --    0.70906   0.71332   0.73080   0.74809   0.77791
 Alpha virt. eigenvalues --    0.79031   0.85230   0.85928   0.86798   0.96666

 Mulliken charges and spin densities:
               1          2
     1  O   -0.015689   0.972628
     2  O    0.014704   1.026363
     3  O    0.010815   0.988170
     4  O   -0.009830   1.012839
 Sum of Mulliken charges =   0.00000   4.00000

 Dipole moment (field-independent basis, Debye):
    X=              0.1153    Y=              0.0887    Z=              0.0000  Tot=              0.1455
 Quadrupole moment (field-independent basis, Debye-Ang):
   XX=            -20.3043   YY=            -20.5025   ZZ=            -19.6204
   XY=             -0.1527   XZ=              0.0000   YZ=              0.0000

 643\MP4SDQ=-300.2038133\CCSD=-300.1979538\CCSD(T)=-300.2337824\RMSD=2.
 Normal termination of Gaussian 16 at Tue Feb 13 14:49:50 2024.
