 Gaussian 16, Revision A.03,
 Gaussian 16:  ES64L-G16RevA.03 25-Dec-2016

 --------------------
 #p ROCCSD(T)/cc-pVTZ
 --------------------

 --------
 O2_O2_81
 --------
 Symbolic Z-matrix:
 Charge =  0 Multiplicity = 5

                         Standard orientation:
 ---------------------------------------------------------------------
 Center     Atomic      Atomic             Coordinates (Angstroms)
 Number     Number       Type             X           Y           Z
 ---------------------------------------------------------------------
      1          8           0        0.000000    0.000000    2.200000
      2          8           0        0.000000    0.000000    1.040000
      3          8           0        0.000000    0.000000   -1.040000
      4          8           0        0.000000    0.000000   -2.200000
 ---------------------------------------------------------------------

 SCF Done:  E(ROHF) =  -299.294539055     A.U. after   11 cycles
 E2 =    -0.9272738651D+00 EUMP2 =    -0.30022181292038D+03
 CCSD(T)
 CCSD(T)= -0.30023165165D+03

 The electronic state is 5-SGG.
 Alpha  occ. eigenvalues --  -20.73578 -20.73578 -20.73055 -20.73053  -1.74471
 Alpha  occ. eigenvalues --   -1.73922  -1.19775  -1.14618  -0.84001  -0.84001
 Alpha  occ. eigenvalues --   -0.82957  -0.82957  -0.81777  -0.73506  -0.51945
 Alpha  occ. eigenvalues --   -0.51945  -0.49381  -0.49381
 Alpha virt. eigenvalues --    0.43478   0.48483   0.64289   0.64289   0.70200
 Alpha virt. eigenvalues --    0.70200   0.71734   0.75705   0.75705   0.76569
 Alpha virt. eigenvalues --    0.84970   0.86102   0.90029   0.93621   0.93621

 Mulliken charges and spin densities:
               1          2
     1  O   -0.025280   1.007371
     2  O    0.025280   0.992629
     3  O    0.025280   0.992629
     4  O   -0.025280   1.007371
 Sum of Mulliken charges =   0.00000   4.00000

 Dipole moment (field-independent basis, Debye):
    X=             -0.0000    Y=              0.0000    Z=              0.0000  Tot=              0.0000
 Quadrupole moment (field-independent basis, Debye-Ang):
   XX=            -19.6232   YY=            -19.6232   ZZ=            -21.2420
   XY=              0.0000   XZ=              0.0000   YZ=              0.0000

 129\MP4SDQ=-300.2026628\CCSD=-300.1958258\CCSD(T)=-300.2316517\RMSD=2.
 Normal termination of Gaussian 16 at Tue Feb 13 14:35:04 2024.
