 Gaussian 16, Revision A.03,
 Gaussian 16:  ES64L-G16RevA.03 25-Dec-2016

 --------------------
 #p ROCCSD(T)/cc-pVTZ
 --------------------

 ---------
 O2_O2_242
 ---------
 Symbolic Z-matrix:
 Charge =  0 Multiplicity = 5

                         Standard orientation:
 ---------------------------------------------------------------------
 Center     Atomic      Atomic             Coordinates (Angstroms)
 Number     Number       Type             X           Y           Z
 ---------------------------------------------------------------------
      1          8           0       -0.870000   -2.390000    0.000000
      2          8           0        0.290000   -2.390000    0.000000
      3          8           0        0.290000    1.810000    0.000000
      4          8           0        0.290000    2.970000    0.000000
 ---------------------------------------------------------------------

 SCF Done:  E(ROHF) =  -299.316628172     A.U. after   16 cycles
 E2 =    -0.9223812472D+00 EUMP2 =    -0.30023900941872D+03
 CCSD(T)
 CCSD(T)= -0.30024977132D+03

 The electronic state is 5-A'.
 Alpha  occ. eigenvalues --  -20.74085 -20.74008 -20.74004 -20.73928  -1.74582
 Alpha  occ. eigenvalues --   -1.74501  -1.17129  -1.17047  -0.83863  -0.83862
 Alpha  occ. eigenvalues --   -0.83782  -0.83778  -0.78214  -0.78126  -0.51063
 Alpha  occ. eigenvalues --   -0.51059  -0.50978  -0.50970
 Alpha virt. eigenvalues --    0.40939   0.41575   0.66679   0.67824   0.67952
 Alpha virt. eigenvalues --    0.68141   0.72065   0.72935   0.77714   0.78184
 Alpha virt. eigenvalues --    0.79455   0.79638   0.79898   0.80839   0.86991

 Mulliken charges and spin densities:
               1          2
     1  O   -0.000138   0.999866
     2  O    0.000225   1.000125
     3  O   -0.000647   0.999428
     4  O    0.000561   1.000581
 Sum of Mulliken charges =  -0.00000   4.00000

 Dipole moment (field-independent basis, Debye):
    X=              0.0015    Y=              0.0044    Z=              0.0000  Tot=              0.0046
 Quadrupole moment (field-independent basis, Debye-Ang):
   XX=            -20.2386   YY=            -20.2230   ZZ=            -19.6382
   XY=             -0.0005   XZ=              0.0000   YZ=              0.0000

 094\MP4SDQ=-300.2209697\CCSD=-300.2144985\CCSD(T)=-300.2497713\RMSD=2.
 Normal termination of Gaussian 16 at Tue Feb 13 18:57:19 2024.
