 Gaussian 16, Revision A.03,
 Gaussian 16:  ES64L-G16RevA.03 25-Dec-2016

 --------------------
 #p ROCCSD(T)/cc-pVTZ
 --------------------

 --------
 O2_O2_50
 --------
 Symbolic Z-matrix:
 Charge =  0 Multiplicity = 5

                         Standard orientation:
 ---------------------------------------------------------------------
 Center     Atomic      Atomic             Coordinates (Angstroms)
 Number     Number       Type             X           Y           Z
 ---------------------------------------------------------------------
      1          8           0       -0.870000   -1.110000    0.000000
      2          8           0        0.290000   -1.110000    0.000000
      3          8           0        0.290000    0.530000    0.000000
      4          8           0        0.290000    1.690000    0.000000
 ---------------------------------------------------------------------

 SCF Done:  E(ROHF) =  -299.184011833     A.U. after   22 cycles
 E2 =    -0.9109290238D+00 EUMP2 =    -0.30009494085656D+03
 CCSD(T)
 CCSD(T)= -0.30012318705D+03

 The electronic state is 5-A'.
 Alpha  occ. eigenvalues --  -20.74149 -20.73406 -20.72973 -20.69127  -1.77902
 Alpha  occ. eigenvalues --   -1.72978  -1.24497  -1.13972  -0.90899  -0.86737
 Alpha  occ. eigenvalues --   -0.85101  -0.81520  -0.77068  -0.68236  -0.53681
 Alpha  occ. eigenvalues --   -0.53174  -0.48573  -0.46357
 Alpha virt. eigenvalues --    0.41432   0.46578   0.63840   0.64533   0.67795
 Alpha virt. eigenvalues --    0.70393   0.72050   0.74655   0.78255   0.79615
 Alpha virt. eigenvalues --    0.80519   0.85845   0.87186   0.97487   0.98662

 Mulliken charges and spin densities:
               1          2
     1  O   -0.080518   0.883793
     2  O    0.063792   1.075831
     3  O    0.036230   1.001512
     4  O   -0.019503   1.038864
 Sum of Mulliken charges =  -0.00000   4.00000

 Dipole moment (field-independent basis, Debye):
    X=              0.4572    Y=              0.2890    Z=              0.0000  Tot=              0.5409
 Quadrupole moment (field-independent basis, Debye-Ang):
   XX=            -20.5493   YY=            -21.0492   ZZ=            -19.4574
   XY=             -0.4952   XZ=              0.0000   YZ=              0.0000

 09\MP4SDQ=-300.0880806\CCSD=-300.0868171\CCSD(T)=-300.1231871\RMSD=6.2
 Normal termination of Gaussian 16 at Tue Feb 13 13:37:23 2024.
