 Gaussian 16, Revision A.03,
 Gaussian 16:  ES64L-G16RevA.03 25-Dec-2016

 --------------------
 #p ROCCSD(T)/cc-pVTZ
 --------------------

 --------
 O2_O2_54
 --------
 Symbolic Z-matrix:
 Charge =  0 Multiplicity = 5

                         Standard orientation:
 ---------------------------------------------------------------------
 Center     Atomic      Atomic             Coordinates (Angstroms)
 Number     Number       Type             X           Y           Z
 ---------------------------------------------------------------------
      1          8           0        0.000000    0.000000    2.020000
      2          8           0        0.000000    0.000000    0.860000
      3          8           0        0.000000    0.000000   -0.860000
      4          8           0        0.000000    0.000000   -2.020000
 ---------------------------------------------------------------------

 SCF Done:  E(ROHF) =  -299.222951582     A.U. after   12 cycles
 E2 =    -0.9349722352D+00 EUMP2 =    -0.30015792381712D+03
 CCSD(T)
 CCSD(T)= -0.30016615952D+03

 The electronic state is 5-SGG.
 Alpha  occ. eigenvalues --  -20.73180 -20.73180 -20.71348 -20.71345  -1.74746
 Alpha  occ. eigenvalues --   -1.73075  -1.24481  -1.11860  -0.84847  -0.84549
 Alpha  occ. eigenvalues --   -0.84549  -0.81924  -0.81924  -0.67360  -0.53185
 Alpha  occ. eigenvalues --   -0.53185  -0.47468  -0.47468
 Alpha virt. eigenvalues --    0.45042   0.48772   0.65338   0.65338   0.70648
 Alpha virt. eigenvalues --    0.70648   0.71093   0.76778   0.77572   0.77572
 Alpha virt. eigenvalues --    0.85115   0.85705   0.96824   0.96824   0.98821

 Mulliken charges and spin densities:
               1          2
     1  O   -0.027541   1.039187
     2  O    0.027541   0.960813
     3  O    0.027541   0.960813
     4  O   -0.027541   1.039187
 Sum of Mulliken charges =  -0.00000   4.00000

 Dipole moment (field-independent basis, Debye):
    X=             -0.0000    Y=             -0.0000    Z=              0.0000  Tot=              0.0000
 Quadrupole moment (field-independent basis, Debye-Ang):
   XX=            -19.5619   YY=            -19.5619   ZZ=            -21.4993
   XY=              0.0000   XZ=              0.0000   YZ=              0.0000

 9238\MP4SDQ=-300.136928\CCSD=-300.129494\CCSD(T)=-300.1661595\RMSD=2.0
 Normal termination of Gaussian 16 at Tue Feb 13 13:44:17 2024.
