 Gaussian 16, Revision A.03,
 Gaussian 16:  ES64L-G16RevA.03 25-Dec-2016

 --------------------
 #p ROCCSD(T)/cc-pVTZ
 --------------------

 ---------
 O2_O2_190
 ---------
 Symbolic Z-matrix:
 Charge =  0 Multiplicity = 5

                         Standard orientation:
 ---------------------------------------------------------------------
 Center     Atomic      Atomic             Coordinates (Angstroms)
 Number     Number       Type             X           Y           Z
 ---------------------------------------------------------------------
      1          8           0        0.615183   -2.665183    0.000000
      2          8           0       -0.205061   -1.844939    0.000000
      3          8           0       -0.205061    1.675061   -0.000000
      4          8           0       -0.205061    2.835061   -0.000000
 ---------------------------------------------------------------------

 SCF Done:  E(ROHF) =  -299.316608539     A.U. after   17 cycles
 E2 =    -0.9226318635D+00 EUMP2 =    -0.30023924040260D+03
 CCSD(T)
 CCSD(T)= -0.30024996514D+03

 The electronic state is 5-A'.
 Alpha  occ. eigenvalues --  -20.74018 -20.74002 -20.73941 -20.73921  -1.74519
 Alpha  occ. eigenvalues --   -1.74496  -1.17109  -1.16989  -0.83805  -0.83803
 Alpha  occ. eigenvalues --   -0.83770  -0.83770  -0.78278  -0.77976  -0.51034
 Alpha  occ. eigenvalues --   -0.51010  -0.50945  -0.50929
 Alpha virt. eigenvalues --    0.37179   0.44676   0.64688   0.67414   0.67730
 Alpha virt. eigenvalues --    0.68493   0.69547   0.74452   0.76719   0.77943
 Alpha virt. eigenvalues --    0.78314   0.80805   0.81492   0.86080   0.87039

 Mulliken charges and spin densities:
               1          2
     1  O   -0.000309   0.999035
     2  O    0.000555   1.000802
     3  O   -0.000565   1.000758
     4  O    0.000318   0.999405
 Sum of Mulliken charges =   0.00000   4.00000

 Dipole moment (field-independent basis, Debye):
    X=             -0.0047    Y=             -0.0029    Z=             -0.0000  Tot=              0.0055
 Quadrupole moment (field-independent basis, Debye-Ang):
   XX=            -19.9395   YY=            -20.5751   ZZ=            -19.6385
   XY=              0.3074   XZ=             -0.0000   YZ=              0.0000

 85\PMP2-0=-300.2392404\MP4SDQ=-300.2211534\CCSD=-300.2146622\CCSD(T)=-
 Normal termination of Gaussian 16 at Tue Feb 13 17:30:01 2024.
