 Gaussian 16, Revision A.03,
 Gaussian 16:  ES64L-G16RevA.03 25-Dec-2016

 --------------------
 #p ROCCSD(T)/cc-pVTZ
 --------------------

 --------
 O2_O2_42
 --------
 Symbolic Z-matrix:
 Charge =  0 Multiplicity = 5

                         Standard orientation:
 ---------------------------------------------------------------------
 Center     Atomic      Atomic             Coordinates (Angstroms)
 Number     Number       Type             X           Y           Z
 ---------------------------------------------------------------------
      1          8           0        0.000000    0.000000    1.940000
      2          8           0        0.000000    0.000000    0.780000
      3          8           0        0.000000    0.000000   -0.780000
      4          8           0        0.000000    0.000000   -1.940000
 ---------------------------------------------------------------------

 SCF Done:  E(ROHF) =  -299.143018247     A.U. after   12 cycles
 E2 =    -0.9418680703D+00 EUMP2 =    -0.30008488631755D+03
 CCSD(T)
 CCSD(T)= -0.30009193366D+03

 The electronic state is 5-SGG.
 Alpha  occ. eigenvalues --  -20.72929 -20.72929 -20.70001 -20.69998  -1.75211
 Alpha  occ. eigenvalues --   -1.72431  -1.28564  -1.10064  -0.86514  -0.85163
 Alpha  occ. eigenvalues --   -0.85163  -0.81204  -0.81204  -0.62037  -0.54223
 Alpha  occ. eigenvalues --   -0.54223  -0.45964  -0.45964
 Alpha virt. eigenvalues --    0.45301   0.49012   0.65879   0.65879   0.69306
 Alpha virt. eigenvalues --    0.70828   0.70828   0.75696   0.79023   0.79023
 Alpha virt. eigenvalues --    0.84562   0.88049   0.98085   0.98085   1.02812

 Mulliken charges and spin densities:
               1          2
     1  O   -0.021119   1.076017
     2  O    0.021119   0.923983
     3  O    0.021119   0.923983
     4  O   -0.021119   1.076017
 Sum of Mulliken charges =   0.00000   4.00000

 Dipole moment (field-independent basis, Debye):
    X=              0.0000    Y=              0.0000    Z=             -0.0000  Tot=              0.0000
 Quadrupole moment (field-independent basis, Debye-Ang):
   XX=            -19.5006   YY=            -19.5006   ZZ=            -21.5847
   XY=              0.0000   XZ=              0.0000   YZ=              0.0000

 8863\MP4SDQ=-300.0624098\CCSD=-300.0544308\CCSD(T)=-300.0919337\RMSD=6
 Normal termination of Gaussian 16 at Tue Feb 13 13:20:58 2024.
