 Gaussian 16, Revision A.03,
 Gaussian 16:  ES64L-G16RevA.03 25-Dec-2016

 --------------------
 #p ROCCSD(T)/cc-pVTZ
 --------------------

 ---------
 O2_O2_134
 ---------
 Symbolic Z-matrix:
 Charge =  0 Multiplicity = 5

                         Standard orientation:
 ---------------------------------------------------------------------
 Center     Atomic      Atomic             Coordinates (Angstroms)
 Number     Number       Type             X           Y           Z
 ---------------------------------------------------------------------
      1          8           0       -0.870000   -1.670000    0.000000
      2          8           0        0.290000   -1.670000    0.000000
      3          8           0        0.290000    1.090000    0.000000
      4          8           0        0.290000    2.250000    0.000000
 ---------------------------------------------------------------------

 SCF Done:  E(ROHF) =  -299.315114634     A.U. after   16 cycles
 E2 =    -0.9237573546D+00 EUMP2 =    -0.30023887198833D+03
 CCSD(T)
 CCSD(T)= -0.30024954556D+03

 The electronic state is 5-A'.
 Alpha  occ. eigenvalues --  -20.74133 -20.74001 -20.73887 -20.73768  -1.74656
 Alpha  occ. eigenvalues --   -1.74366  -1.17349  -1.16841  -0.84079  -0.83981
 Alpha  occ. eigenvalues --   -0.83767  -0.83598  -0.78456  -0.77630  -0.51451
 Alpha  occ. eigenvalues --   -0.51166  -0.50810  -0.50533
 Alpha virt. eigenvalues --    0.40358   0.42638   0.63144   0.64639   0.66337
 Alpha virt. eigenvalues --    0.69957   0.71846   0.73826   0.76237   0.77784
 Alpha virt. eigenvalues --    0.78860   0.79276   0.82817   0.86733   0.90996

 Mulliken charges and spin densities:
               1          2
     1  O   -0.001619   0.996294
     2  O    0.001988   1.003724
     3  O   -0.001754   0.996907
     4  O    0.001385   1.003075
 Sum of Mulliken charges =  -0.00000   4.00000

 Dipole moment (field-independent basis, Debye):
    X=              0.0211    Y=              0.0307    Z=              0.0000  Tot=              0.0372
 Quadrupole moment (field-independent basis, Debye-Ang):
   XX=            -20.2483   YY=            -20.2848   ZZ=            -19.6379
   XY=             -0.0223   XZ=              0.0000   YZ=              0.0000

 2\MP4SDQ=-300.2205728\CCSD=-300.2140841\CCSD(T)=-300.2495456\RMSD=4.69
 Normal termination of Gaussian 16 at Tue Feb 13 16:04:19 2024.
