 Gaussian 16, Revision A.03,
 Gaussian 16:  ES64L-G16RevA.03 25-Dec-2016

 --------------------
 #p ROCCSD(T)/cc-pVTZ
 --------------------

 ---------
 O2_O2_290
 ---------
 Symbolic Z-matrix:
 Charge =  0 Multiplicity = 5

                         Standard orientation:
 ---------------------------------------------------------------------
 Center     Atomic      Atomic             Coordinates (Angstroms)
 Number     Number       Type             X           Y           Z
 ---------------------------------------------------------------------
      1          8           0       -0.870000   -2.710000    0.000000
      2          8           0        0.290000   -2.710000    0.000000
      3          8           0        0.290000    2.130000    0.000000
      4          8           0        0.290000    3.290000    0.000000
 ---------------------------------------------------------------------

 SCF Done:  E(ROHF) =  -299.316598418     A.U. after   16 cycles
 E2 =    -0.9222995659D+00 EUMP2 =    -0.30023889798426D+03
 CCSD(T)
 CCSD(T)= -0.30024967414D+03

 The electronic state is 5-A'.
 Alpha  occ. eigenvalues --  -20.74074 -20.74014 -20.73997 -20.73938  -1.74572
 Alpha  occ. eigenvalues --   -1.74513  -1.17118  -1.17058  -0.83852  -0.83852
 Alpha  occ. eigenvalues --   -0.83793  -0.83792  -0.78200  -0.78140  -0.51048
 Alpha  occ. eigenvalues --   -0.51048  -0.50989  -0.50988
 Alpha virt. eigenvalues --    0.41318   0.41463   0.67914   0.67948   0.67982
 Alpha virt. eigenvalues --    0.68020   0.72037   0.72079   0.77924   0.78037
 Alpha virt. eigenvalues --    0.79655   0.79730   0.79798   0.79917   0.87014

 Mulliken charges and spin densities:
               1          2
     1  O   -0.000124   0.999867
     2  O    0.000130   1.000132
     3  O   -0.000338   0.999632
     4  O    0.000332   1.000369
 Sum of Mulliken charges =  -0.00000   4.00000

 Dipole moment (field-independent basis, Debye):
    X=              0.0011    Y=              0.0036    Z=              0.0000  Tot=              0.0037
 Quadrupole moment (field-independent basis, Debye-Ang):
   XX=            -20.2386   YY=            -20.2304   ZZ=            -19.6381
   XY=             -0.0010   XZ=              0.0000   YZ=              0.0000

 \MP4SDQ=-300.2208786\CCSD=-300.2144097\CCSD(T)=-300.2496741\RMSD=2.106
 Normal termination of Gaussian 16 at Tue Feb 13 20:32:50 2024.
