 Gaussian 16, Revision A.03,
 Gaussian 16:  ES64L-G16RevA.03 25-Dec-2016

 --------------------
 #p ROCCSD(T)/cc-pVTZ
 --------------------

 --------
 O2_O2_45
 --------
 Symbolic Z-matrix:
 Charge =  0 Multiplicity = 5

                         Standard orientation:
 ---------------------------------------------------------------------
 Center     Atomic      Atomic             Coordinates (Angstroms)
 Number     Number       Type             X           Y           Z
 ---------------------------------------------------------------------
      1          8           0        0.000000    0.000000    1.960000
      2          8           0        0.000000    0.000000    0.800000
      3          8           0        0.000000    0.000000   -0.800000
      4          8           0        0.000000    0.000000   -1.960000
 ---------------------------------------------------------------------

 SCF Done:  E(ROHF) =  -299.167558661     A.U. after   12 cycles
 E2 =    -0.9398631430D+00 EUMP2 =    -0.30010742180399D+03
 CCSD(T)
 CCSD(T)= -0.30011477884D+03

 The electronic state is 5-SGG.
 Alpha  occ. eigenvalues --  -20.72997 -20.72997 -20.70375 -20.70372  -1.75054
 Alpha  occ. eigenvalues --   -1.72611  -1.27382  -1.10542  -0.86088  -0.84972
 Alpha  occ. eigenvalues --   -0.84972  -0.81400  -0.81400  -0.63597  -0.53922
 Alpha  occ. eigenvalues --   -0.53922  -0.46395  -0.46395
 Alpha virt. eigenvalues --    0.45274   0.48944   0.65756   0.65756   0.69858
 Alpha virt. eigenvalues --    0.70787   0.70787   0.76070   0.78626   0.78626
 Alpha virt. eigenvalues --    0.84690   0.87263   0.97775   0.97775   1.01822

 Mulliken charges and spin densities:
               1          2
     1  O   -0.023702   1.064590
     2  O    0.023702   0.935410
     3  O    0.023702   0.935410
     4  O   -0.023702   1.064590
 Sum of Mulliken charges =  -0.00000   4.00000

 Dipole moment (field-independent basis, Debye):
    X=              0.0000    Y=             -0.0000    Z=             -0.0000  Tot=              0.0000
 Quadrupole moment (field-independent basis, Debye-Ang):
   XX=            -19.5188   YY=            -19.5188   ZZ=            -21.5673
   XY=              0.0000   XZ=              0.0000   YZ=              0.0000

 218\MP4SDQ=-300.0853553\CCSD=-300.0775329\CCSD(T)=-300.1147788\RMSD=4.
 Normal termination of Gaussian 16 at Tue Feb 13 13:26:56 2024.
