 Gaussian 16, Revision A.03,
 Gaussian 16:  ES64L-G16RevA.03 25-Dec-2016

 --------------------
 #p ROCCSD(T)/cc-pVTZ
 --------------------

 ---------
 O2_O2_230
 ---------
 Symbolic Z-matrix:
 Charge =  0 Multiplicity = 5

                         Standard orientation:
 ---------------------------------------------------------------------
 Center     Atomic      Atomic             Coordinates (Angstroms)
 Number     Number       Type             X           Y           Z
 ---------------------------------------------------------------------
      1          8           0       -0.870000   -2.310000    0.000000
      2          8           0        0.290000   -2.310000    0.000000
      3          8           0        0.290000    1.730000    0.000000
      4          8           0        0.290000    2.890000    0.000000
 ---------------------------------------------------------------------

 SCF Done:  E(ROHF) =  -299.316642033     A.U. after   16 cycles
 E2 =    -0.9224231829D+00 EUMP2 =    -0.30023906521586D+03
 CCSD(T)
 CCSD(T)= -0.30024982058D+03

 The electronic state is 5-A'.
 Alpha  occ. eigenvalues --  -20.74089 -20.74011 -20.74002 -20.73926  -1.74586
 Alpha  occ. eigenvalues --   -1.74498  -1.17133  -1.17043  -0.83866  -0.83866
 Alpha  occ. eigenvalues --   -0.83779  -0.83773  -0.78221  -0.78120  -0.51071
 Alpha  occ. eigenvalues --   -0.51063  -0.50975  -0.50962
 Alpha virt. eigenvalues --    0.40705   0.41607   0.65906   0.67739   0.67930
 Alpha virt. eigenvalues --    0.68217   0.72067   0.73422   0.77559   0.78217
 Alpha virt. eigenvalues --    0.79530   0.79581   0.79965   0.81406   0.86978

 Mulliken charges and spin densities:
               1          2
     1  O   -0.000140   0.999874
     2  O    0.000281   1.000112
     3  O   -0.000819   0.999359
     4  O    0.000678   1.000655
 Sum of Mulliken charges =  -0.00000   4.00000

 Dipole moment (field-independent basis, Debye):
    X=              0.0016    Y=              0.0044    Z=              0.0000  Tot=              0.0046
 Quadrupole moment (field-independent basis, Debye-Ang):
   XX=            -20.2386   YY=            -20.2198   ZZ=            -19.6382
   XY=             -0.0002   XZ=              0.0000   YZ=              0.0000

 2\MP4SDQ=-300.2210156\CCSD=-300.214543\CCSD(T)=-300.2498206\RMSD=2.354
 Normal termination of Gaussian 16 at Tue Feb 13 18:35:20 2024.
