 Gaussian 16, Revision A.03,
 Gaussian 16:  ES64L-G16RevA.03 25-Dec-2016

 --------------------
 #p ROCCSD(T)/cc-pVTZ
 --------------------

 ---------
 O2_O2_211
 ---------
 Symbolic Z-matrix:
 Charge =  0 Multiplicity = 5

                         Standard orientation:
 ---------------------------------------------------------------------
 Center     Atomic      Atomic             Coordinates (Angstroms)
 Number     Number       Type             X           Y           Z
 ---------------------------------------------------------------------
      1          8           0        0.615183   -2.805183    0.000000
      2          8           0       -0.205061   -1.984939    0.000000
      3          8           0       -0.205061    1.815061   -0.000000
      4          8           0       -0.205061    2.975061   -0.000000
 ---------------------------------------------------------------------

 SCF Done:  E(ROHF) =  -299.316630222     A.U. after   17 cycles
 E2 =    -0.9224908633D+00 EUMP2 =    -0.30023912108530D+03
 CCSD(T)
 CCSD(T)= -0.30024986284D+03

 The electronic state is 5-A'.
 Alpha  occ. eigenvalues --  -20.74026 -20.74009 -20.73948 -20.73931  -1.74525
 Alpha  occ. eigenvalues --   -1.74505  -1.17086  -1.17027  -0.83807  -0.83806
 Alpha  occ. eigenvalues --   -0.83783  -0.83780  -0.78217  -0.78056  -0.51017
 Alpha  occ. eigenvalues --   -0.51006  -0.50967  -0.50961
 Alpha virt. eigenvalues --    0.37948   0.44079   0.66042   0.67708   0.67926
 Alpha virt. eigenvalues --    0.68276   0.69569   0.74075   0.76598   0.78335
 Alpha virt. eigenvalues --    0.78945   0.80209   0.80702   0.85318   0.87044

 Mulliken charges and spin densities:
               1          2
     1  O   -0.000327   0.999297
     2  O    0.000490   1.000598
     3  O   -0.000158   1.000598
     4  O   -0.000004   0.999508
 Sum of Mulliken charges =  -0.00000   4.00000

 Dipole moment (field-independent basis, Debye):
    X=             -0.0035    Y=             -0.0022    Z=             -0.0000  Tot=              0.0041
 Quadrupole moment (field-independent basis, Debye-Ang):
   XX=            -19.9392   YY=            -20.5666   ZZ=            -19.6385
   XY=              0.3054   XZ=             -0.0000   YZ=              0.0000

 02\PMP2-0=-300.2391211\MP4SDQ=-300.2210607\CCSD=-300.2145771\CCSD(T)=-
 Normal termination of Gaussian 16 at Tue Feb 13 18:01:20 2024.
