 Gaussian 16, Revision A.03,
 Gaussian 16:  ES64L-G16RevA.03 25-Dec-2016

 --------------------
 #p ROCCSD(T)/cc-pVTZ
 --------------------

 ---------
 O2_O2_200
 ---------
 Symbolic Z-matrix:
 Charge =  0 Multiplicity = 5

                         Standard orientation:
 ---------------------------------------------------------------------
 Center     Atomic      Atomic             Coordinates (Angstroms)
 Number     Number       Type             X           Y           Z
 ---------------------------------------------------------------------
      1          8           0       -0.870000   -2.110000    0.000000
      2          8           0        0.290000   -2.110000    0.000000
      3          8           0        0.290000    1.530000    0.000000
      4          8           0        0.290000    2.690000    0.000000
 ---------------------------------------------------------------------

 SCF Done:  E(ROHF) =  -299.316671301     A.U. after   16 cycles
 E2 =    -0.9225994387D+00 EUMP2 =    -0.30023927073958D+03
 CCSD(T)
 CCSD(T)= -0.30025000490D+03

 The electronic state is 5-A'.
 Alpha  occ. eigenvalues --  -20.74101 -20.74022 -20.73993 -20.73916  -1.74596
 Alpha  occ. eigenvalues --   -1.74486  -1.17148  -1.17029  -0.83879  -0.83878
 Alpha  occ. eigenvalues --   -0.83766  -0.83761  -0.78254  -0.78084  -0.51109
 Alpha  occ. eigenvalues --   -0.51075  -0.50962  -0.50921
 Alpha virt. eigenvalues --    0.39826   0.41696   0.63575   0.67320   0.67743
 Alpha virt. eigenvalues --    0.68554   0.72058   0.74518   0.76827   0.78236
 Alpha virt. eigenvalues --    0.79354   0.80166   0.80298   0.83360   0.86935

 Mulliken charges and spin densities:
               1          2
     1  O   -0.000213   0.999792
     2  O    0.000540   1.000180
     3  O   -0.001604   0.999107
     4  O    0.001277   1.000921
 Sum of Mulliken charges =  -0.00000   4.00000

 Dipole moment (field-independent basis, Debye):
    X=              0.0026    Y=              0.0050    Z=              0.0000  Tot=              0.0057
 Quadrupole moment (field-independent basis, Debye-Ang):
   XX=            -20.2388   YY=            -20.2132   ZZ=            -19.6382
   XY=             -0.0003   XZ=              0.0000   YZ=              0.0000

 707\MP4SDQ=-300.2211836\CCSD=-300.2147056\CCSD(T)=-300.2500049\RMSD=3.
 Normal termination of Gaussian 16 at Tue Feb 13 17:44:58 2024.
