 Gaussian 16, Revision A.03,
 Gaussian 16:  ES64L-G16RevA.03 25-Dec-2016

 --------------------
 #p ROCCSD(T)/cc-pVTZ
 --------------------

 ---------
 O2_O2_202
 ---------
 Symbolic Z-matrix:
 Charge =  0 Multiplicity = 5

                         Standard orientation:
 ---------------------------------------------------------------------
 Center     Atomic      Atomic             Coordinates (Angstroms)
 Number     Number       Type             X           Y           Z
 ---------------------------------------------------------------------
      1          8           0        0.615183   -2.745183   -0.000000
      2          8           0       -0.205061   -1.924939   -0.000000
      3          8           0       -0.205061    1.755061    0.000000
      4          8           0       -0.205061    2.915061    0.000000
 ---------------------------------------------------------------------

 SCF Done:  E(ROHF) =  -299.316627253     A.U. after   17 cycles
 E2 =    -0.9225440240D+00 EUMP2 =    -0.30023917127652D+03
 CCSD(T)
 CCSD(T)= -0.30024990618D+03

 The electronic state is 5-A'.
 Alpha  occ. eigenvalues --  -20.74023 -20.74007 -20.73946 -20.73928  -1.74523
 Alpha  occ. eigenvalues --   -1.74502  -1.17094  -1.17014  -0.83806  -0.83804
 Alpha  occ. eigenvalues --   -0.83779  -0.83777  -0.78238  -0.78027  -0.51023
 Alpha  occ. eigenvalues --   -0.51007  -0.50959  -0.50950
 Alpha virt. eigenvalues --    0.37551   0.44353   0.65427   0.67603   0.67865
 Alpha virt. eigenvalues --    0.68358   0.69519   0.74256   0.76621   0.78182
 Alpha virt. eigenvalues --    0.78703   0.80422   0.80993   0.85876   0.87041

 Mulliken charges and spin densities:
               1          2
     1  O   -0.000298   0.999207
     2  O    0.000501   1.000661
     3  O   -0.000330   1.000669
     4  O    0.000128   0.999463
 Sum of Mulliken charges =  -0.00000   4.00000

 Dipole moment (field-independent basis, Debye):
    X=             -0.0039    Y=             -0.0026    Z=              0.0000  Tot=              0.0047
 Quadrupole moment (field-independent basis, Debye-Ang):
   XX=            -19.9393   YY=            -20.5692   ZZ=            -19.6385
   XY=              0.3061   XZ=              0.0000   YZ=             -0.0000

 Normal termination of Gaussian 16 at Tue Feb 13 17:47:48 2024.
