 Gaussian 16, Revision A.03,
 Gaussian 16:  ES64L-G16RevA.03 25-Dec-2016

 --------------------
 #p ROCCSD(T)/cc-pVTZ
 --------------------

 -------
 O2_O2_5
 -------
 Symbolic Z-matrix:
 Charge =  0 Multiplicity = 5

                         Standard orientation:
 ---------------------------------------------------------------------
 Center     Atomic      Atomic             Coordinates (Angstroms)
 Number     Number       Type             X           Y           Z
 ---------------------------------------------------------------------
      1          8           0       -0.870000   -0.810000    0.000000
      2          8           0        0.290000   -0.810000    0.000000
      3          8           0        0.290000    0.230000    0.000000
      4          8           0        0.290000    1.390000    0.000000
 ---------------------------------------------------------------------

 SCF Done:  E(ROHF) =  -298.560070450     A.U. after   22 cycles
 E2 =    -0.9062271820D+00 EUMP2 =    -0.29946629763246D+03
 CCSD(T)
 CCSD(T)= -0.29949432167D+03

 The electronic state is 5-A'.
 Alpha  occ. eigenvalues --  -20.76807 -20.76596 -20.68684 -20.66401  -2.08917
 Alpha  occ. eigenvalues --   -1.71984  -1.47450  -1.11539  -1.05192  -0.97745
 Alpha  occ. eigenvalues --   -0.91631  -0.77085  -0.74792  -0.60335  -0.59480
 Alpha  occ. eigenvalues --   -0.46251  -0.42292  -0.23086
 Alpha virt. eigenvalues --    0.39163   0.46323   0.59669   0.61646   0.64680
 Alpha virt. eigenvalues --    0.68597   0.70503   0.73975   0.75814   0.79959
 Alpha virt. eigenvalues --    0.86100   0.87422   0.92222   1.00476   1.15003

 Mulliken charges and spin densities:
               1          2
     1  O   -0.141015   0.889573
     2  O    0.162108   0.348519
     3  O    0.003594   1.217299
     4  O   -0.024688   1.544609
 Sum of Mulliken charges =  -0.00000   4.00000

 Dipole moment (field-independent basis, Debye):
    X=              0.5817    Y=             -0.9669    Z=              0.0000  Tot=              1.1284
 Quadrupole moment (field-independent basis, Debye-Ang):
   XX=            -20.3588   YY=            -23.5151   ZZ=            -18.7000
   XY=             -0.9419   XZ=              0.0000   YZ=              0.0000

 6\MP4SDQ=-299.4592503\CCSD=-299.4580451\CCSD(T)=-299.4943217\RMSD=4.62
 Normal termination of Gaussian 16 at Tue Feb 13 12:06:34 2024.
