 Gaussian 16, Revision A.03,
 Gaussian 16:  ES64L-G16RevA.03 25-Dec-2016

 --------------------
 #p ROCCSD(T)/cc-pVTZ
 --------------------

 ---------
 O2_O2_149
 ---------
 Symbolic Z-matrix:
 Charge =  0 Multiplicity = 5

                         Standard orientation:
 ---------------------------------------------------------------------
 Center     Atomic      Atomic             Coordinates (Angstroms)
 Number     Number       Type             X           Y           Z
 ---------------------------------------------------------------------
      1          8           0       -0.870000   -1.770000    0.000000
      2          8           0        0.290000   -1.770000    0.000000
      3          8           0        0.290000    1.190000    0.000000
      4          8           0        0.290000    2.350000    0.000000
 ---------------------------------------------------------------------

 SCF Done:  E(ROHF) =  -299.316101266     A.U. after   16 cycles
 E2 =    -0.9233386314D+00 EUMP2 =    -0.30023943989698D+03
 CCSD(T)
 CCSD(T)= -0.30025012843D+03

 The electronic state is 5-A'.
 Alpha  occ. eigenvalues --  -20.74128 -20.74027 -20.73931 -20.73839  -1.74633
 Alpha  occ. eigenvalues --   -1.74416  -1.17252  -1.16925  -0.83968  -0.83938
 Alpha  occ. eigenvalues --   -0.83756  -0.83672  -0.78403  -0.77828  -0.51319
 Alpha  occ. eigenvalues --   -0.51130  -0.50877  -0.50687
 Alpha virt. eigenvalues --    0.39765   0.42138   0.62311   0.65440   0.66486
 Alpha virt. eigenvalues --    0.69611   0.71916   0.73981   0.76754   0.78327
 Alpha virt. eigenvalues --    0.78891   0.78906   0.81970   0.86787   0.88767

 Mulliken charges and spin densities:
               1          2
     1  O   -0.000898   0.998054
     2  O    0.001231   1.001956
     3  O   -0.002727   0.997844
     4  O    0.002394   1.002146
 Sum of Mulliken charges =  -0.00000   4.00000

 Dipole moment (field-independent basis, Debye):
    X=              0.0126    Y=              0.0205    Z=              0.0000  Tot=              0.0240
 Quadrupole moment (field-independent basis, Debye-Ang):
   XX=            -20.2437   YY=            -20.2513   ZZ=            -19.6382
   XY=             -0.0111   XZ=              0.0000   YZ=              0.0000

 4399\MP4SDQ=-300.2212167\CCSD=-300.2147274\CCSD(T)=-300.2501284\RMSD=2
 Normal termination of Gaussian 16 at Tue Feb 13 16:27:21 2024.
