 Gaussian 16, Revision A.03,
 Gaussian 16:  ES64L-G16RevA.03 25-Dec-2016

 --------------------
 #p ROCCSD(T)/cc-pVTZ
 --------------------

 ---------
 O2_O2_143
 ---------
 Symbolic Z-matrix:
 Charge =  0 Multiplicity = 5

                         Standard orientation:
 ---------------------------------------------------------------------
 Center     Atomic      Atomic             Coordinates (Angstroms)
 Number     Number       Type             X           Y           Z
 ---------------------------------------------------------------------
      1          8           0       -0.870000   -1.730000    0.000000
      2          8           0        0.290000   -1.730000    0.000000
      3          8           0        0.290000    1.150000    0.000000
      4          8           0        0.290000    2.310000    0.000000
 ---------------------------------------------------------------------

 SCF Done:  E(ROHF) =  -299.315805738     A.U. after   16 cycles
 E2 =    -0.9234906891D+00 EUMP2 =    -0.30023929642732D+03
 CCSD(T)
 CCSD(T)= -0.30024997803D+03

 The electronic state is 5-A'.
 Alpha  occ. eigenvalues --  -20.74130 -20.74020 -20.73915 -20.73816  -1.74641
 Alpha  occ. eigenvalues --   -1.74399  -1.17284  -1.16896  -0.84002  -0.83953
 Alpha  occ. eigenvalues --   -0.83760  -0.83647  -0.78425  -0.77761  -0.51367
 Alpha  occ. eigenvalues --   -0.51143  -0.50854  -0.50633
 Alpha virt. eigenvalues --    0.40002   0.42294   0.62584   0.65122   0.66361
 Alpha virt. eigenvalues --    0.69751   0.71890   0.73901   0.76675   0.78087
 Alpha virt. eigenvalues --    0.78881   0.78930   0.82294   0.86767   0.89647

 Mulliken charges and spin densities:
               1          2
     1  O   -0.001132   0.997482
     2  O    0.001465   1.002534
     3  O   -0.002470   0.997527
     4  O    0.002137   1.002457
 Sum of Mulliken charges =  -0.00000   4.00000

 Dipole moment (field-independent basis, Debye):
    X=              0.0154    Y=              0.0242    Z=              0.0000  Tot=              0.0287
 Quadrupole moment (field-independent basis, Debye-Ang):
   XX=            -20.2452   YY=            -20.2631   ZZ=            -19.6381
   XY=             -0.0148   XZ=              0.0000   YZ=              0.0000

 2964\MP4SDQ=-300.2210452\CCSD=-300.2145553\CCSD(T)=-300.249978\RMSD=3.
 Normal termination of Gaussian 16 at Tue Feb 13 16:18:04 2024.
