 Gaussian 16, Revision A.03,
 Gaussian 16:  ES64L-G16RevA.03 25-Dec-2016

 --------------------
 #p ROCCSD(T)/cc-pVTZ
 --------------------

 ---------
 O2_O2_132
 ---------
 Symbolic Z-matrix:
 Charge =  0 Multiplicity = 5

                         Standard orientation:
 ---------------------------------------------------------------------
 Center     Atomic      Atomic             Coordinates (Angstroms)
 Number     Number       Type             X           Y           Z
 ---------------------------------------------------------------------
      1          8           0        0.000000    0.000000    2.540000
      2          8           0        0.000000    0.000000    1.380000
      3          8           0        0.000000    0.000000   -1.380000
      4          8           0        0.000000    0.000000   -2.540000
 ---------------------------------------------------------------------

 SCF Done:  E(ROHF) =  -299.315409653     A.U. after   12 cycles
 E2 =    -0.9235305182D+00 EUMP2 =    -0.30023894017136D+03
 CCSD(T)
 CCSD(T)= -0.30024954615D+03

 The electronic state is 5-SGG.
 Alpha  occ. eigenvalues --  -20.73904 -20.73904 -20.73828 -20.73828  -1.74466
 Alpha  occ. eigenvalues --   -1.74400  -1.17459  -1.16542  -0.83804  -0.83804
 Alpha  occ. eigenvalues --   -0.83617  -0.83617  -0.79033  -0.77078  -0.51196
 Alpha  occ. eigenvalues --   -0.51196  -0.50608  -0.50608
 Alpha virt. eigenvalues --    0.38698   0.47956   0.65492   0.65492   0.66534
 Alpha virt. eigenvalues --    0.69359   0.69359   0.75580   0.75782   0.75782
 Alpha virt. eigenvalues --    0.79815   0.85967   0.86699   0.86699   0.86991

 Mulliken charges and spin densities:
               1          2
     1  O   -0.005764   0.998769
     2  O    0.005764   1.001231
     3  O    0.005764   1.001231
     4  O   -0.005764   0.998769
 Sum of Mulliken charges =  -0.00000   4.00000

 Dipole moment (field-independent basis, Debye):
    X=             -0.0000    Y=              0.0000    Z=              0.0000  Tot=              0.0000
 Quadrupole moment (field-independent basis, Debye-Ang):
   XX=            -19.6387   YY=            -19.6387   ZZ=            -20.9753
   XY=              0.0000   XZ=              0.0000   YZ=              0.0000

 89402\MP4SDQ=-300.2206993\CCSD=-300.2141388\CCSD(T)=-300.2495461\RMSD=
 Normal termination of Gaussian 16 at Tue Feb 13 15:59:45 2024.
