 Gaussian 16, Revision A.03,
 Gaussian 16:  ES64L-G16RevA.03 25-Dec-2016

 --------------------
 #p ROCCSD(T)/cc-pVTZ
 --------------------

 --------
 O2_O2_80
 --------
 Symbolic Z-matrix:
 Charge =  0 Multiplicity = 5

                         Standard orientation:
 ---------------------------------------------------------------------
 Center     Atomic      Atomic             Coordinates (Angstroms)
 Number     Number       Type             X           Y           Z
 ---------------------------------------------------------------------
      1          8           0       -0.870000   -1.310000    0.000000
      2          8           0        0.290000   -1.310000    0.000000
      3          8           0        0.290000    0.730000    0.000000
      4          8           0        0.290000    1.890000    0.000000
 ---------------------------------------------------------------------

 SCF Done:  E(ROHF) =  -299.285036277     A.U. after   21 cycles
 E2 =    -0.9228684507D+00 EUMP2 =    -0.30020790472815D+03
 CCSD(T)
 CCSD(T)= -0.30022300972D+03

 The electronic state is 5-A'.
 Alpha  occ. eigenvalues --  -20.74126 -20.73549 -20.73410 -20.72363  -1.75249
 Alpha  occ. eigenvalues --   -1.73774  -1.19152  -1.15799  -0.86665  -0.84644
 Alpha  occ. eigenvalues --   -0.83941  -0.82763  -0.78136  -0.74673  -0.52536
 Alpha  occ. eigenvalues --   -0.51688  -0.49985  -0.49023
 Alpha virt. eigenvalues --    0.41279   0.45796   0.63431   0.66588   0.68792
 Alpha virt. eigenvalues --    0.71113   0.71295   0.73683   0.75723   0.77919
 Alpha virt. eigenvalues --    0.79128   0.85504   0.86713   0.88815   0.97380

 Mulliken charges and spin densities:
               1          2
     1  O   -0.024951   0.959638
     2  O    0.022786   1.037735
     3  O    0.013883   0.985448
     4  O   -0.011718   1.017179
 Sum of Mulliken charges =  -0.00000   4.00000

 Dipole moment (field-independent basis, Debye):
    X=              0.1640    Y=              0.1092    Z=              0.0000  Tot=              0.1970
 Quadrupole moment (field-independent basis, Debye-Ang):
   XX=            -20.3366   YY=            -20.5755   ZZ=            -19.6043
   XY=             -0.2157   XZ=              0.0000   YZ=              0.0000

 47\MP4SDQ=-300.1922309\CCSD=-300.1870703\CCSD(T)=-300.2230097\RMSD=6.9
 Normal termination of Gaussian 16 at Tue Feb 13 14:33:47 2024.
