 Gaussian 16, Revision A.03,
 Gaussian 16:  ES64L-G16RevA.03 25-Dec-2016

 --------------------
 #p ROCCSD(T)/cc-pVTZ
 --------------------

 --------
 O2_O2_93
 --------
 Symbolic Z-matrix:
 Charge =  0 Multiplicity = 5

                         Standard orientation:
 ---------------------------------------------------------------------
 Center     Atomic      Atomic             Coordinates (Angstroms)
 Number     Number       Type             X           Y           Z
 ---------------------------------------------------------------------
      1          8           0        0.000000    0.000000    2.280000
      2          8           0        0.000000    0.000000    1.120000
      3          8           0        0.000000    0.000000   -1.120000
      4          8           0        0.000000    0.000000   -2.280000
 ---------------------------------------------------------------------

 SCF Done:  E(ROHF) =  -299.305249610     A.U. after   11 cycles
 E2 =    -0.9257125795D+00 EUMP2 =    -0.30023096218985D+03
 CCSD(T)
 CCSD(T)= -0.30024113671D+03

 The electronic state is 5-SGG.
 Alpha  occ. eigenvalues --  -20.73690 -20.73690 -20.73413 -20.73412  -1.74454
 Alpha  occ. eigenvalues --   -1.74118  -1.18796  -1.15352  -0.83912  -0.83912
 Alpha  occ. eigenvalues --   -0.83216  -0.83216  -0.80809  -0.74896  -0.51658
 Alpha  occ. eigenvalues --   -0.51658  -0.49849  -0.49849
 Alpha virt. eigenvalues --    0.42550   0.48386   0.64201   0.64201   0.70006
 Alpha virt. eigenvalues --    0.70006   0.70913   0.75384   0.75384   0.76214
 Alpha virt. eigenvalues --    0.85211   0.85593   0.87318   0.92025   0.92025

 Mulliken charges and spin densities:
               1          2
     1  O   -0.020883   1.002733
     2  O    0.020883   0.997267
     3  O    0.020883   0.997267
     4  O   -0.020883   1.002733
 Sum of Mulliken charges =   0.00000   4.00000

 Dipole moment (field-independent basis, Debye):
    X=             -0.0000    Y=              0.0000    Z=              0.0000  Tot=              0.0000
 Quadrupole moment (field-independent basis, Debye-Ang):
   XX=            -19.6326   YY=            -19.6326   ZZ=            -21.1461
   XY=              0.0000   XZ=              0.0000   YZ=              0.0000

 22\MP4SDQ=-300.2122022\CCSD=-300.2054809\CCSD(T)=-300.2411367\RMSD=4.3
 Normal termination of Gaussian 16 at Tue Feb 13 14:57:06 2024.
