 Gaussian 16, Revision A.03,
 Gaussian 16:  ES64L-G16RevA.03 25-Dec-2016

 --------------------
 #p ROCCSD(T)/cc-pVTZ
 --------------------

 ---------
 O2_O2_145
 ---------
 Symbolic Z-matrix:
 Charge =  0 Multiplicity = 5

                         Standard orientation:
 ---------------------------------------------------------------------
 Center     Atomic      Atomic             Coordinates (Angstroms)
 Number     Number       Type             X           Y           Z
 ---------------------------------------------------------------------
      1          8           0        0.615183   -2.365183   -0.000000
      2          8           0       -0.205061   -1.544939   -0.000000
      3          8           0       -0.205061    1.375061    0.000000
      4          8           0       -0.205061    2.535061    0.000000
 ---------------------------------------------------------------------

 SCF Done:  E(ROHF) =  -299.315967674     A.U. after   18 cycles
 E2 =    -0.9232499143D+00 EUMP2 =    -0.30023921758832D+03
 CCSD(T)
 CCSD(T)= -0.30024987520D+03

 The electronic state is 5-A'.
 Alpha  occ. eigenvalues --  -20.73978 -20.73936 -20.73902 -20.73846  -1.74505
 Alpha  occ. eigenvalues --   -1.74433  -1.17310  -1.16739  -0.83822  -0.83818
 Alpha  occ. eigenvalues --   -0.83709  -0.83676  -0.78649  -0.77515  -0.51137
 Alpha  occ. eigenvalues --   -0.51048  -0.50821  -0.50744
 Alpha virt. eigenvalues --    0.38362   0.45530   0.64319   0.65960   0.66626
 Alpha virt. eigenvalues --    0.69227   0.70248   0.74733   0.76536   0.77282
 Alpha virt. eigenvalues --    0.77882   0.83256   0.84801   0.85693   0.87102

 Mulliken charges and spin densities:
               1          2
     1  O   -0.001717   0.997513
     2  O    0.001896   1.002410
     3  O    0.000616   1.000599
     4  O   -0.000795   0.999479
 Sum of Mulliken charges =   0.00000   4.00000

 Dipole moment (field-independent basis, Debye):
    X=             -0.0111    Y=              0.0048    Z=              0.0000  Tot=              0.0121
 Quadrupole moment (field-independent basis, Debye-Ang):
   XX=            -19.9439   YY=            -20.6382   ZZ=            -19.6386
   XY=              0.3181   XZ=              0.0000   YZ=             -0.0000

 Normal termination of Gaussian 16 at Tue Feb 13 16:21:05 2024.
