 Gaussian 16, Revision A.03,
 Gaussian 16:  ES64L-G16RevA.03 25-Dec-2016

 --------------------
 #p ROCCSD(T)/cc-pVTZ
 --------------------

 ---------
 O2_O2_152
 ---------
 Symbolic Z-matrix:
 Charge =  0 Multiplicity = 5

                         Standard orientation:
 ---------------------------------------------------------------------
 Center     Atomic      Atomic             Coordinates (Angstroms)
 Number     Number       Type             X           Y           Z
 ---------------------------------------------------------------------
      1          8           0       -0.870000   -1.790000    0.000000
      2          8           0        0.290000   -1.790000    0.000000
      3          8           0        0.290000    1.210000    0.000000
      4          8           0        0.290000    2.370000    0.000000
 ---------------------------------------------------------------------

 SCF Done:  E(ROHF) =  -299.316213414     A.U. after   16 cycles
 E2 =    -0.9232695755D+00 EUMP2 =    -0.30023948298938D+03
 CCSD(T)
 CCSD(T)= -0.30025017497D+03

 The electronic state is 5-A'.
 Alpha  occ. eigenvalues --  -20.74126 -20.74029 -20.73937 -20.73849  -1.74629
 Alpha  occ. eigenvalues --   -1.74424  -1.17239  -1.16938  -0.83955  -0.83932
 Alpha  occ. eigenvalues --   -0.83754  -0.83683  -0.78391  -0.77857  -0.51298
 Alpha  occ. eigenvalues --   -0.51125  -0.50887  -0.50711
 Alpha virt. eigenvalues --    0.39657   0.42076   0.62211   0.65594   0.66568
 Alpha virt. eigenvalues --    0.69541   0.71929   0.74030   0.76752   0.78384
 Alpha virt. eigenvalues --    0.78922   0.78972   0.81818   0.86795   0.88339

 Mulliken charges and spin densities:
               1          2
     1  O   -0.000802   0.998290
     2  O    0.001141   1.001717
     3  O   -0.002801   0.997980
     4  O    0.002462   1.002013
 Sum of Mulliken charges =  -0.00000   4.00000

 Dipole moment (field-independent basis, Debye):
    X=              0.0114    Y=              0.0188    Z=              0.0000  Tot=              0.0220
 Quadrupole moment (field-independent basis, Debye-Ang):
   XX=            -20.2431   YY=            -20.2462   ZZ=            -19.6382
   XY=             -0.0096   XZ=              0.0000   YZ=              0.0000

 \MP4SDQ=-300.2212726\CCSD=-300.2147837\CCSD(T)=-300.250175\RMSD=2.720e
 Normal termination of Gaussian 16 at Tue Feb 13 16:32:03 2024.
