 Gaussian 16, Revision A.03,
 Gaussian 16:  ES64L-G16RevA.03 25-Dec-2016

 --------------------
 #p ROCCSD(T)/cc-pVTZ
 --------------------

 --------
 O2_O2_67
 --------
 Symbolic Z-matrix:
 Charge =  0 Multiplicity = 5

                         Standard orientation:
 ---------------------------------------------------------------------
 Center     Atomic      Atomic             Coordinates (Angstroms)
 Number     Number       Type             X           Y           Z
 ---------------------------------------------------------------------
      1          8           0        0.615183   -1.845183   -0.000000
      2          8           0       -0.205061   -1.024939   -0.000000
      3          8           0       -0.205061    0.855061    0.000000
      4          8           0       -0.205061    2.015061    0.000000
 ---------------------------------------------------------------------

 SCF Done:  E(ROHF) =  -299.266754987     A.U. after   21 cycles
 E2 =    -0.9260342292D+00 EUMP2 =    -0.30019278921628D+03
 CCSD(T)
 CCSD(T)= -0.30020612608D+03

 The electronic state is 5-A'.
 Alpha  occ. eigenvalues --  -20.73972 -20.73004 -20.72644 -20.72355  -1.75015
 Alpha  occ. eigenvalues --   -1.73585  -1.21848  -1.13645  -0.85820  -0.84550
 Alpha  occ. eigenvalues --   -0.83923  -0.82550  -0.80483  -0.72041  -0.52630
 Alpha  occ. eigenvalues --   -0.51567  -0.48900  -0.48733
 Alpha virt. eigenvalues --    0.43461   0.47665   0.64074   0.64432   0.70611
 Alpha virt. eigenvalues --    0.71156   0.72241   0.75275   0.77372   0.77801
 Alpha virt. eigenvalues --    0.79321   0.85475   0.92424   0.94039   0.96361

 Mulliken charges and spin densities:
               1          2
     1  O   -0.030212   0.971037
     2  O    0.023867   1.022001
     3  O    0.018842   0.978250
     4  O   -0.012496   1.028712
 Sum of Mulliken charges =   0.00000   4.00000

 Dipole moment (field-independent basis, Debye):
    X=             -0.1033    Y=              0.2320    Z=              0.0000  Tot=              0.2540
 Quadrupole moment (field-independent basis, Debye-Ang):
   XX=            -20.0342   YY=            -21.2295   ZZ=            -19.5879
   XY=              0.4647   XZ=             -0.0000   YZ=             -0.0000

 5\PMP2-0=-300.1927892\MP4SDQ=-300.1758599\CCSD=-300.1700092\CCSD(T)=-3
 Normal termination of Gaussian 16 at Tue Feb 13 14:09:58 2024.
