 Gaussian 16, Revision A.03,
 Gaussian 16:  ES64L-G16RevA.03 25-Dec-2016

 --------------------
 #p ROCCSD(T)/cc-pVTZ
 --------------------

 ---------
 O2_O2_208
 ---------
 Symbolic Z-matrix:
 Charge =  0 Multiplicity = 5

                         Standard orientation:
 ---------------------------------------------------------------------
 Center     Atomic      Atomic             Coordinates (Angstroms)
 Number     Number       Type             X           Y           Z
 ---------------------------------------------------------------------
      1          8           0        0.615183   -2.785183    0.000000
      2          8           0       -0.205061   -1.964939    0.000000
      3          8           0       -0.205061    1.795061   -0.000000
      4          8           0       -0.205061    2.955061   -0.000000
 ---------------------------------------------------------------------

 SCF Done:  E(ROHF) =  -299.316629993     A.U. after   17 cycles
 E2 =    -0.9225074937D+00 EUMP2 =    -0.30023913748649D+03
 CCSD(T)
 CCSD(T)= -0.30024987703D+03

 The electronic state is 5-A'.
 Alpha  occ. eigenvalues --  -20.74025 -20.74009 -20.73948 -20.73930  -1.74524
 Alpha  occ. eigenvalues --   -1.74504  -1.17088  -1.17023  -0.83806  -0.83805
 Alpha  occ. eigenvalues --   -0.83782  -0.83779  -0.78223  -0.78047  -0.51019
 Alpha  occ. eigenvalues --   -0.51006  -0.50964  -0.50958
 Alpha virt. eigenvalues --    0.37808   0.44173   0.65836   0.67676   0.67909
 Alpha virt. eigenvalues --    0.68302   0.69544   0.74138   0.76601   0.78287
 Alpha virt. eigenvalues --    0.78869   0.80273   0.80792   0.85562   0.87043

 Mulliken charges and spin densities:
               1          2
     1  O   -0.000316   0.999270
     2  O    0.000491   1.000615
     3  O   -0.000213   1.000622
     4  O    0.000037   0.999493
 Sum of Mulliken charges =  -0.00000   4.00000

 Dipole moment (field-independent basis, Debye):
    X=             -0.0036    Y=             -0.0024    Z=             -0.0000  Tot=              0.0043
 Quadrupole moment (field-independent basis, Debye-Ang):
   XX=            -19.9392   YY=            -20.5673   ZZ=            -19.6385
   XY=              0.3056   XZ=             -0.0000   YZ=              0.0000

 \PMP2-0=-300.2391375\MP4SDQ=-300.2210738\CCSD=-300.2145893\CCSD(T)=-30
 Normal termination of Gaussian 16 at Tue Feb 13 17:56:43 2024.
