 Gaussian 16, Revision A.03,
 Gaussian 16:  ES64L-G16RevA.03 25-Dec-2016

 --------------------
 #p ROCCSD(T)/cc-pVTZ
 --------------------

 ---------
 O2_O2_238
 ---------
 Symbolic Z-matrix:
 Charge =  0 Multiplicity = 5

                         Standard orientation:
 ---------------------------------------------------------------------
 Center     Atomic      Atomic             Coordinates (Angstroms)
 Number     Number       Type             X           Y           Z
 ---------------------------------------------------------------------
      1          8           0        0.615183   -2.985183    0.000000
      2          8           0       -0.205061   -2.164939    0.000000
      3          8           0       -0.205061    1.995061   -0.000000
      4          8           0       -0.205061    3.155061   -0.000000
 ---------------------------------------------------------------------

 SCF Done:  E(ROHF) =  -299.316615195     A.U. after   13 cycles
 E2 =    -0.9223819214D+00 EUMP2 =    -0.30023899711644D+03
 CCSD(T)
 CCSD(T)= -0.30024975550D+03

 The electronic state is 5-A'.
 Alpha  occ. eigenvalues --  -20.74031 -20.74013 -20.73955 -20.73935  -1.74531
 Alpha  occ. eigenvalues --   -1.74510  -1.17078  -1.17049  -0.83811  -0.83811
 Alpha  occ. eigenvalues --   -0.83790  -0.83788  -0.78180  -0.78108  -0.51010
 Alpha  occ. eigenvalues --   -0.51007  -0.50981  -0.50981
 Alpha virt. eigenvalues --    0.39300   0.43183   0.67473   0.67890   0.67995
 Alpha virt. eigenvalues --    0.68115   0.70222   0.73407   0.76807   0.78582
 Alpha virt. eigenvalues --    0.79430   0.79866   0.80156   0.82154   0.87050

 Mulliken charges and spin densities:
               1          2
     1  O   -0.000425   0.999438
     2  O    0.000487   1.000521
     3  O    0.000157   1.000411
     4  O   -0.000220   0.999629
 Sum of Mulliken charges =  -0.00000   4.00000

 Dipole moment (field-independent basis, Debye):
    X=             -0.0027    Y=             -0.0006    Z=             -0.0000  Tot=              0.0028
 Quadrupole moment (field-independent basis, Debye-Ang):
   XX=            -19.9390   YY=            -20.5634   ZZ=            -19.6384
   XY=              0.3044   XZ=              0.0000   YZ=              0.0000

 152\PMP2-0=-300.2389971\MP4SDQ=-300.2209595\CCSD=-300.2144823\CCSD(T)=
 Normal termination of Gaussian 16 at Tue Feb 13 18:49:30 2024.
