 Gaussian 16, Revision A.03,
 Gaussian 16:  ES64L-G16RevA.03 25-Dec-2016

 --------------------
 #p ROCCSD(T)/cc-pVTZ
 --------------------

 --------
 O2_O2_41
 --------
 Symbolic Z-matrix:
 Charge =  0 Multiplicity = 5

                         Standard orientation:
 ---------------------------------------------------------------------
 Center     Atomic      Atomic             Coordinates (Angstroms)
 Number     Number       Type             X           Y           Z
 ---------------------------------------------------------------------
      1          8           0       -0.870000   -1.050000    0.000000
      2          8           0        0.290000   -1.050000    0.000000
      3          8           0        0.290000    0.470000    0.000000
      4          8           0        0.290000    1.630000    0.000000
 ---------------------------------------------------------------------

 SCF Done:  E(ROHF) =  -299.119639697     A.U. after   21 cycles
 E2 =    -0.9085918175D+00 EUMP2 =    -0.30002823151419D+03
 CCSD(T)
 CCSD(T)= -0.30005784286D+03

 The electronic state is 5-A'.
 Alpha  occ. eigenvalues --  -20.74342 -20.74176 -20.72580 -20.67772  -1.80099
 Alpha  occ. eigenvalues --   -1.72797  -1.27839  -1.13143  -0.92311  -0.88304
 Alpha  occ. eigenvalues --   -0.86145  -0.81013  -0.76551  -0.65017  -0.54162
 Alpha  occ. eigenvalues --   -0.53882  -0.47938  -0.44812
 Alpha virt. eigenvalues --    0.41391   0.46526   0.62446   0.64611   0.67774
 Alpha virt. eigenvalues --    0.70119   0.72416   0.74206   0.78724   0.79669
 Alpha virt. eigenvalues --    0.81607   0.85848   0.87215   0.98708   0.99339

 Mulliken charges and spin densities:
               1          2
     1  O   -0.105659   0.854871
     2  O    0.069883   1.059624
     3  O    0.064947   1.038596
     4  O   -0.029171   1.046909
 Sum of Mulliken charges =  -0.00000   4.00000

 Dipole moment (field-independent basis, Debye):
    X=              0.5842    Y=              0.4201    Z=              0.0000  Tot=              0.7195
 Quadrupole moment (field-independent basis, Debye-Ang):
   XX=            -20.6435   YY=            -21.3692   ZZ=            -19.3654
   XY=             -0.5542   XZ=              0.0000   YZ=              0.0000

 315\MP4SDQ=-300.0225529\CCSD=-300.0213616\CCSD(T)=-300.0578429\RMSD=6.
 Normal termination of Gaussian 16 at Tue Feb 13 13:19:36 2024.
