 Gaussian 16, Revision A.03,
 Gaussian 16:  ES64L-G16RevA.03 25-Dec-2016

 --------------------
 #p ROCCSD(T)/cc-pVTZ
 --------------------

 ---------
 O2_O2_164
 ---------
 Symbolic Z-matrix:
 Charge =  0 Multiplicity = 5

                         Standard orientation:
 ---------------------------------------------------------------------
 Center     Atomic      Atomic             Coordinates (Angstroms)
 Number     Number       Type             X           Y           Z
 ---------------------------------------------------------------------
      1          8           0       -0.870000   -1.870000    0.000000
      2          8           0        0.290000   -1.870000    0.000000
      3          8           0        0.290000    1.290000    0.000000
      4          8           0        0.290000    2.450000    0.000000
 ---------------------------------------------------------------------

 SCF Done:  E(ROHF) =  -299.316498116     A.U. after   16 cycles
 E2 =    -0.9230337131D+00 EUMP2 =    -0.30023953182918D+03
 CCSD(T)
 CCSD(T)= -0.30025023631D+03

 The electronic state is 5-A'.
 Alpha  occ. eigenvalues --  -20.74121 -20.74033 -20.73959 -20.73878  -1.74618
 Alpha  occ. eigenvalues --   -1.74448  -1.17199  -1.16976  -0.83919  -0.83911
 Alpha  occ. eigenvalues --   -0.83752  -0.83717  -0.78347  -0.77948  -0.51227
 Alpha  occ. eigenvalues --   -0.51107  -0.50918  -0.50791
 Alpha virt. eigenvalues --    0.39349   0.41906   0.62050   0.66167   0.66942
 Alpha virt. eigenvalues --    0.69262   0.71977   0.74277   0.76636   0.78347
 Alpha virt. eigenvalues --    0.79007   0.79600   0.81279   0.86642   0.86921

 Mulliken charges and spin densities:
               1          2
     1  O   -0.000529   0.998985
     2  O    0.000908   1.001006
     3  O   -0.002808   0.998415
     4  O    0.002429   1.001595
 Sum of Mulliken charges =  -0.00000   4.00000

 Dipole moment (field-independent basis, Debye):
    X=              0.0077    Y=              0.0131    Z=              0.0000  Tot=              0.0152
 Quadrupole moment (field-independent basis, Debye-Ang):
   XX=            -20.2411   YY=            -20.2298   ZZ=            -19.6382
   XY=             -0.0052   XZ=              0.0000   YZ=              0.0000

 5318\MP4SDQ=-300.2213646\CCSD=-300.2148781\CCSD(T)=-300.2502363\RMSD=2
 Normal termination of Gaussian 16 at Tue Feb 13 16:50:19 2024.
