 Gaussian 16, Revision A.03,
 Gaussian 16:  ES64L-G16RevA.03 25-Dec-2016

 --------------------
 #p ROCCSD(T)/cc-pVTZ
 --------------------

 ---------
 O2_O2_161
 ---------
 Symbolic Z-matrix:
 Charge =  0 Multiplicity = 5

                         Standard orientation:
 ---------------------------------------------------------------------
 Center     Atomic      Atomic             Coordinates (Angstroms)
 Number     Number       Type             X           Y           Z
 ---------------------------------------------------------------------
      1          8           0       -0.870000   -1.850000    0.000000
      2          8           0        0.290000   -1.850000    0.000000
      3          8           0        0.290000    1.270000    0.000000
      4          8           0        0.290000    2.430000    0.000000
 ---------------------------------------------------------------------

 SCF Done:  E(ROHF) =  -299.316446554     A.U. after   16 cycles
 E2 =    -0.9230871250D+00 EUMP2 =    -0.30023953367928D+03
 CCSD(T)
 CCSD(T)= -0.30025023523D+03

 The electronic state is 5-A'.
 Alpha  occ. eigenvalues --  -20.74122 -20.74032 -20.73955 -20.73872  -1.74621
 Alpha  occ. eigenvalues --   -1.74442  -1.17207  -1.16968  -0.83926  -0.83916
 Alpha  occ. eigenvalues --   -0.83752  -0.83710  -0.78358  -0.77929  -0.51243
 Alpha  occ. eigenvalues --   -0.51111  -0.50911  -0.50774
 Alpha virt. eigenvalues --    0.39404   0.41940   0.62055   0.66032   0.66846
 Alpha virt. eigenvalues --    0.69331   0.71965   0.74210   0.76672   0.78366
 Alpha virt. eigenvalues --    0.78983   0.79438   0.81403   0.86787   0.87150

 Mulliken charges and spin densities:
               1          2
     1  O   -0.000583   0.998842
     2  O    0.000951   1.001152
     3  O   -0.002843   0.998320
     4  O    0.002475   1.001685
 Sum of Mulliken charges =  -0.00000   4.00000

 Dipole moment (field-independent basis, Debye):
    X=              0.0085    Y=              0.0144    Z=              0.0000  Tot=              0.0167
 Quadrupole moment (field-independent basis, Debye-Ang):
   XX=            -20.2415   YY=            -20.2333   ZZ=            -19.6382
   XY=             -0.0061   XZ=              0.0000   YZ=              0.0000

 5337\MP4SDQ=-300.2213567\CCSD=-300.2148696\CCSD(T)=-300.2502352\RMSD=2
 Normal termination of Gaussian 16 at Tue Feb 13 16:45:48 2024.
