 Gaussian 16, Revision A.03,
 Gaussian 16:  ES64L-G16RevA.03 25-Dec-2016

 --------------------
 #p ROCCSD(T)/cc-pVTZ
 --------------------

 -------
 O2_O2_1
 -------
 Symbolic Z-matrix:
 Charge =  0 Multiplicity = 5

                         Standard orientation:
 ---------------------------------------------------------------------
 Center     Atomic      Atomic             Coordinates (Angstroms)
 Number     Number       Type             X           Y           Z
 ---------------------------------------------------------------------
      1          8           0        0.615183   -1.405183    0.000000
      2          8           0       -0.205061   -0.584939    0.000000
      3          8           0       -0.205061    0.415061   -0.000000
      4          8           0       -0.205061    1.575061   -0.000000
 ---------------------------------------------------------------------

 SCF Done:  E(ROHF) =  -298.554327372     A.U. after   21 cycles
 E2 =    -0.8992650451D+00 EUMP2 =    -0.29945359241674D+03
 CCSD(T)
 CCSD(T)= -0.29948423720D+03

 The electronic state is 5-A'.
 Alpha  occ. eigenvalues --  -20.77343 -20.75638 -20.69449 -20.67153  -2.04613
 Alpha  occ. eigenvalues --   -1.73787  -1.56308  -1.05942  -1.04855  -1.01180
 Alpha  occ. eigenvalues --   -0.92642  -0.79015  -0.74679  -0.62579  -0.57396
 Alpha  occ. eigenvalues --   -0.45330  -0.37955  -0.23794
 Alpha virt. eigenvalues --    0.45235   0.51094   0.61297   0.61317   0.62513
 Alpha virt. eigenvalues --    0.67177   0.71620   0.75527   0.79185   0.81106
 Alpha virt. eigenvalues --    0.82925   0.91010   0.91529   0.97595   1.21356

 Mulliken charges and spin densities:
               1          2
     1  O   -0.197830   0.769716
     2  O    0.151725   0.470456
     3  O   -0.019826   1.090535
     4  O    0.065931   1.669293
 Sum of Mulliken charges =  -0.00000   4.00000

 Dipole moment (field-independent basis, Debye):
    X=             -0.4611    Y=              0.2638    Z=             -0.0000  Tot=              0.5313
 Quadrupole moment (field-independent basis, Debye-Ang):
   XX=            -20.3425   YY=            -24.7363   ZZ=            -18.6114
   XY=              0.9682   XZ=             -0.0000   YZ=              0.0000

 74\PMP2-0=-299.4535924\MP4SDQ=-299.4492723\CCSD=-299.4477727\CCSD(T)=-
 Normal termination of Gaussian 16 at Tue Feb 13 11:57:46 2024.
