 Gaussian 16, Revision A.03,
 Gaussian 16:  ES64L-G16RevA.03 25-Dec-2016

 --------------------
 #p ROCCSD(T)/cc-pVTZ
 --------------------

 ---------
 O2_O2_107
 ---------
 Symbolic Z-matrix:
 Charge =  0 Multiplicity = 5

                         Standard orientation:
 ---------------------------------------------------------------------
 Center     Atomic      Atomic             Coordinates (Angstroms)
 Number     Number       Type             X           Y           Z
 ---------------------------------------------------------------------
      1          8           0       -0.870000   -1.490000    0.000000
      2          8           0        0.290000   -1.490000    0.000000
      3          8           0        0.290000    0.910000    0.000000
      4          8           0        0.290000    2.070000    0.000000
 ---------------------------------------------------------------------

 SCF Done:  E(ROHF) =  -299.309055013     A.U. after   21 cycles
 E2 =    -0.9247452325D+00 EUMP2 =    -0.30023380024568D+03
 CCSD(T)
 CCSD(T)= -0.30024472156D+03

 The electronic state is 5-A'.
 Alpha  occ. eigenvalues --  -20.74137 -20.73837 -20.73761 -20.73447  -1.74771
 Alpha  occ. eigenvalues --   -1.74185  -1.17784  -1.16531  -0.84718  -0.84149
 Alpha  occ. eigenvalues --   -0.83798  -0.83334  -0.78459  -0.76849  -0.51843
 Alpha  occ. eigenvalues --   -0.51301  -0.50565  -0.50050
 Alpha virt. eigenvalues --    0.40998   0.44315   0.63464   0.64898   0.68805
 Alpha virt. eigenvalues --    0.70530   0.71470   0.73693   0.74008   0.77669
 Alpha virt. eigenvalues --    0.78911   0.82003   0.84418   0.86651   0.94762

 Mulliken charges and spin densities:
               1          2
     1  O   -0.005697   0.987851
     2  O    0.006003   1.012036
     3  O    0.003994   0.993113
     4  O   -0.004300   1.007000
 Sum of Mulliken charges =  -0.00000   4.00000

 Dipole moment (field-independent basis, Debye):
    X=              0.0566    Y=              0.0594    Z=              0.0000  Tot=              0.0821
 Quadrupole moment (field-independent basis, Debye-Ang):
   XX=            -20.2685   YY=            -20.3900   ZZ=            -19.6343
   XY=             -0.0720   XZ=              0.0000   YZ=              0.0000

 2\MP4SDQ=-300.2154742\CCSD=-300.2090807\CCSD(T)=-300.2447216\RMSD=6.34
 Normal termination of Gaussian 16 at Tue Feb 13 15:21:57 2024.
