 Gaussian 16, Revision A.03,
 Gaussian 16:  ES64L-G16RevA.03 25-Dec-2016

 --------------------
 #p ROCCSD(T)/cc-pVTZ
 --------------------

 --------
 O2_O2_57
 --------
 Symbolic Z-matrix:
 Charge =  0 Multiplicity = 5

                         Standard orientation:
 ---------------------------------------------------------------------
 Center     Atomic      Atomic             Coordinates (Angstroms)
 Number     Number       Type             X           Y           Z
 ---------------------------------------------------------------------
      1          8           0        0.000000    0.000000    2.040000
      2          8           0        0.000000    0.000000    0.880000
      3          8           0        0.000000    0.000000   -0.880000
      4          8           0        0.000000    0.000000   -2.040000
 ---------------------------------------------------------------------

 SCF Done:  E(ROHF) =  -299.236564113     A.U. after   11 cycles
 E2 =    -0.9336720474D+00 EUMP2 =    -0.30017023616015D+03
 CCSD(T)
 CCSD(T)= -0.30017872852D+03

 The electronic state is 5-SGG.
 Alpha  occ. eigenvalues --  -20.73236 -20.73235 -20.71622 -20.71619  -1.74681
 Alpha  occ. eigenvalues --   -1.73206  -1.23701  -1.12255  -0.84452  -0.84445
 Alpha  occ. eigenvalues --   -0.84445  -0.82077  -0.82077  -0.68362  -0.52986
 Alpha  occ. eigenvalues --   -0.52986  -0.47765  -0.47765
 Alpha virt. eigenvalues --    0.44922   0.48726   0.65192   0.65192   0.70599
 Alpha virt. eigenvalues --    0.70599   0.71373   0.76887   0.77271   0.77271
 Alpha virt. eigenvalues --    0.85260   0.85403   0.96496   0.96496   0.97816

 Mulliken charges and spin densities:
               1          2
     1  O   -0.028010   1.033041
     2  O    0.028010   0.966959
     3  O    0.028010   0.966959
     4  O   -0.028010   1.033041
 Sum of Mulliken charges =  -0.00000   4.00000

 Dipole moment (field-independent basis, Debye):
    X=             -0.0000    Y=             -0.0000    Z=              0.0000  Tot=              0.0000
 Quadrupole moment (field-independent basis, Debye-Ang):
   XX=            -19.5730   YY=            -19.5730   ZZ=            -21.4725
   XY=              0.0000   XZ=              0.0000   YZ=              0.0000

 2362\MP4SDQ=-300.1495398\CCSD=-300.1422089\CCSD(T)=-300.1787285\RMSD=9
 Normal termination of Gaussian 16 at Tue Feb 13 13:49:42 2024.
