 Gaussian 16, Revision A.03,
 Gaussian 16:  ES64L-G16RevA.03 25-Dec-2016

 --------------------
 #p ROCCSD(T)/cc-pVTZ
 --------------------

 --------
 O2_O2_95
 --------
 Symbolic Z-matrix:
 Charge =  0 Multiplicity = 5

                         Standard orientation:
 ---------------------------------------------------------------------
 Center     Atomic      Atomic             Coordinates (Angstroms)
 Number     Number       Type             X           Y           Z
 ---------------------------------------------------------------------
      1          8           0       -0.870000   -1.410000    0.000000
      2          8           0        0.290000   -1.410000    0.000000
      3          8           0        0.290000    0.830000    0.000000
      4          8           0        0.290000    1.990000    0.000000
 ---------------------------------------------------------------------

 SCF Done:  E(ROHF) =  -299.302081726     A.U. after   21 cycles
 E2 =    -0.9247800905D+00 EUMP2 =    -0.30022686181684D+03
 CCSD(T)
 CCSD(T)= -0.30023863720D+03

 The electronic state is 5-A'.
 Alpha  occ. eigenvalues --  -20.74135 -20.73682 -20.73681 -20.73118  -1.74903
 Alpha  occ. eigenvalues --   -1.74040  -1.18205  -1.16280  -0.85363  -0.84303
 Alpha  occ. eigenvalues --   -0.83832  -0.83130  -0.78370  -0.76143  -0.52106
 Alpha  occ. eigenvalues --   -0.51422  -0.50367  -0.49691
 Alpha virt. eigenvalues --    0.41139   0.45050   0.63268   0.65624   0.70227
 Alpha virt. eigenvalues --    0.70777   0.71131   0.72980   0.74417   0.77735
 Alpha virt. eigenvalues --    0.78981   0.84430   0.84996   0.86683   0.96100

 Mulliken charges and spin densities:
               1          2
     1  O   -0.011235   0.979080
     2  O    0.010846   1.020410
     3  O    0.008487   0.990007
     4  O   -0.008099   1.010503
 Sum of Mulliken charges =  -0.00000   4.00000

 Dipole moment (field-independent basis, Debye):
    X=              0.0908    Y=              0.0777    Z=              0.0000  Tot=              0.1195
 Quadrupole moment (field-independent basis, Debye-Ang):
   XX=            -20.2889   YY=            -20.4607   ZZ=            -19.6271
   XY=             -0.1196   XZ=              0.0000   YZ=              0.0000

 18\MP4SDQ=-300.2090123\CCSD=-300.2028768\CCSD(T)=-300.2386372\RMSD=1.2
 Normal termination of Gaussian 16 at Tue Feb 13 15:01:24 2024.
