 Gaussian 16, Revision A.03,
 Gaussian 16:  ES64L-G16RevA.03 25-Dec-2016

 --------------------
 #p ROCCSD(T)/cc-pVTZ
 --------------------

 ---------
 O2_O2_260
 ---------
 Symbolic Z-matrix:
 Charge =  0 Multiplicity = 5

                         Standard orientation:
 ---------------------------------------------------------------------
 Center     Atomic      Atomic             Coordinates (Angstroms)
 Number     Number       Type             X           Y           Z
 ---------------------------------------------------------------------
      1          8           0       -0.870000   -2.510000    0.000000
      2          8           0        0.290000   -2.510000    0.000000
      3          8           0        0.290000    1.930000    0.000000
      4          8           0        0.290000    3.090000    0.000000
 ---------------------------------------------------------------------

 SCF Done:  E(ROHF) =  -299.316611965     A.U. after   16 cycles
 E2 =    -0.9223384513D+00 EUMP2 =    -0.30023895041635D+03
 CCSD(T)
 CCSD(T)= -0.30024971960D+03

 The electronic state is 5-A'.
 Alpha  occ. eigenvalues --  -20.74080 -20.74008 -20.74003 -20.73932  -1.74578
 Alpha  occ. eigenvalues --   -1.74506  -1.17125  -1.17051  -0.83858  -0.83858
 Alpha  occ. eigenvalues --   -0.83786  -0.83784  -0.78208  -0.78132  -0.51055
 Alpha  occ. eigenvalues --   -0.51054  -0.50982  -0.50978
 Alpha virt. eigenvalues --    0.41159   0.41527   0.67454   0.67900   0.67967
 Alpha virt. eigenvalues --    0.68069   0.72059   0.72400   0.77837   0.78114
 Alpha virt. eigenvalues --    0.79506   0.79692   0.79837   0.80298   0.87004

 Mulliken charges and spin densities:
               1          2
     1  O   -0.000139   0.999855
     2  O    0.000175   1.000141
     3  O   -0.000484   0.999516
     4  O    0.000447   1.000488
 Sum of Mulliken charges =  -0.00000   4.00000

 Dipole moment (field-independent basis, Debye):
    X=              0.0014    Y=              0.0042    Z=              0.0000  Tot=              0.0044
 Quadrupole moment (field-independent basis, Debye-Ang):
   XX=            -20.2387   YY=            -20.2268   ZZ=            -19.6381
   XY=             -0.0008   XZ=              0.0000   YZ=              0.0000

 4\MP4SDQ=-300.2209212\CCSD=-300.2144513\CCSD(T)=-300.2497196\RMSD=2.13
 Normal termination of Gaussian 16 at Tue Feb 13 19:33:55 2024.
