 Gaussian 16, Revision A.03,
 Gaussian 16:  ES64L-G16RevA.03 25-Dec-2016

 --------------------
 #p ROCCSD(T)/cc-pVTZ
 --------------------

 --------
 O2_O2_71
 --------
 Symbolic Z-matrix:
 Charge =  0 Multiplicity = 5

                         Standard orientation:
 ---------------------------------------------------------------------
 Center     Atomic      Atomic             Coordinates (Angstroms)
 Number     Number       Type             X           Y           Z
 ---------------------------------------------------------------------
      1          8           0       -0.870000   -1.250000    0.000000
      2          8           0        0.290000   -1.250000    0.000000
      3          8           0        0.290000    0.670000    0.000000
      4          8           0        0.290000    1.830000    0.000000
 ---------------------------------------------------------------------

 SCF Done:  E(ROHF) =  -299.267257322     A.U. after   22 cycles
 E2 =    -0.9201274853D+00 EUMP2 =    -0.30018738480773D+03
 CCSD(T)
 CCSD(T)= -0.30020609040D+03

 The electronic state is 5-A'.
 Alpha  occ. eigenvalues --  -20.74120 -20.73436 -20.73241 -20.71653  -1.75645
 Alpha  occ. eigenvalues --   -1.73563  -1.20103  -1.15389  -0.87742  -0.84992
 Alpha  occ. eigenvalues --   -0.84088  -0.82467  -0.77913  -0.73338  -0.52850
 Alpha  occ. eigenvalues --   -0.51951  -0.49663  -0.48457
 Alpha virt. eigenvalues --    0.41349   0.46151   0.63728   0.66941   0.67582
 Alpha virt. eigenvalues --    0.71045   0.71348   0.74228   0.76858   0.78184
 Alpha virt. eigenvalues --    0.79260   0.85687   0.86871   0.91658   0.97932

 Mulliken charges and spin densities:
               1          2
     1  O   -0.037492   0.942133
     2  O    0.033709   1.051524
     3  O    0.016526   0.983755
     4  O   -0.012743   1.022588
 Sum of Mulliken charges =  -0.00000   4.00000

 Dipole moment (field-independent basis, Debye):
    X=              0.2294    Y=              0.1380    Z=              0.0000  Tot=              0.2677
 Quadrupole moment (field-independent basis, Debye-Ang):
   XX=            -20.3822   YY=            -20.6668   ZZ=            -19.5784
   XY=             -0.2935   XZ=              0.0000   YZ=              0.0000

 848\MP4SDQ=-300.1741153\CCSD=-300.17003\CCSD(T)=-300.2060904\RMSD=4.09
 Normal termination of Gaussian 16 at Tue Feb 13 14:17:44 2024.
