 Gaussian 16, Revision A.03,
 Gaussian 16:  ES64L-G16RevA.03 25-Dec-2016

 --------------------
 #p ROCCSD(T)/cc-pVTZ
 --------------------

 --------
 O2_O2_31
 --------
 Symbolic Z-matrix:
 Charge =  0 Multiplicity = 5

                         Standard orientation:
 ---------------------------------------------------------------------
 Center     Atomic      Atomic             Coordinates (Angstroms)
 Number     Number       Type             X           Y           Z
 ---------------------------------------------------------------------
      1          8           0        0.615183   -1.605183   -0.000000
      2          8           0       -0.205061   -0.784939   -0.000000
      3          8           0       -0.205061    0.615061    0.000000
      4          8           0       -0.205061    1.775061    0.000000
 ---------------------------------------------------------------------

 SCF Done:  E(ROHF) =  -299.044704561     A.U. after   22 cycles
 E2 =    -0.9194495931D+00 EUMP2 =    -0.29996415415461D+03
 CCSD(T)
 CCSD(T)= -0.29998946253D+03

 The electronic state is 5-A'.
 Alpha  occ. eigenvalues --  -20.75937 -20.75617 -20.69537 -20.67344  -1.80378
 Alpha  occ. eigenvalues --   -1.72243  -1.36771  -1.08692  -0.90632  -0.89430
 Alpha  occ. eigenvalues --   -0.88115  -0.80561  -0.77977  -0.60462  -0.57329
 Alpha  occ. eigenvalues --   -0.54099  -0.45062  -0.41137
 Alpha virt. eigenvalues --    0.44946   0.49699   0.64096   0.64550   0.66560
 Alpha virt. eigenvalues --    0.70983   0.71243   0.73972   0.79004   0.79610
 Alpha virt. eigenvalues --    0.81050   0.85210   0.93041   0.96965   1.01906

 Mulliken charges and spin densities:
               1          2
     1  O   -0.111576   0.907452
     2  O    0.022068   0.936443
     3  O    0.080812   1.018878
     4  O    0.008696   1.137227
 Sum of Mulliken charges =  -0.00000   4.00000

 Dipole moment (field-independent basis, Debye):
    X=             -0.2715    Y=              1.3173    Z=             -0.0000  Tot=              1.3450
 Quadrupole moment (field-independent basis, Debye-Ang):
   XX=            -20.3964   YY=            -22.2293   ZZ=            -19.2888
   XY=              0.6453   XZ=             -0.0000   YZ=             -0.0000

 046\PMP2-0=-299.9641542\MP4SDQ=-299.9548215\CCSD=-299.9518798\CCSD(T)=
 Normal termination of Gaussian 16 at Tue Feb 13 12:57:57 2024.
