 Gaussian 16, Revision A.03,
 Gaussian 16:  ES64L-G16RevA.03 25-Dec-2016

 --------------------
 #p ROCCSD(T)/cc-pVTZ
 --------------------

 ---------
 O2_O2_165
 ---------
 Symbolic Z-matrix:
 Charge =  0 Multiplicity = 5

                         Standard orientation:
 ---------------------------------------------------------------------
 Center     Atomic      Atomic             Coordinates (Angstroms)
 Number     Number       Type             X           Y           Z
 ---------------------------------------------------------------------
      1          8           0        0.000000    0.000000    2.760000
      2          8           0        0.000000    0.000000    1.600000
      3          8           0        0.000000    0.000000   -1.600000
      4          8           0        0.000000    0.000000   -2.760000
 ---------------------------------------------------------------------

 SCF Done:  E(ROHF) =  -299.316456660     A.U. after   12 cycles
 E2 =    -0.9228820533D+00 EUMP2 =    -0.30023933871352D+03
 CCSD(T)
 CCSD(T)= -0.30025003060D+03

 The electronic state is 5-SGG.
 Alpha  occ. eigenvalues --  -20.73976 -20.73976 -20.73895 -20.73895  -1.74487
 Alpha  occ. eigenvalues --   -1.74469  -1.17167  -1.16874  -0.83787  -0.83787
 Alpha  occ. eigenvalues --   -0.83727  -0.83727  -0.78468  -0.77722  -0.51062
 Alpha  occ. eigenvalues --   -0.51062  -0.50838  -0.50838
 Alpha virt. eigenvalues --    0.35904   0.47369   0.64996   0.66864   0.66864
 Alpha virt. eigenvalues --    0.68809   0.68809   0.75463   0.77188   0.77188
 Alpha virt. eigenvalues --    0.77848   0.83201   0.83201   0.86340   0.87038

 Mulliken charges and spin densities:
               1          2
     1  O   -0.000309   0.998832
     2  O    0.000309   1.001168
     3  O    0.000309   1.001168
     4  O   -0.000309   0.998832
 Sum of Mulliken charges =  -0.00000   4.00000

 Dipole moment (field-independent basis, Debye):
    X=              0.0000    Y=              0.0000    Z=             -0.0000  Tot=              0.0000
 Quadrupole moment (field-independent basis, Debye-Ang):
   XX=            -19.6387   YY=            -19.6387   ZZ=            -20.9209
   XY=              0.0000   XZ=              0.0000   YZ=              0.0000

 387\MP4SDQ=-300.2212153\CCSD=-300.2147003\CCSD(T)=-300.2500306\RMSD=1.
 Normal termination of Gaussian 16 at Tue Feb 13 16:51:34 2024.
