 Gaussian 16, Revision A.03,
 Gaussian 16:  ES64L-G16RevA.03 25-Dec-2016

 --------------------
 #p ROCCSD(T)/cc-pVTZ
 --------------------

 ---------
 O2_O2_127
 ---------
 Symbolic Z-matrix:
 Charge =  0 Multiplicity = 5

                         Standard orientation:
 ---------------------------------------------------------------------
 Center     Atomic      Atomic             Coordinates (Angstroms)
 Number     Number       Type             X           Y           Z
 ---------------------------------------------------------------------
      1          8           0        0.615183   -2.245183   -0.000000
      2          8           0       -0.205061   -1.424939   -0.000000
      3          8           0       -0.205061    1.255061    0.000000
      4          8           0       -0.205061    2.415061    0.000000
 ---------------------------------------------------------------------

 SCF Done:  E(ROHF) =  -299.314730472     A.U. after   17 cycles
 E2 =    -0.9237386777D+00 EUMP2 =    -0.30023846914953D+03
 CCSD(T)
 CCSD(T)= -0.30024906742D+03

 The electronic state is 5-A'.
 Alpha  occ. eigenvalues --  -20.73941 -20.73863 -20.73860 -20.73766  -1.74506
 Alpha  occ. eigenvalues --   -1.74371  -1.17551  -1.16495  -0.83868  -0.83844
 Alpha  occ. eigenvalues --   -0.83662  -0.83586  -0.78980  -0.77093  -0.51239
 Alpha  occ. eigenvalues --   -0.51086  -0.50702  -0.50576
 Alpha virt. eigenvalues --    0.39687   0.45910   0.64709   0.65097   0.66970
 Alpha virt. eigenvalues --    0.69571   0.70697   0.74795   0.76037   0.77505
 Alpha virt. eigenvalues --    0.78804   0.83939   0.85985   0.86717   0.87455

 Mulliken charges and spin densities:
               1          2
     1  O   -0.003364   0.996054
     2  O    0.003540   1.003987
     3  O    0.003419   0.999802
     4  O   -0.003595   1.000157
 Sum of Mulliken charges =  -0.00000   4.00000

 Dipole moment (field-independent basis, Debye):
    X=             -0.0171    Y=              0.0154    Z=              0.0000  Tot=              0.0230
 Quadrupole moment (field-independent basis, Debye-Ang):
   XX=            -19.9495   YY=            -20.6937   ZZ=            -19.6385
   XY=              0.3282   XZ=             -0.0000   YZ=             -0.0000

 05\PMP2-0=-300.2384691\MP4SDQ=-300.2201698\CCSD=-300.2136246\CCSD(T)=-
 Normal termination of Gaussian 16 at Tue Feb 13 15:52:09 2024.
