 Gaussian 16, Revision A.03,
 Gaussian 16:  ES64L-G16RevA.03 25-Dec-2016

 --------------------
 #p ROCCSD(T)/cc-pVTZ
 --------------------

 ---------
 O2_O2_135
 ---------
 Symbolic Z-matrix:
 Charge =  0 Multiplicity = 5

                         Standard orientation:
 ---------------------------------------------------------------------
 Center     Atomic      Atomic             Coordinates (Angstroms)
 Number     Number       Type             X           Y           Z
 ---------------------------------------------------------------------
      1          8           0        0.000000    0.000000    2.560000
      2          8           0        0.000000    0.000000    1.400000
      3          8           0        0.000000    0.000000   -1.400000
      4          8           0        0.000000    0.000000   -2.560000
 ---------------------------------------------------------------------

 SCF Done:  E(ROHF) =  -299.315605273     A.U. after   12 cycles
 E2 =    -0.9234479924D+00 EUMP2 =    -0.30023905326536D+03
 CCSD(T)
 CCSD(T)= -0.30024967203D+03

 The electronic state is 5-SGG.
 Alpha  occ. eigenvalues --  -20.73914 -20.73914 -20.73838 -20.73838  -1.74468
 Alpha  occ. eigenvalues --   -1.74410  -1.17416  -1.16588  -0.83801  -0.83801
 Alpha  occ. eigenvalues --   -0.83632  -0.83632  -0.78957  -0.77164  -0.51178
 Alpha  occ. eigenvalues --   -0.51178  -0.50639  -0.50639
 Alpha virt. eigenvalues --    0.38382   0.47916   0.65635   0.65635   0.66272
 Alpha virt. eigenvalues --    0.69307   0.69307   0.75567   0.75884   0.75884
 Alpha virt. eigenvalues --    0.79564   0.86012   0.86324   0.86324   0.86997

 Mulliken charges and spin densities:
               1          2
     1  O   -0.005002   0.998736
     2  O    0.005002   1.001264
     3  O    0.005002   1.001264
     4  O   -0.005002   0.998736
 Sum of Mulliken charges =   0.00000   4.00000

 Dipole moment (field-independent basis, Debye):
    X=             -0.0000    Y=              0.0000    Z=              0.0000  Tot=              0.0000
 Quadrupole moment (field-independent basis, Debye-Ang):
   XX=            -19.6387   YY=            -19.6387   ZZ=            -20.9682
   XY=              0.0000   XZ=              0.0000   YZ=              0.0000

 0533\MP4SDQ=-300.2208291\CCSD=-300.2142745\CCSD(T)=-300.249672\RMSD=9.
 Normal termination of Gaussian 16 at Tue Feb 13 16:05:33 2024.
