 Gaussian 16, Revision A.03,
 Gaussian 16:  ES64L-G16RevA.03 25-Dec-2016

 --------------------
 #p ROCCSD(T)/cc-pVTZ
 --------------------

 ---------
 O2_O2_188
 ---------
 Symbolic Z-matrix:
 Charge =  0 Multiplicity = 5

                         Standard orientation:
 ---------------------------------------------------------------------
 Center     Atomic      Atomic             Coordinates (Angstroms)
 Number     Number       Type             X           Y           Z
 ---------------------------------------------------------------------
      1          8           0       -0.870000   -2.030000    0.000000
      2          8           0        0.290000   -2.030000    0.000000
      3          8           0        0.290000    1.450000    0.000000
      4          8           0        0.290000    2.610000    0.000000
 ---------------------------------------------------------------------

 SCF Done:  E(ROHF) =  -299.316664286     A.U. after   16 cycles
 E2 =    -0.9227094934D+00 EUMP2 =    -0.30023937377964D+03
 CCSD(T)
 CCSD(T)= -0.30025009856D+03

 The electronic state is 5-A'.
 Alpha  occ. eigenvalues --  -20.74107 -20.74027 -20.73986 -20.73909  -1.74602
 Alpha  occ. eigenvalues --   -1.74477  -1.17158  -1.17018  -0.83887  -0.83887
 Alpha  occ. eigenvalues --   -0.83756  -0.83756  -0.78278  -0.78054  -0.51137
 Alpha  occ. eigenvalues --   -0.51083  -0.50953  -0.50891
 Alpha virt. eigenvalues --    0.39487   0.41743   0.62791   0.67031   0.67564
 Alpha virt. eigenvalues --    0.68757   0.72043   0.74659   0.76574   0.78253
 Alpha virt. eigenvalues --    0.79236   0.80285   0.80534   0.84246   0.86913

 Mulliken charges and spin densities:
               1          2
     1  O   -0.000280   0.999655
     2  O    0.000665   1.000317
     3  O   -0.002055   0.998945
     4  O    0.001670   1.001083
 Sum of Mulliken charges =   0.00000   4.00000

 Dipole moment (field-independent basis, Debye):
    X=              0.0036    Y=              0.0065    Z=              0.0000  Tot=              0.0074
 Quadrupole moment (field-independent basis, Debye-Ang):
   XX=            -20.2392   YY=            -20.2143   ZZ=            -19.6382
   XY=             -0.0011   XZ=              0.0000   YZ=              0.0000

 3738\MP4SDQ=-300.2212655\CCSD=-300.2147848\CCSD(T)=-300.2500986\RMSD=2
 Normal termination of Gaussian 16 at Tue Feb 13 17:27:09 2024.
