 Gaussian 16, Revision A.03,
 Gaussian 16:  ES64L-G16RevA.03 25-Dec-2016

 --------------------
 #p ROCCSD(T)/cc-pVTZ
 --------------------

 ---------
 O2_O2_221
 ---------
 Symbolic Z-matrix:
 Charge =  0 Multiplicity = 5

                         Standard orientation:
 ---------------------------------------------------------------------
 Center     Atomic      Atomic             Coordinates (Angstroms)
 Number     Number       Type             X           Y           Z
 ---------------------------------------------------------------------
      1          8           0       -0.870000   -2.250000    0.000000
      2          8           0        0.290000   -2.250000    0.000000
      3          8           0        0.290000    1.670000    0.000000
      4          8           0        0.290000    2.830000    0.000000
 ---------------------------------------------------------------------

 SCF Done:  E(ROHF) =  -299.316652992     A.U. after   16 cycles
 E2 =    -0.9224639430D+00 EUMP2 =    -0.30023911693487D+03
 CCSD(T)
 CCSD(T)= -0.30024986649D+03

 The electronic state is 5-A'.
 Alpha  occ. eigenvalues --  -20.74092 -20.74014 -20.74000 -20.73924  -1.74589
 Alpha  occ. eigenvalues --   -1.74495  -1.17137  -1.17040  -0.83869  -0.83869
 Alpha  occ. eigenvalues --   -0.83776  -0.83770  -0.78228  -0.78113  -0.51079
 Alpha  occ. eigenvalues --   -0.51066  -0.50972  -0.50953
 Alpha virt. eigenvalues --    0.40477   0.41632   0.65226   0.67649   0.67899
 Alpha virt. eigenvalues --    0.68295   0.72067   0.73806   0.77384   0.78227
 Alpha virt. eigenvalues --    0.79525   0.79677   0.80036   0.81941   0.86967

 Mulliken charges and spin densities:
               1          2
     1  O   -0.000149   0.999873
     2  O    0.000342   1.000109
     3  O   -0.000996   0.999299
     4  O    0.000803   1.000720
 Sum of Mulliken charges =  -0.00000   4.00000

 Dipole moment (field-independent basis, Debye):
    X=              0.0017    Y=              0.0044    Z=              0.0000  Tot=              0.0047
 Quadrupole moment (field-independent basis, Debye-Ang):
   XX=            -20.2386   YY=            -20.2172   ZZ=            -19.6382
   XY=             -0.0001   XZ=              0.0000   YZ=              0.0000

 69\MP4SDQ=-300.2210581\CCSD=-300.2145841\CCSD(T)=-300.2498665\RMSD=2.8
 Normal termination of Gaussian 16 at Tue Feb 13 18:19:26 2024.
