 Gaussian 16, Revision A.03,
 Gaussian 16:  ES64L-G16RevA.03 25-Dec-2016

 --------------------
 #p ROCCSD(T)/cc-pVTZ
 --------------------

 ---------
 O2_O2_254
 ---------
 Symbolic Z-matrix:
 Charge =  0 Multiplicity = 5

                         Standard orientation:
 ---------------------------------------------------------------------
 Center     Atomic      Atomic             Coordinates (Angstroms)
 Number     Number       Type             X           Y           Z
 ---------------------------------------------------------------------
      1          8           0       -0.870000   -2.470000    0.000000
      2          8           0        0.290000   -2.470000    0.000000
      3          8           0        0.290000    1.890000    0.000000
      4          8           0        0.290000    3.050000    0.000000
 ---------------------------------------------------------------------

 SCF Done:  E(ROHF) =  -299.316616640     A.U. after   16 cycles
 E2 =    -0.9223505236D+00 EUMP2 =    -0.30023896716328D+03
 CCSD(T)
 CCSD(T)= -0.30024973423D+03

 The electronic state is 5-A'.
 Alpha  occ. eigenvalues --  -20.74082 -20.74007 -20.74005 -20.73930  -1.74580
 Alpha  occ. eigenvalues --   -1.74504  -1.17126  -1.17050  -0.83860  -0.83859
 Alpha  occ. eigenvalues --   -0.83785  -0.83782  -0.78209  -0.78131  -0.51058
 Alpha  occ. eigenvalues --   -0.51056  -0.50981  -0.50976
 Alpha virt. eigenvalues --    0.41100   0.41543   0.67248   0.67880   0.67964
 Alpha virt. eigenvalues --    0.68088   0.72061   0.72546   0.77806   0.78137
 Alpha virt. eigenvalues --    0.79478   0.79677   0.79853   0.80443   0.87001

 Mulliken charges and spin densities:
               1          2
     1  O   -0.000139   0.999857
     2  O    0.000188   1.000138
     3  O   -0.000529   0.999488
     4  O    0.000480   1.000517
 Sum of Mulliken charges =   0.00000   4.00000

 Dipole moment (field-independent basis, Debye):
    X=              0.0014    Y=              0.0043    Z=              0.0000  Tot=              0.0045
 Quadrupole moment (field-independent basis, Debye-Ang):
   XX=            -20.2387   YY=            -20.2257   ZZ=            -19.6381
   XY=             -0.0007   XZ=              0.0000   YZ=              0.0000

 9672\MP4SDQ=-300.220935\CCSD=-300.2144647\CCSD(T)=-300.2497342\RMSD=2.
 Normal termination of Gaussian 16 at Tue Feb 13 19:22:05 2024.
