 Gaussian 16, Revision A.03,
 Gaussian 16:  ES64L-G16RevA.03 25-Dec-2016

 --------------------
 #p ROCCSD(T)/cc-pVTZ
 --------------------

 ---------
 O2_O2_183
 ---------
 Symbolic Z-matrix:
 Charge =  0 Multiplicity = 5

                         Standard orientation:
 ---------------------------------------------------------------------
 Center     Atomic      Atomic             Coordinates (Angstroms)
 Number     Number       Type             X           Y           Z
 ---------------------------------------------------------------------
      1          8           0        0.000000    0.000000    2.880000
      2          8           0        0.000000    0.000000    1.720000
      3          8           0        0.000000    0.000000   -1.720000
      4          8           0        0.000000    0.000000   -2.880000
 ---------------------------------------------------------------------

 SCF Done:  E(ROHF) =  -299.316571830     A.U. after   12 cycles
 E2 =    -0.9226850060D+00 EUMP2 =    -0.30023925683610D+03
 CCSD(T)
 CCSD(T)= -0.30024996990D+03

 The electronic state is 5-SGG.
 Alpha  occ. eigenvalues --  -20.73992 -20.73992 -20.73912 -20.73912  -1.74495
 Alpha  occ. eigenvalues --   -1.74487  -1.17109  -1.16954  -0.83787  -0.83787
 Alpha  occ. eigenvalues --   -0.83754  -0.83754  -0.78327  -0.77889  -0.51029
 Alpha  occ. eigenvalues --   -0.51029  -0.50899  -0.50899
 Alpha virt. eigenvalues --    0.35439   0.46804   0.65311   0.67336   0.67336
 Alpha virt. eigenvalues --    0.68554   0.68554   0.75285   0.77263   0.77996
 Alpha virt. eigenvalues --    0.77996   0.81934   0.81934   0.86386   0.87051

 Mulliken charges and spin densities:
               1          2
     1  O    0.000338   0.998985
     2  O   -0.000338   1.001015
     3  O   -0.000338   1.001015
     4  O    0.000338   0.998985
 Sum of Mulliken charges =  -0.00000   4.00000

 Dipole moment (field-independent basis, Debye):
    X=              0.0000    Y=              0.0000    Z=              0.0000  Tot=              0.0000
 Quadrupole moment (field-independent basis, Debye-Ang):
   XX=            -19.6386   YY=            -19.6386   ZZ=            -20.9049
   XY=              0.0000   XZ=              0.0000   YZ=              0.0000

 2568\MP4SDQ=-300.2211642\CCSD=-300.2146628\CCSD(T)=-300.2499699\RMSD=1
 Normal termination of Gaussian 16 at Tue Feb 13 17:19:34 2024.
