 Gaussian 16, Revision A.03,
 Gaussian 16:  ES64L-G16RevA.03 25-Dec-2016

 --------------------
 #p ROCCSD(T)/cc-pVTZ
 --------------------

 ---------
 O2_O2_171
 ---------
 Symbolic Z-matrix:
 Charge =  0 Multiplicity = 5

                         Standard orientation:
 ---------------------------------------------------------------------
 Center     Atomic      Atomic             Coordinates (Angstroms)
 Number     Number       Type             X           Y           Z
 ---------------------------------------------------------------------
      1          8           0        0.000000    0.000000    2.800000
      2          8           0        0.000000    0.000000    1.640000
      3          8           0        0.000000    0.000000   -1.640000
      4          8           0        0.000000    0.000000   -2.800000
 ---------------------------------------------------------------------

 SCF Done:  E(ROHF) =  -299.316509516     A.U. after   12 cycles
 E2 =    -0.9228080257D+00 EUMP2 =    -0.30023931754217D+03
 CCSD(T)
 CCSD(T)= -0.30025001738D+03

 The electronic state is 5-SGG.
 Alpha  occ. eigenvalues --  -20.73982 -20.73982 -20.73902 -20.73902  -1.74490
 Alpha  occ. eigenvalues --   -1.74476  -1.17143  -1.16906  -0.83787  -0.83787
 Alpha  occ. eigenvalues --   -0.83737  -0.83737  -0.78412  -0.77788  -0.51049
 Alpha  occ. eigenvalues --   -0.51049  -0.50862  -0.50862
 Alpha virt. eigenvalues --    0.35647   0.47205   0.65019   0.67044   0.67044
 Alpha virt. eigenvalues --    0.68718   0.68718   0.75418   0.77467   0.77467
 Alpha virt. eigenvalues --    0.77625   0.82729   0.82729   0.86373   0.87043

 Mulliken charges and spin densities:
               1          2
     1  O    0.000049   0.998883
     2  O   -0.000049   1.001117
     3  O   -0.000049   1.001117
     4  O    0.000049   0.998883
 Sum of Mulliken charges =   0.00000   4.00000

 Dipole moment (field-independent basis, Debye):
    X=              0.0000    Y=              0.0000    Z=              0.0000  Tot=              0.0000
 Quadrupole moment (field-independent basis, Debye-Ang):
   XX=            -19.6386   YY=            -19.6386   ZZ=            -20.9149
   XY=              0.0000   XZ=              0.0000   YZ=              0.0000

 93175\MP4SDQ=-300.2212058\CCSD=-300.2146958\CCSD(T)=-300.2500174\RMSD=
 Normal termination of Gaussian 16 at Tue Feb 13 17:00:18 2024.
