 Gaussian 16, Revision A.03,
 Gaussian 16:  ES64L-G16RevA.03 25-Dec-2016

 --------------------
 #p ROCCSD(T)/cc-pVTZ
 --------------------

 ---------
 O2_O2_100
 ---------
 Symbolic Z-matrix:
 Charge =  0 Multiplicity = 5

                         Standard orientation:
 ---------------------------------------------------------------------
 Center     Atomic      Atomic             Coordinates (Angstroms)
 Number     Number       Type             X           Y           Z
 ---------------------------------------------------------------------
      1          8           0        0.615183   -2.065183    0.000000
      2          8           0       -0.205061   -1.244939    0.000000
      3          8           0       -0.205061    1.075061   -0.000000
      4          8           0       -0.205061    2.235061   -0.000000
 ---------------------------------------------------------------------

 SCF Done:  E(ROHF) =  -299.307959595     A.U. after   22 cycles
 E2 =    -0.9249980072D+00 EUMP2 =    -0.30023295760254D+03
 CCSD(T)
 CCSD(T)= -0.30024351066D+03

 The electronic state is 5-A'.
 Alpha  occ. eigenvalues --  -20.73886 -20.73667 -20.73607 -20.73492  -1.74553
 Alpha  occ. eigenvalues --   -1.74178  -1.18411  -1.15768  -0.84123  -0.83955
 Alpha  occ. eigenvalues --   -0.83587  -0.83318  -0.79775  -0.75861  -0.51554
 Alpha  occ. eigenvalues --   -0.51196  -0.50328  -0.50100
 Alpha virt. eigenvalues --    0.41522   0.46663   0.64085   0.64109   0.69575
 Alpha virt. eigenvalues --    0.70070   0.71649   0.75068   0.75954   0.78145
 Alpha virt. eigenvalues --    0.80100   0.85753   0.86743   0.89687   0.90046

 Mulliken charges and spin densities:
               1          2
     1  O   -0.008751   0.990985
     2  O    0.008434   1.008955
     3  O    0.012009   0.995606
     4  O   -0.011691   1.004454
 Sum of Mulliken charges =  -0.00000   4.00000

 Dipole moment (field-independent basis, Debye):
    X=             -0.0362    Y=              0.0551    Z=             -0.0000  Tot=              0.0659
 Quadrupole moment (field-independent basis, Debye-Ang):
   XX=            -19.9684   YY=            -20.8463   ZZ=            -19.6347
   XY=              0.3603   XZ=              0.0000   YZ=              0.0000

 9596\PMP2-0=-300.2329576\MP4SDQ=-300.214461\CCSD=-300.2078973\CCSD(T)=
 Normal termination of Gaussian 16 at Tue Feb 13 15:10:38 2024.
