 Gaussian 16, Revision A.03,
 Gaussian 16:  ES64L-G16RevA.03 25-Dec-2016

 --------------------
 #p ROCCSD(T)/cc-pVTZ
 --------------------

 ---------
 O2_O2_249
 ---------
 Symbolic Z-matrix:
 Charge =  0 Multiplicity = 5

                         Standard orientation:
 ---------------------------------------------------------------------
 Center     Atomic      Atomic             Coordinates (Angstroms)
 Number     Number       Type             X           Y           Z
 ---------------------------------------------------------------------
      1          8           0        0.000000    0.000000    3.320000
      2          8           0        0.000000    0.000000    2.160000
      3          8           0        0.000000    0.000000   -2.160000
      4          8           0        0.000000    0.000000   -3.320000
 ---------------------------------------------------------------------

 SCF Done:  E(ROHF) =  -299.316599133     A.U. after   11 cycles
 E2 =    -0.9223561430D+00 EUMP2 =    -0.30023895527575D+03
 CCSD(T)
 CCSD(T)= -0.30024971593D+03

 The electronic state is 5-SGG.
 Alpha  occ. eigenvalues --  -20.74014 -20.74014 -20.73937 -20.73936  -1.74514
 Alpha  occ. eigenvalues --   -1.74513  -1.17063  -1.17049  -0.83795  -0.83795
 Alpha  occ. eigenvalues --   -0.83791  -0.83791  -0.78165  -0.78106  -0.50995
 Alpha  occ. eigenvalues --   -0.50995  -0.50980  -0.50980
 Alpha virt. eigenvalues --    0.38997   0.43551   0.67942   0.67942   0.68080
 Alpha virt. eigenvalues --    0.68080   0.69974   0.73508   0.76952   0.79555
 Alpha virt. eigenvalues --    0.79555   0.80042   0.80042   0.80234   0.87068

 Mulliken charges and spin densities:
               1          2
     1  O   -0.000456   0.999394
     2  O    0.000456   1.000606
     3  O    0.000456   1.000606
     4  O   -0.000456   0.999394
 Sum of Mulliken charges =  -0.00000   4.00000

 Dipole moment (field-independent basis, Debye):
    X=             -0.0000    Y=              0.0000    Z=              0.0000  Tot=              0.0000
 Quadrupole moment (field-independent basis, Debye-Ang):
   XX=            -19.6383   YY=            -19.6383   ZZ=            -20.8795
   XY=              0.0000   XZ=              0.0000   YZ=              0.0000

 89553\MP4SDQ=-300.2209236\CCSD=-300.2144456\CCSD(T)=-300.2497159\RMSD=
 Normal termination of Gaussian 16 at Tue Feb 13 19:11:57 2024.
