 Gaussian 16, Revision A.03,
 Gaussian 16:  ES64L-G16RevA.03 25-Dec-2016

 --------------------
 #p ROCCSD(T)/cc-pVTZ
 --------------------

 --------
 O2_O2_65
 --------
 Symbolic Z-matrix:
 Charge =  0 Multiplicity = 5

                         Standard orientation:
 ---------------------------------------------------------------------
 Center     Atomic      Atomic             Coordinates (Angstroms)
 Number     Number       Type             X           Y           Z
 ---------------------------------------------------------------------
      1          8           0       -0.870000   -1.210000    0.000000
      2          8           0        0.290000   -1.210000    0.000000
      3          8           0        0.290000    0.630000    0.000000
      4          8           0        0.290000    1.790000    0.000000
 ---------------------------------------------------------------------

 SCF Done:  E(ROHF) =  -299.250630028     A.U. after   23 cycles
 E2 =    -0.9176920923D+00 EUMP2 =    -0.30016832212063D+03
 CCSD(T)
 CCSD(T)= -0.30018990770D+03

 The electronic state is 5-A'.
 Alpha  occ. eigenvalues --  -20.74118 -20.73341 -20.73160 -20.71055  -1.76044
 Alpha  occ. eigenvalues --   -1.73403  -1.20983  -1.15056  -0.88572  -0.85321
 Alpha  occ. eigenvalues --   -0.84251  -0.82233  -0.77723  -0.72200  -0.53082
 Alpha  occ. eigenvalues --   -0.52193  -0.49404  -0.47988
 Alpha virt. eigenvalues --    0.41387   0.46342   0.63975   0.66297   0.67508
 Alpha virt. eigenvalues --    0.70856   0.71525   0.74493   0.77472   0.78604
 Alpha virt. eigenvalues --    0.79364   0.85763   0.86977   0.93502   0.98216

 Mulliken charges and spin densities:
               1          2
     1  O   -0.047718   0.927821
     2  O    0.042281   1.061166
     3  O    0.018853   0.984221
     4  O   -0.013417   1.026791
 Sum of Mulliken charges =  -0.00000   4.00000

 Dipole moment (field-independent basis, Debye):
    X=              0.2834    Y=              0.1654    Z=              0.0000  Tot=              0.3281
 Quadrupole moment (field-independent basis, Debye-Ang):
   XX=            -20.4210   YY=            -20.7443   ZZ=            -19.5540
   XY=             -0.3514   XZ=              0.0000   YZ=              0.0000

 4SDQ=-300.1569689\CCSD=-300.1537605\CCSD(T)=-300.1899077\RMSD=5.126e-0
 Normal termination of Gaussian 16 at Tue Feb 13 14:06:26 2024.
