 Gaussian 16, Revision A.03,
 Gaussian 16:  ES64L-G16RevA.03 25-Dec-2016

 --------------------
 #p ROCCSD(T)/cc-pVTZ
 --------------------

 ---------
 O2_O2_106
 ---------
 Symbolic Z-matrix:
 Charge =  0 Multiplicity = 5

                         Standard orientation:
 ---------------------------------------------------------------------
 Center     Atomic      Atomic             Coordinates (Angstroms)
 Number     Number       Type             X           Y           Z
 ---------------------------------------------------------------------
      1          8           0        0.615183   -2.105183    0.000000
      2          8           0       -0.205061   -1.284939    0.000000
      3          8           0       -0.205061    1.115061    0.000000
      4          8           0       -0.205061    2.275061    0.000000
 ---------------------------------------------------------------------

 SCF Done:  E(ROHF) =  -299.310405892     A.U. after   22 cycles
 E2 =    -0.9246561471D+00 EUMP2 =    -0.30023506203943D+03
 CCSD(T)
 CCSD(T)= -0.30024559436D+03

 The electronic state is 5-A'.
 Alpha  occ. eigenvalues --  -20.73895 -20.73732 -20.73687 -20.73579  -1.74533
 Alpha  occ. eigenvalues --   -1.74236  -1.18138  -1.15983  -0.84029  -0.83918
 Alpha  occ. eigenvalues --   -0.83599  -0.83397  -0.79571  -0.76225  -0.51459
 Alpha  occ. eigenvalues --   -0.51164  -0.50443  -0.50239
 Alpha virt. eigenvalues --    0.41153   0.46487   0.64221   0.64253   0.69037
 Alpha virt. eigenvalues --    0.69963   0.71395   0.75000   0.75890   0.77985
 Alpha virt. eigenvalues --    0.80073   0.85004   0.86402   0.89054   0.89283

 Mulliken charges and spin densities:
               1          2
     1  O   -0.007067   0.992615
     2  O    0.007038   1.007436
     3  O    0.009714   0.997051
     4  O   -0.009685   1.002898
 Sum of Mulliken charges =  -0.00000   4.00000

 Dipole moment (field-independent basis, Debye):
    X=             -0.0302    Y=              0.0423    Z=             -0.0000  Tot=              0.0520
 Quadrupole moment (field-independent basis, Debye-Ang):
   XX=            -19.9627   YY=            -20.8024   ZZ=            -19.6365
   XY=              0.3504   XZ=              0.0000   YZ=             -0.0000

 PMP2-0=-300.235062\MP4SDQ=-300.2165992\CCSD=-300.210031\CCSD(T)=-300.2
 Normal termination of Gaussian 16 at Tue Feb 13 15:20:16 2024.
