 Gaussian 16, Revision A.03,
 Gaussian 16:  ES64L-G16RevA.03 25-Dec-2016

 --------------------
 #p ROCCSD(T)/cc-pVTZ
 --------------------

 ---------
 O2_O2_114
 ---------
 Symbolic Z-matrix:
 Charge =  0 Multiplicity = 5

                         Standard orientation:
 ---------------------------------------------------------------------
 Center     Atomic      Atomic             Coordinates (Angstroms)
 Number     Number       Type             X           Y           Z
 ---------------------------------------------------------------------
      1          8           0        0.000000    0.000000    2.420000
      2          8           0        0.000000    0.000000    1.260000
      3          8           0        0.000000    0.000000   -1.260000
      4          8           0        0.000000    0.000000   -2.420000
 ---------------------------------------------------------------------

 SCF Done:  E(ROHF) =  -299.313171730     A.U. after   12 cycles
 E2 =    -0.9242030957D+00 EUMP2 =    -0.30023737482574D+03
 CCSD(T)
 CCSD(T)= -0.30024786115D+03

 The electronic state is 5-SGG.
 Alpha  occ. eigenvalues --  -20.73824 -20.73824 -20.73728 -20.73727  -1.74455
 Alpha  occ. eigenvalues --   -1.74315  -1.17852  -1.16158  -0.83834  -0.83834
 Alpha  occ. eigenvalues --   -0.83490  -0.83490  -0.79640  -0.76371  -0.51347
 Alpha  occ. eigenvalues --   -0.51347  -0.50359  -0.50359
 Alpha virt. eigenvalues --    0.40608   0.48174   0.64691   0.64691   0.68514
 Alpha virt. eigenvalues --    0.69663   0.69663   0.75363   0.75363   0.75753
 Alpha virt. eigenvalues --    0.81862   0.85653   0.86946   0.89109   0.89109

 Mulliken charges and spin densities:
               1          2
     1  O   -0.011689   0.999460
     2  O    0.011689   1.000540
     3  O    0.011689   1.000540
     4  O   -0.011689   0.999460
 Sum of Mulliken charges =  -0.00000   4.00000

 Dipole moment (field-independent basis, Debye):
    X=             -0.0000    Y=              0.0000    Z=              0.0000  Tot=              0.0000
 Quadrupole moment (field-independent basis, Debye-Ang):
   XX=            -19.6380   YY=            -19.6380   ZZ=            -21.0321
   XY=              0.0000   XZ=              0.0000   YZ=              0.0000

 3748\MP4SDQ=-300.218985\CCSD=-300.212375\CCSD(T)=-300.2478611\RMSD=8.5
 Normal termination of Gaussian 16 at Tue Feb 13 15:32:13 2024.
