 Gaussian 16, Revision A.03,
 Gaussian 16:  ES64L-G16RevA.03 25-Dec-2016

 --------------------
 #p ROCCSD(T)/cc-pVTZ
 --------------------

 ---------
 O2_O2_274
 ---------
 Symbolic Z-matrix:
 Charge =  0 Multiplicity = 5

                         Standard orientation:
 ---------------------------------------------------------------------
 Center     Atomic      Atomic             Coordinates (Angstroms)
 Number     Number       Type             X           Y           Z
 ---------------------------------------------------------------------
      1          8           0        0.615183   -3.225183    0.000000
      2          8           0       -0.205061   -2.404939   -0.000000
      3          8           0       -0.205061    2.235061   -0.000000
      4          8           0       -0.205061    3.395061   -0.000000
 ---------------------------------------------------------------------

 SCF Done:  E(ROHF) =  -299.316594513     A.U. after   16 cycles
 E2 =    -0.9223136026D+00 EUMP2 =    -0.30023890811549D+03
 CCSD(T)
 CCSD(T)= -0.30024967928D+03

 The electronic state is 5-A'.
 Alpha  occ. eigenvalues --  -20.74036 -20.74018 -20.73960 -20.73941  -1.74536
 Alpha  occ. eigenvalues --   -1.74517  -1.17080  -1.17060  -0.83816  -0.83816
 Alpha  occ. eigenvalues --   -0.83797  -0.83796  -0.78165  -0.78137  -0.51011
 Alpha  occ. eigenvalues --   -0.51011  -0.50991  -0.50991
 Alpha virt. eigenvalues --    0.40606   0.42180   0.67951   0.67971   0.68001
 Alpha virt. eigenvalues --    0.68028   0.71419   0.72590   0.77438   0.78442
 Alpha virt. eigenvalues --    0.79691   0.79772   0.79875   0.80146   0.87049

 Mulliken charges and spin densities:
               1          2
     1  O   -0.000409   0.999546
     2  O    0.000418   1.000448
     3  O    0.000210   1.000261
     4  O   -0.000219   0.999745
 Sum of Mulliken charges =  -0.00000   4.00000

 Dipole moment (field-independent basis, Debye):
    X=             -0.0021    Y=              0.0005    Z=              0.0000  Tot=              0.0022
 Quadrupole moment (field-independent basis, Debye-Ang):
   XX=            -19.9388   YY=            -20.5607   ZZ=            -19.6382
   XY=              0.3037   XZ=             -0.0000   YZ=             -0.0000

 Normal termination of Gaussian 16 at Tue Feb 13 20:00:41 2024.
