 Gaussian 16, Revision A.03,
 Gaussian 16:  ES64L-G16RevA.03 25-Dec-2016

 --------------------
 #p ROCCSD(T)/cc-pVTZ
 --------------------

 --------
 O2_O2_73
 --------
 Symbolic Z-matrix:
 Charge =  0 Multiplicity = 5

                         Standard orientation:
 ---------------------------------------------------------------------
 Center     Atomic      Atomic             Coordinates (Angstroms)
 Number     Number       Type             X           Y           Z
 ---------------------------------------------------------------------
      1          8           0        0.615183   -1.885183    0.000000
      2          8           0       -0.205061   -1.064939   -0.000000
      3          8           0       -0.205061    0.895061   -0.000000
      4          8           0       -0.205061    2.055061   -0.000000
 ---------------------------------------------------------------------

 SCF Done:  E(ROHF) =  -299.279999245     A.U. after   22 cycles
 E2 =    -0.9261871547D+00 EUMP2 =    -0.30020618639919D+03
 CCSD(T)
 CCSD(T)= -0.30021838075D+03

 The electronic state is 5-A'.
 Alpha  occ. eigenvalues --  -20.73920 -20.73154 -20.72911 -20.72690  -1.74847
 Alpha  occ. eigenvalues --   -1.73737  -1.20849  -1.14185  -0.85289  -0.84356
 Alpha  occ. eigenvalues --   -0.83765  -0.82742  -0.80489  -0.73057  -0.52328
 Alpha  occ. eigenvalues --   -0.51454  -0.49319  -0.49082
 Alpha virt. eigenvalues --    0.43099   0.47472   0.63979   0.64251   0.70518
 Alpha virt. eigenvalues --    0.70968   0.72425   0.75212   0.76958   0.78244
 Alpha virt. eigenvalues --    0.79169   0.85657   0.92044   0.93151   0.94955

 Mulliken charges and spin densities:
               1          2
     1  O   -0.024029   0.976537
     2  O    0.019565   1.019475
     3  O    0.018773   0.982822
     4  O   -0.014310   1.021166
 Sum of Mulliken charges =  -0.00000   4.00000

 Dipole moment (field-independent basis, Debye):
    X=             -0.0855    Y=              0.1771    Z=             -0.0000  Tot=              0.1967
 Quadrupole moment (field-independent basis, Debye-Ang):
   XX=            -20.0149   YY=            -21.1404   ZZ=            -19.6039
   XY=              0.4385   XZ=             -0.0000   YZ=              0.0000

 992\PMP2-0=-300.2061864\MP4SDQ=-300.1885387\CCSD=-300.1823945\CCSD(T)=
 Normal termination of Gaussian 16 at Tue Feb 13 14:21:19 2024.
