 Gaussian 16, Revision A.03,
 Gaussian 16:  ES64L-G16RevA.03 25-Dec-2016

 --------------------
 #p ROCCSD(T)/cc-pVTZ
 --------------------

 ---------
 O2_O2_186
 ---------
 Symbolic Z-matrix:
 Charge =  0 Multiplicity = 5

                         Standard orientation:
 ---------------------------------------------------------------------
 Center     Atomic      Atomic             Coordinates (Angstroms)
 Number     Number       Type             X           Y           Z
 ---------------------------------------------------------------------
      1          8           0        0.000000    0.000000    2.900000
      2          8           0        0.000000    0.000000    1.740000
      3          8           0        0.000000    0.000000   -1.740000
      4          8           0        0.000000    0.000000   -2.900000
 ---------------------------------------------------------------------

 SCF Done:  E(ROHF) =  -299.316581337     A.U. after   12 cycles
 E2 =    -0.9226586074D+00 EUMP2 =    -0.30023923994422D+03
 CCSD(T)
 CCSD(T)= -0.30024995594D+03

 The electronic state is 5-SGG.
 Alpha  occ. eigenvalues --  -20.73994 -20.73994 -20.73914 -20.73914  -1.74496
 Alpha  occ. eigenvalues --   -1.74489  -1.17103  -1.16963  -0.83787  -0.83787
 Alpha  occ. eigenvalues --   -0.83757  -0.83757  -0.78310  -0.77910  -0.51025
 Alpha  occ. eigenvalues --   -0.51025  -0.50906  -0.50906
 Alpha virt. eigenvalues --    0.35452   0.46689   0.65432   0.67396   0.67396
 Alpha virt. eigenvalues --    0.68516   0.68516   0.75241   0.77188   0.78118
 Alpha virt. eigenvalues --    0.78118   0.81764   0.81764   0.86371   0.87052

 Mulliken charges and spin densities:
               1          2
     1  O    0.000343   0.999010
     2  O   -0.000343   1.000990
     3  O   -0.000343   1.000990
     4  O    0.000343   0.999010
 Sum of Mulliken charges =  -0.00000   4.00000

 Dipole moment (field-independent basis, Debye):
    X=              0.0000    Y=              0.0000    Z=              0.0000  Tot=              0.0000
 Quadrupole moment (field-independent basis, Debye-Ang):
   XX=            -19.6386   YY=            -19.6386   ZZ=            -20.9028
   XY=              0.0000   XZ=              0.0000   YZ=              0.0000

 92399\MP4SDQ=-300.2211515\CCSD=-300.2146519\CCSD(T)=-300.2499559\RMSD=
 Normal termination of Gaussian 16 at Tue Feb 13 17:23:58 2024.
