 Gaussian 16, Revision A.03,
 Gaussian 16:  ES64L-G16RevA.03 25-Dec-2016

 --------------------
 #p ROCCSD(T)/cc-pVTZ
 --------------------

 --------
 O2_O2_23
 --------
 Symbolic Z-matrix:
 Charge =  0 Multiplicity = 5

                         Standard orientation:
 ---------------------------------------------------------------------
 Center     Atomic      Atomic             Coordinates (Angstroms)
 Number     Number       Type             X           Y           Z
 ---------------------------------------------------------------------
      1          8           0       -0.870000   -0.930000    0.000000
      2          8           0        0.290000   -0.930000    0.000000
      3          8           0        0.290000    0.350000    0.000000
      4          8           0        0.290000    1.510000    0.000000
 ---------------------------------------------------------------------

 SCF Done:  E(ROHF) =  -298.911394475     A.U. after   20 cycles
 E2 =    -0.9186586509D+00 EUMP2 =    -0.29983005312555D+03
 CCSD(T)
 CCSD(T)= -0.29985398525D+03

 The electronic state is 5-A'.
 Alpha  occ. eigenvalues --  -20.79002 -20.73156 -20.71688 -20.66284  -1.89610
 Alpha  occ. eigenvalues --   -1.73070  -1.36950  -1.11550  -0.95062  -0.94415
 Alpha  occ. eigenvalues --   -0.89310  -0.79898  -0.75824  -0.59693  -0.57061
 Alpha  occ. eigenvalues --   -0.51541  -0.46471  -0.36639
 Alpha virt. eigenvalues --    0.40729   0.46493   0.60026   0.63772   0.67563
 Alpha virt. eigenvalues --    0.69559   0.71710   0.73098   0.78921   0.79491
 Alpha virt. eigenvalues --    0.83968   0.85817   0.86916   0.98245   1.02041

 Mulliken charges and spin densities:
               1          2
     1  O   -0.151204   0.828843
     2  O    0.051869   0.826087
     3  O    0.158553   1.227334
     4  O   -0.059218   1.117735
 Sum of Mulliken charges =  -0.00000   4.00000

 Dipole moment (field-independent basis, Debye):
    X=              0.7729    Y=              0.5299    Z=              0.0000  Tot=              0.9372
 Quadrupole moment (field-independent basis, Debye-Ang):
   XX=            -20.7238   YY=            -22.4585   ZZ=            -19.0806
   XY=             -0.5551   XZ=              0.0000   YZ=              0.0000

 531\MP4SDQ=-299.8195606\CCSD=-299.8167829\CCSD(T)=-299.8539853\RMSD=7.
 Normal termination of Gaussian 16 at Tue Feb 13 12:41:51 2024.
