 Gaussian 16, Revision A.03,
 Gaussian 16:  ES64L-G16RevA.03 25-Dec-2016

 --------------------
 #p ROCCSD(T)/cc-pVTZ
 --------------------

 ---------
 O2_O2_115
 ---------
 Symbolic Z-matrix:
 Charge =  0 Multiplicity = 5

                         Standard orientation:
 ---------------------------------------------------------------------
 Center     Atomic      Atomic             Coordinates (Angstroms)
 Number     Number       Type             X           Y           Z
 ---------------------------------------------------------------------
      1          8           0        0.615183   -2.165183   -0.000000
      2          8           0       -0.205061   -1.344939   -0.000000
      3          8           0       -0.205061    1.175061    0.000000
      4          8           0       -0.205061    2.335061    0.000000
 ---------------------------------------------------------------------

 SCF Done:  E(ROHF) =  -299.312869861     A.U. after   22 cycles
 E2 =    -0.9242079168D+00 EUMP2 =    -0.30023707777785D+03
 CCSD(T)
 CCSD(T)= -0.30024762812D+03

 The electronic state is 5-A'.
 Alpha  occ. eigenvalues --  -20.73913 -20.73803 -20.73779 -20.73677  -1.74515
 Alpha  occ. eigenvalues --   -1.74305  -1.17829  -1.16242  -0.83937  -0.83877
 Alpha  occ. eigenvalues --   -0.83625  -0.83492  -0.79290  -0.76663  -0.51347
 Alpha  occ. eigenvalues --   -0.51125  -0.50577  -0.50407
 Alpha virt. eigenvalues --    0.40558   0.46228   0.64461   0.64564   0.68103
 Alpha virt. eigenvalues --    0.69798   0.71062   0.74897   0.75887   0.77760
 Alpha virt. eigenvalues --    0.79639   0.84231   0.86277   0.88064   0.88297

 Mulliken charges and spin densities:
               1          2
     1  O   -0.005146   0.994430
     2  O    0.005298   1.005659
     3  O    0.006596   0.998590
     4  O   -0.006748   1.001321
 Sum of Mulliken charges =  -0.00000   4.00000

 Dipole moment (field-independent basis, Debye):
    X=             -0.0234    Y=              0.0280    Z=             -0.0000  Tot=              0.0365
 Quadrupole moment (field-independent basis, Debye-Ang):
   XX=            -19.9559   YY=            -20.7483   ZZ=            -19.6379
   XY=              0.3390   XZ=             -0.0000   YZ=             -0.0000

 Normal termination of Gaussian 16 at Tue Feb 13 15:33:56 2024.
