 Gaussian 16, Revision A.03,
 Gaussian 16:  ES64L-G16RevA.03 25-Dec-2016

 --------------------
 #p ROCCSD(T)/cc-pVTZ
 --------------------

 ---------
 O2_O2_255
 ---------
 Symbolic Z-matrix:
 Charge =  0 Multiplicity = 5

                         Standard orientation:
 ---------------------------------------------------------------------
 Center     Atomic      Atomic             Coordinates (Angstroms)
 Number     Number       Type             X           Y           Z
 ---------------------------------------------------------------------
      1          8           0        0.000000    0.000000    3.360000
      2          8           0        0.000000    0.000000    2.200000
      3          8           0        0.000000    0.000000   -2.200000
      4          8           0        0.000000    0.000000   -3.360000
 ---------------------------------------------------------------------

 SCF Done:  E(ROHF) =  -299.316596497     A.U. after   11 cycles
 E2 =    -0.9223441668D+00 EUMP2 =    -0.30023894066399D+03
 CCSD(T)
 CCSD(T)= -0.30024970378D+03

 The electronic state is 5-SGG.
 Alpha  occ. eigenvalues --  -20.74015 -20.74015 -20.73938 -20.73938  -1.74515
 Alpha  occ. eigenvalues --   -1.74514  -1.17063  -1.17052  -0.83796  -0.83796
 Alpha  occ. eigenvalues --   -0.83793  -0.83793  -0.78162  -0.78113  -0.50995
 Alpha  occ. eigenvalues --   -0.50995  -0.50983  -0.50983
 Alpha virt. eigenvalues --    0.39345   0.43278   0.67956   0.67956   0.68065
 Alpha virt. eigenvalues --    0.68065   0.70333   0.73315   0.77038   0.79602
 Alpha virt. eigenvalues --    0.79602   0.79822   0.79990   0.79990   0.87068

 Mulliken charges and spin densities:
               1          2
     1  O   -0.000461   0.999422
     2  O    0.000461   1.000578
     3  O    0.000461   1.000578
     4  O   -0.000461   0.999422
 Sum of Mulliken charges =  -0.00000   4.00000

 Dipole moment (field-independent basis, Debye):
    X=             -0.0000    Y=             -0.0000    Z=              0.0000  Tot=              0.0000
 Quadrupole moment (field-independent basis, Debye-Ang):
   XX=            -19.6383   YY=            -19.6383   ZZ=            -20.8784
   XY=              0.0000   XZ=              0.0000   YZ=              0.0000

 9407\MP4SDQ=-300.2209117\CCSD=-300.2144347\CCSD(T)=-300.2497038\RMSD=5
 Normal termination of Gaussian 16 at Tue Feb 13 19:23:37 2024.
