 Gaussian 16, Revision A.03,
 Gaussian 16:  ES64L-G16RevA.03 25-Dec-2016

 --------------------
 #p ROCCSD(T)/cc-pVTZ
 --------------------

 ---------
 O2_O2_297
 ---------
 Symbolic Z-matrix:
 Charge =  0 Multiplicity = 5

                         Standard orientation:
 ---------------------------------------------------------------------
 Center     Atomic      Atomic             Coordinates (Angstroms)
 Number     Number       Type             X           Y           Z
 ---------------------------------------------------------------------
      1          8           0        0.000000    0.000000    3.640000
      2          8           0        0.000000    0.000000    2.480000
      3          8           0        0.000000    0.000000   -2.480000
      4          8           0        0.000000    0.000000   -3.640000
 ---------------------------------------------------------------------

 SCF Done:  E(ROHF) =  -299.316587950     A.U. after   11 cycles
 E2 =    -0.9222950695D+00 EUMP2 =    -0.30023888301903D+03
 CCSD(T)
 CCSD(T)= -0.30024965695D+03

 The electronic state is 5-SGG.
 Alpha  occ. eigenvalues --  -20.74023 -20.74023 -20.73946 -20.73946  -1.74523
 Alpha  occ. eigenvalues --   -1.74523  -1.17067  -1.17065  -0.83802  -0.83802
 Alpha  occ. eigenvalues --   -0.83802  -0.83802  -0.78152  -0.78141  -0.50998
 Alpha  occ. eigenvalues --   -0.50998  -0.50996  -0.50996
 Alpha virt. eigenvalues --    0.40864   0.41978   0.67995   0.67995   0.68013
 Alpha virt. eigenvalues --    0.68013   0.71696   0.72390   0.77662   0.78403
 Alpha virt. eigenvalues --    0.79753   0.79753   0.79820   0.79820   0.87061

 Mulliken charges and spin densities:
               1          2
     1  O   -0.000372   0.999587
     2  O    0.000372   1.000413
     3  O    0.000372   1.000413
     4  O   -0.000372   0.999587
 Sum of Mulliken charges =  -0.00000   4.00000

 Dipole moment (field-independent basis, Debye):
    X=             -0.0000    Y=             -0.0000    Z=              0.0000  Tot=              0.0000
 Quadrupole moment (field-independent basis, Debye-Ang):
   XX=            -19.6382   YY=            -19.6382   ZZ=            -20.8708
   XY=              0.0000   XZ=              0.0000   YZ=              0.0000

 883\MP4SDQ=-300.2208656\CCSD=-300.2143928\CCSD(T)=-300.2496569\RMSD=5.
 Normal termination of Gaussian 16 at Tue Feb 13 20:45:44 2024.
