 Gaussian 16, Revision A.03,
 Gaussian 16:  ES64L-G16RevA.03 25-Dec-2016

 --------------------
 #p ROCCSD(T)/cc-pVTZ
 --------------------

 ---------
 O2_O2_139
 ---------
 Symbolic Z-matrix:
 Charge =  0 Multiplicity = 5

                         Standard orientation:
 ---------------------------------------------------------------------
 Center     Atomic      Atomic             Coordinates (Angstroms)
 Number     Number       Type             X           Y           Z
 ---------------------------------------------------------------------
      1          8           0        0.615183   -2.325183   -0.000000
      2          8           0       -0.205061   -1.504939   -0.000000
      3          8           0       -0.205061    1.335061    0.000000
      4          8           0       -0.205061    2.495061    0.000000
 ---------------------------------------------------------------------

 SCF Done:  E(ROHF) =  -299.315683783     A.U. after   18 cycles
 E2 =    -0.9233898832D+00 EUMP2 =    -0.30023907366583D+03
 CCSD(T)
 CCSD(T)= -0.30024971441D+03

 The electronic state is 5-A'.
 Alpha  occ. eigenvalues --  -20.73967 -20.73916 -20.73891 -20.73825  -1.74504
 Alpha  occ. eigenvalues --   -1.74416  -1.17373  -1.16672  -0.83832  -0.83824
 Alpha  occ. eigenvalues --   -0.83695  -0.83651  -0.78744  -0.77397  -0.51165
 Alpha  occ. eigenvalues --   -0.51058  -0.50788  -0.50697
 Alpha virt. eigenvalues --    0.38787   0.45644   0.64537   0.65678   0.66554
 Alpha virt. eigenvalues --    0.69341   0.70388   0.74744   0.76339   0.77331
 Alpha virt. eigenvalues --    0.78135   0.83577   0.85413   0.85707   0.87157

 Mulliken charges and spin densities:
               1          2
     1  O   -0.002166   0.997118
     2  O    0.002334   1.002843
     3  O    0.001330   1.000423
     4  O   -0.001498   0.999616
 Sum of Mulliken charges =  -0.00000   4.00000

 Dipole moment (field-independent basis, Debye):
    X=             -0.0128    Y=              0.0075    Z=             -0.0000  Tot=              0.0148
 Quadrupole moment (field-independent basis, Debye-Ang):
   XX=            -19.9454   YY=            -20.6539   ZZ=            -19.6386
   XY=              0.3209   XZ=             -0.0000   YZ=             -0.0000

 Normal termination of Gaussian 16 at Tue Feb 13 16:11:38 2024.
