 Gaussian 16, Revision A.03,
 Gaussian 16:  ES64L-G16RevA.03 25-Dec-2016

 --------------------
 #p ROCCSD(T)/cc-pVTZ
 --------------------

 ---------
 O2_O2_239
 ---------
 Symbolic Z-matrix:
 Charge =  0 Multiplicity = 5

                         Standard orientation:
 ---------------------------------------------------------------------
 Center     Atomic      Atomic             Coordinates (Angstroms)
 Number     Number       Type             X           Y           Z
 ---------------------------------------------------------------------
      1          8           0       -0.870000   -2.370000    0.000000
      2          8           0        0.290000   -2.370000    0.000000
      3          8           0        0.290000    1.790000    0.000000
      4          8           0        0.290000    2.950000    0.000000
 ---------------------------------------------------------------------

 SCF Done:  E(ROHF) =  -299.316631463     A.U. after   16 cycles
 E2 =    -0.9223905584D+00 EUMP2 =    -0.30023902202149D+03
 CCSD(T)
 CCSD(T)= -0.30024978242D+03

 The electronic state is 5-A'.
 Alpha  occ. eigenvalues --  -20.74086 -20.74009 -20.74004 -20.73928  -1.74583
 Alpha  occ. eigenvalues --   -1.74500  -1.17130  -1.17046  -0.83864  -0.83863
 Alpha  occ. eigenvalues --   -0.83781  -0.83777  -0.78216  -0.78125  -0.51065
 Alpha  occ. eigenvalues --   -0.51060  -0.50977  -0.50968
 Alpha virt. eigenvalues --    0.40888   0.41583   0.66503   0.67805   0.67948
 Alpha virt. eigenvalues --    0.68157   0.72065   0.73049   0.77683   0.78194
 Alpha virt. eigenvalues --    0.79462   0.79625   0.79912   0.80964   0.86988

 Mulliken charges and spin densities:
               1          2
     1  O   -0.000138   0.999868
     2  O    0.000236   1.000122
     3  O   -0.000684   0.999412
     4  O    0.000586   1.000598
 Sum of Mulliken charges =  -0.00000   4.00000

 Dipole moment (field-independent basis, Debye):
    X=              0.0015    Y=              0.0044    Z=              0.0000  Tot=              0.0046
 Quadrupole moment (field-independent basis, Debye-Ang):
   XX=            -20.2386   YY=            -20.2222   ZZ=            -19.6382
   XY=             -0.0004   XZ=              0.0000   YZ=              0.0000

 22\MP4SDQ=-300.2209801\CCSD=-300.2145085\CCSD(T)=-300.2497824\RMSD=2.1
 Normal termination of Gaussian 16 at Tue Feb 13 18:51:33 2024.
