 Gaussian 16, Revision A.03,
 Gaussian 16:  ES64L-G16RevA.03 25-Dec-2016

 --------------------
 #p ROCCSD(T)/cc-pVTZ
 --------------------

 --------
 O2_O2_51
 --------
 Symbolic Z-matrix:
 Charge =  0 Multiplicity = 5

                         Standard orientation:
 ---------------------------------------------------------------------
 Center     Atomic      Atomic             Coordinates (Angstroms)
 Number     Number       Type             X           Y           Z
 ---------------------------------------------------------------------
      1          8           0        0.000000    0.000000    2.000000
      2          8           0        0.000000    0.000000    0.840000
      3          8           0        0.000000    0.000000   -0.840000
      4          8           0        0.000000    0.000000   -2.000000
 ---------------------------------------------------------------------

 SCF Done:  E(ROHF) =  -299.207137718     A.U. after   12 cycles
 E2 =    -0.9364279185D+00 EUMP2 =    -0.30014356563698D+03
 CCSD(T)
 CCSD(T)= -0.30015152415D+03

 The electronic state is 5-SGG.
 Alpha  occ. eigenvalues --  -20.73122 -20.73122 -20.71050 -20.71046  -1.74827
 Alpha  occ. eigenvalues --   -1.72932  -1.25349  -1.11442  -0.85253  -0.84669
 Alpha  occ. eigenvalues --   -0.84669  -0.81760  -0.81760  -0.66242  -0.53406
 Alpha  occ. eigenvalues --   -0.53406  -0.47143  -0.47143
 Alpha virt. eigenvalues --    0.45142   0.48824   0.65483   0.65483   0.70696
 Alpha virt. eigenvalues --    0.70696   0.70749   0.76609   0.77899   0.77899
 Alpha virt. eigenvalues --    0.84970   0.86107   0.97146   0.97146   0.99825

 Mulliken charges and spin densities:
               1          2
     1  O   -0.026745   1.046377
     2  O    0.026745   0.953623
     3  O    0.026745   0.953623
     4  O   -0.026745   1.046377
 Sum of Mulliken charges =   0.00000   4.00000

 Dipole moment (field-independent basis, Debye):
    X=             -0.0000    Y=              0.0000    Z=             -0.0000  Tot=              0.0000
 Quadrupole moment (field-independent basis, Debye-Ang):
   XX=            -19.5493   YY=            -19.5493   ZZ=            -21.5243
   XY=              0.0000   XZ=              0.0000   YZ=              0.0000

 5656\MP4SDQ=-300.1222416\CCSD=-300.1146916\CCSD(T)=-300.1515242\RMSD=2
 Normal termination of Gaussian 16 at Tue Feb 13 13:38:45 2024.
