 Gaussian 16, Revision A.03,
 Gaussian 16:  ES64L-G16RevA.03 25-Dec-2016

 --------------------
 #p ROCCSD(T)/cc-pVTZ
 --------------------

 --------
 O2_O2_47
 --------
 Symbolic Z-matrix:
 Charge =  0 Multiplicity = 5

                         Standard orientation:
 ---------------------------------------------------------------------
 Center     Atomic      Atomic             Coordinates (Angstroms)
 Number     Number       Type             X           Y           Z
 ---------------------------------------------------------------------
      1          8           0       -0.870000   -1.090000    0.000000
      2          8           0        0.290000   -1.090000    0.000000
      3          8           0        0.290000    0.510000    0.000000
      4          8           0        0.290000    1.670000    0.000000
 ---------------------------------------------------------------------

 SCF Done:  E(ROHF) =  -299.164982691     A.U. after   22 cycles
 E2 =    -0.9098467026D+00 EUMP2 =    -0.30007482939375D+03
 CCSD(T)
 CCSD(T)= -0.30010386436D+03

 The electronic state is 5-A'.
 Alpha  occ. eigenvalues --  -20.74164 -20.73616 -20.72862 -20.68681  -1.78510
 Alpha  occ. eigenvalues --   -1.72905  -1.25495  -1.13709  -0.91376  -0.87179
 Alpha  occ. eigenvalues --   -0.85391  -0.81357  -0.76904  -0.67226  -0.53779
 Alpha  occ. eigenvalues --   -0.53463  -0.48373  -0.45913
 Alpha virt. eigenvalues --    0.41427   0.46576   0.63361   0.64592   0.67803
 Alpha virt. eigenvalues --    0.70302   0.72169   0.74562   0.78402   0.79647
 Alpha virt. eigenvalues --    0.80903   0.85850   0.87206   0.98149   0.98703

 Mulliken charges and spin densities:
               1          2
     1  O   -0.088461   0.874069
     2  O    0.066884   1.073989
     3  O    0.043694   1.010508
     4  O   -0.022117   1.041434
 Sum of Mulliken charges =  -0.00000   4.00000

 Dipole moment (field-independent basis, Debye):
    X=              0.4982    Y=              0.3276    Z=              0.0000  Tot=              0.5962
 Quadrupole moment (field-independent basis, Debye-Ang):
   XX=            -20.5800   YY=            -21.1407   ZZ=            -19.4301
   XY=             -0.5188   XZ=              0.0000   YZ=              0.0000

 94\MP4SDQ=-300.0685601\CCSD=-300.067455\CCSD(T)=-300.1038644\RMSD=3.21
 Normal termination of Gaussian 16 at Tue Feb 13 13:31:38 2024.
