 Gaussian 16, Revision A.03,
 Gaussian 16:  ES64L-G16RevA.03 25-Dec-2016

 --------------------
 #p ROCCSD(T)/cc-pVTZ
 --------------------

 --------
 O2_O2_59
 --------
 Symbolic Z-matrix:
 Charge =  0 Multiplicity = 5

                         Standard orientation:
 ---------------------------------------------------------------------
 Center     Atomic      Atomic             Coordinates (Angstroms)
 Number     Number       Type             X           Y           Z
 ---------------------------------------------------------------------
      1          8           0       -0.870000   -1.170000    0.000000
      2          8           0        0.290000   -1.170000    0.000000
      3          8           0        0.290000    0.590000    0.000000
      4          8           0        0.290000    1.750000    0.000000
 ---------------------------------------------------------------------

 SCF Done:  E(ROHF) =  -299.228938055     A.U. after   23 cycles
 E2 =    -0.9149521387D+00 EUMP2 =    -0.30014389019352D+03
 CCSD(T)
 CCSD(T)= -0.30016843650D+03

 The electronic state is 5-A'.
 Alpha  occ. eigenvalues --  -20.74122 -20.73222 -20.73147 -20.70355  -1.76603
 Alpha  occ. eigenvalues --   -1.73231  -1.22128  -1.14667  -0.89474  -0.85762
 Alpha  occ. eigenvalues --   -0.84496  -0.81970  -0.77494  -0.70823  -0.53325
 Alpha  occ. eigenvalues --   -0.52509  -0.49104  -0.47428
 Alpha virt. eigenvalues --    0.41416   0.46483   0.64229   0.65324   0.67665
 Alpha virt. eigenvalues --    0.70668   0.71720   0.74661   0.77841   0.79308
 Alpha virt. eigenvalues --    0.79473   0.85810   0.87076   0.95221   0.98440

 Mulliken charges and spin densities:
               1          2
     1  O   -0.059522   0.911466
     2  O    0.051343   1.069821
     3  O    0.022932   0.987302
     4  O   -0.014754   1.031410
 Sum of Mulliken charges =  -0.00000   4.00000

 Dipole moment (field-independent basis, Debye):
    X=              0.3462    Y=              0.2032    Z=              0.0000  Tot=              0.4015
 Quadrupole moment (field-independent basis, Debye-Ang):
   XX=            -20.4668   YY=            -20.8423   ZZ=            -19.5223
   XY=             -0.4112   XZ=              0.0000   YZ=              0.0000

 902\MP4SDQ=-300.1345042\CCSD=-300.1321987\CCSD(T)=-300.1684365\RMSD=3.
 Normal termination of Gaussian 16 at Tue Feb 13 13:53:50 2024.
