 Gaussian 16, Revision A.03,
 Gaussian 16:  ES64L-G16RevA.03 25-Dec-2016

 --------------------
 #p ROCCSD(T)/cc-pVTZ
 --------------------

 --------
 O2_O2_19
 --------
 Symbolic Z-matrix:
 Charge =  0 Multiplicity = 5

                         Standard orientation:
 ---------------------------------------------------------------------
 Center     Atomic      Atomic             Coordinates (Angstroms)
 Number     Number       Type             X           Y           Z
 ---------------------------------------------------------------------
      1          8           0        0.615183   -1.525183    0.000000
      2          8           0       -0.205061   -0.704939    0.000000
      3          8           0       -0.205061    0.535061   -0.000000
      4          8           0       -0.205061    1.695061   -0.000000
 ---------------------------------------------------------------------

 SCF Done:  E(ROHF) =  -298.890584359     A.U. after   22 cycles
 E2 =    -0.9233376361D+00 EUMP2 =    -0.29981392199500D+03
 CCSD(T)
 CCSD(T)= -0.29983529620D+03

 The electronic state is 5-A'.
 Alpha  occ. eigenvalues --  -20.79674 -20.75722 -20.68724 -20.65832  -1.86447
 Alpha  occ. eigenvalues --   -1.72589  -1.45273  -1.07211  -0.94013  -0.93354
 Alpha  occ. eigenvalues --   -0.90136  -0.80011  -0.76617  -0.60051  -0.58084
 Alpha  occ. eigenvalues --   -0.51862  -0.43271  -0.33262
 Alpha virt. eigenvalues --    0.44712   0.51220   0.63284   0.63561   0.64040
 Alpha virt. eigenvalues --    0.68111   0.71451   0.74508   0.78741   0.81056
 Alpha virt. eigenvalues --    0.81784   0.86248   0.92496   0.97056   1.04729

 Mulliken charges and spin densities:
               1          2
     1  O   -0.142445   0.886861
     2  O   -0.010258   0.724174
     3  O    0.141418   1.141145
     4  O    0.011285   1.247820
 Sum of Mulliken charges =  -0.00000   4.00000

 Dipole moment (field-independent basis, Debye):
    X=             -0.3034    Y=              1.5391    Z=             -0.0000  Tot=              1.5688
 Quadrupole moment (field-independent basis, Debye-Ang):
   XX=            -20.5368   YY=            -23.0339   ZZ=            -19.0542
   XY=              0.6871   XZ=             -0.0000   YZ=              0.0000

 44\PMP2-0=-299.813922\MP4SDQ=-299.8011026\CCSD=-299.7973216\CCSD(T)=-2
 Normal termination of Gaussian 16 at Tue Feb 13 12:33:46 2024.
