 Gaussian 16, Revision A.03,
 Gaussian 16:  ES64L-G16RevA.03 25-Dec-2016

 --------------------
 #p ROCCSD(T)/cc-pVTZ
 --------------------

 ---------
 O2_O2_199
 ---------
 Symbolic Z-matrix:
 Charge =  0 Multiplicity = 5

                         Standard orientation:
 ---------------------------------------------------------------------
 Center     Atomic      Atomic             Coordinates (Angstroms)
 Number     Number       Type             X           Y           Z
 ---------------------------------------------------------------------
      1          8           0        0.615183   -2.725183    0.000000
      2          8           0       -0.205061   -1.904939    0.000000
      3          8           0       -0.205061    1.735061   -0.000000
      4          8           0       -0.205061    2.895061   -0.000000
 ---------------------------------------------------------------------

 SCF Done:  E(ROHF) =  -299.316624478     A.U. after   17 cycles
 E2 =    -0.9225640366D+00 EUMP2 =    -0.30023918851442D+03
 CCSD(T)
 CCSD(T)= -0.30024992100D+03

 The electronic state is 5-A'.
 Alpha  occ. eigenvalues --  -20.74022 -20.74006 -20.73944 -20.73926  -1.74522
 Alpha  occ. eigenvalues --   -1.74501  -1.17097  -1.17008  -0.83805  -0.83804
 Alpha  occ. eigenvalues --   -0.83777  -0.83775  -0.78247  -0.78016  -0.51025
 Alpha  occ. eigenvalues --   -0.51007  -0.50956  -0.50946
 Alpha virt. eigenvalues --    0.37438   0.44439   0.65229   0.67562   0.67837
 Alpha virt. eigenvalues --    0.68389   0.69517   0.74310   0.76638   0.78125
 Alpha virt. eigenvalues --    0.78613   0.80506   0.81105   0.85965   0.87040

 Mulliken charges and spin densities:
               1          2
     1  O   -0.000294   0.999170
     2  O    0.000509   1.000689
     3  O   -0.000391   1.000692
     4  O    0.000176   0.999448
 Sum of Mulliken charges =  -0.00000   4.00000

 Dipole moment (field-independent basis, Debye):
    X=             -0.0041    Y=             -0.0027    Z=             -0.0000  Tot=              0.0049
 Quadrupole moment (field-independent basis, Debye-Ang):
   XX=            -19.9393   YY=            -20.5704   ZZ=            -19.6385
   XY=              0.3064   XZ=             -0.0000   YZ=              0.0000

 6245\PMP2-0=-300.2391885\MP4SDQ=-300.221114\CCSD=-300.2146264\CCSD(T)=
 Normal termination of Gaussian 16 at Tue Feb 13 17:43:25 2024.
