 Gaussian 16, Revision A.03,
 Gaussian 16:  ES64L-G16RevA.03 25-Dec-2016

 --------------------
 #p ROCCSD(T)/cc-pVTZ
 --------------------

 -------
 O2_O2_2
 -------
 Symbolic Z-matrix:
 Charge =  0 Multiplicity = 5

                         Standard orientation:
 ---------------------------------------------------------------------
 Center     Atomic      Atomic             Coordinates (Angstroms)
 Number     Number       Type             X           Y           Z
 ---------------------------------------------------------------------
      1          8           0       -0.870000   -0.790000    0.000000
      2          8           0        0.290000   -0.790000    0.000000
      3          8           0        0.290000    0.210000    0.000000
      4          8           0        0.290000    1.370000    0.000000
 ---------------------------------------------------------------------

 SCF Done:  E(ROHF) =  -298.472308641     A.U. after   22 cycles
 E2 =    -0.9025075311D+00 EUMP2 =    -0.29937481617230D+03
 CCSD(T)
 CCSD(T)= -0.29940370195D+03

 The electronic state is 5-A'.
 Alpha  occ. eigenvalues --  -20.77816 -20.76254 -20.69136 -20.65009  -2.13740
 Alpha  occ. eigenvalues --   -1.71508  -1.49694  -1.12082  -1.08063  -0.98305
 Alpha  occ. eigenvalues --   -0.92301  -0.76318  -0.74179  -0.60930  -0.59746
 Alpha  occ. eigenvalues --   -0.45202  -0.40942  -0.21863
 Alpha virt. eigenvalues --    0.38834   0.45889   0.59883   0.60913   0.63563
 Alpha virt. eigenvalues --    0.68577   0.70255   0.74286   0.75212   0.80078
 Alpha virt. eigenvalues --    0.85946   0.87712   0.92517   1.00869   1.21858

 Mulliken charges and spin densities:
               1          2
     1  O   -0.138434   0.900985
     2  O    0.180307   0.328812
     3  O   -0.008956   1.199638
     4  O   -0.032917   1.570564
 Sum of Mulliken charges =  -0.00000   4.00000

 Dipole moment (field-independent basis, Debye):
    X=              0.5460    Y=             -1.2805    Z=              0.0000  Tot=              1.3920
 Quadrupole moment (field-independent basis, Debye-Ang):
   XX=            -20.2910   YY=            -23.7239   ZZ=            -18.6379
   XY=             -1.0490   XZ=              0.0000   YZ=              0.0000

 \MP4SDQ=-299.3685463\CCSD=-299.3677414\CCSD(T)=-299.4037019\RMSD=6.818
 Normal termination of Gaussian 16 at Tue Feb 13 12:00:19 2024.
