 Gaussian 16, Revision A.03,
 Gaussian 16:  ES64L-G16RevA.03 25-Dec-2016

 --------------------
 #p ROCCSD(T)/cc-pVTZ
 --------------------

 --------
 O2_O2_61
 --------
 Symbolic Z-matrix:
 Charge =  0 Multiplicity = 5

                         Standard orientation:
 ---------------------------------------------------------------------
 Center     Atomic      Atomic             Coordinates (Angstroms)
 Number     Number       Type             X           Y           Z
 ---------------------------------------------------------------------
      1          8           0        0.615183   -1.805183    0.000000
      2          8           0       -0.205061   -0.984939    0.000000
      3          8           0       -0.205061    0.815061    0.000000
      4          8           0       -0.205061    1.975061    0.000000
 ---------------------------------------------------------------------

 SCF Done:  E(ROHF) =  -299.249049446     A.U. after   23 cycles
 E2 =    -0.9255839119D+00 EUMP2 =    -0.30017463335797D+03
 CCSD(T)
 CCSD(T)= -0.30018955341D+03

 The electronic state is 5-A'.
 Alpha  occ. eigenvalues --  -20.74063 -20.72869 -20.72318 -20.71928  -1.75264
 Alpha  occ. eigenvalues --   -1.73409  -1.23125  -1.13018  -0.86467  -0.84820
 Alpha  occ. eigenvalues --   -0.84162  -0.82327  -0.80382  -0.70813  -0.53011
 Alpha  occ. eigenvalues --   -0.51727  -0.48356  -0.48322
 Alpha virt. eigenvalues --    0.43830   0.47865   0.64199   0.64632   0.70701
 Alpha virt. eigenvalues --    0.71322   0.71819   0.75399   0.77347   0.77865
 Alpha virt. eigenvalues --    0.79504   0.85274   0.92738   0.94811   0.97567

 Mulliken charges and spin densities:
               1          2
     1  O   -0.037880   0.964379
     2  O    0.028802   1.023791
     3  O    0.018990   0.973218
     4  O   -0.009912   1.038612
 Sum of Mulliken charges =   0.00000   4.00000

 Dipole moment (field-independent basis, Debye):
    X=             -0.1241    Y=              0.3066    Z=             -0.0000  Tot=              0.3308
 Quadrupole moment (field-independent basis, Debye-Ang):
   XX=            -20.0598   YY=            -21.3287   ZZ=            -19.5660
   XY=              0.4937   XZ=              0.0000   YZ=             -0.0000

 494\PMP2-0=-300.1746334\MP4SDQ=-300.1587222\CCSD=-300.1532789\CCSD(T)=
 Normal termination of Gaussian 16 at Tue Feb 13 13:57:19 2024.
