 Gaussian 16, Revision A.03,
 Gaussian 16:  ES64L-G16RevA.03 25-Dec-2016

 --------------------
 #p ROCCSD(T)/cc-pVTZ
 --------------------

 ---------
 O2_O2_160
 ---------
 Symbolic Z-matrix:
 Charge =  0 Multiplicity = 5

                         Standard orientation:
 ---------------------------------------------------------------------
 Center     Atomic      Atomic             Coordinates (Angstroms)
 Number     Number       Type             X           Y           Z
 ---------------------------------------------------------------------
      1          8           0        0.615183   -2.465183   -0.000000
      2          8           0       -0.205061   -1.644939    0.000000
      3          8           0       -0.205061    1.475061    0.000000
      4          8           0       -0.205061    2.635061    0.000000
 ---------------------------------------------------------------------

 SCF Done:  E(ROHF) =  -299.316370647     A.U. after   16 cycles
 E2 =    -0.9229741605D+00 EUMP2 =    -0.30023934480711D+03
 CCSD(T)
 CCSD(T)= -0.30025003367D+03

 The electronic state is 5-A'.
 Alpha  occ. eigenvalues --  -20.73998 -20.73970 -20.73921 -20.73884  -1.74509
 Alpha  occ. eigenvalues --   -1.74464  -1.17203  -1.16863  -0.83809  -0.83807
 Alpha  occ. eigenvalues --   -0.83737  -0.83722  -0.78470  -0.77736  -0.51086
 Alpha  occ. eigenvalues --   -0.51028  -0.50881  -0.50832
 Alpha virt. eigenvalues --    0.37507   0.45273   0.63944   0.66589   0.67047
 Alpha virt. eigenvalues --    0.68951   0.69938   0.74703   0.77115   0.77195
 Alpha virt. eigenvalues --    0.77514   0.82313   0.83431   0.85853   0.87051

 Mulliken charges and spin densities:
               1          2
     1  O   -0.000917   0.998236
     2  O    0.001149   1.001612
     3  O   -0.000433   1.000810
     4  O    0.000201   0.999342
 Sum of Mulliken charges =  -0.00000   4.00000

 Dipole moment (field-independent basis, Debye):
    X=             -0.0081    Y=              0.0002    Z=              0.0000  Tot=              0.0081
 Quadrupole moment (field-independent basis, Debye-Ang):
   XX=            -19.9415   YY=            -20.6079   ZZ=            -19.6386
   XY=              0.3130   XZ=             -0.0000   YZ=             -0.0000

 Normal termination of Gaussian 16 at Tue Feb 13 16:44:08 2024.
