 Gaussian 16, Revision A.03,
 Gaussian 16:  ES64L-G16RevA.03 25-Dec-2016

 --------------------
 #p ROCCSD(T)/cc-pVTZ
 --------------------

 ---------
 O2_O2_231
 ---------
 Symbolic Z-matrix:
 Charge =  0 Multiplicity = 5

                         Standard orientation:
 ---------------------------------------------------------------------
 Center     Atomic      Atomic             Coordinates (Angstroms)
 Number     Number       Type             X           Y           Z
 ---------------------------------------------------------------------
      1          8           0        0.000000    0.000000    3.200000
      2          8           0        0.000000    0.000000    2.040000
      3          8           0        0.000000    0.000000   -2.040000
      4          8           0        0.000000    0.000000   -3.200000
 ---------------------------------------------------------------------

 SCF Done:  E(ROHF) =  -299.316607953     A.U. after   11 cycles
 E2 =    -0.9224049200D+00 EUMP2 =    -0.30023901287276D+03
 CCSD(T)
 CCSD(T)= -0.30024976425D+03

 The electronic state is 5-SGG.
 Alpha  occ. eigenvalues --  -20.74010 -20.74010 -20.73932 -20.73932  -1.74510
 Alpha  occ. eigenvalues --   -1.74509  -1.17064  -1.17037  -0.83792  -0.83792
 Alpha  occ. eigenvalues --   -0.83786  -0.83786  -0.78182  -0.78078  -0.50997
 Alpha  occ. eigenvalues --   -0.50997  -0.50969  -0.50969
 Alpha virt. eigenvalues --    0.37790   0.44460   0.67878   0.67878   0.68146
 Alpha virt. eigenvalues --    0.68146   0.68655   0.74116   0.76782   0.79343
 Alpha virt. eigenvalues --    0.79343   0.80274   0.80274   0.82018   0.87067

 Mulliken charges and spin densities:
               1          2
     1  O   -0.000359   0.999303
     2  O    0.000359   1.000697
     3  O    0.000359   1.000697
     4  O   -0.000359   0.999303
 Sum of Mulliken charges =  -0.00000   4.00000

 Dipole moment (field-independent basis, Debye):
    X=             -0.0000    Y=              0.0000    Z=              0.0000  Tot=              0.0000
 Quadrupole moment (field-independent basis, Debye-Ang):
   XX=            -19.6384   YY=            -19.6384   ZZ=            -20.8833
   XY=              0.0000   XZ=              0.0000   YZ=              0.0000

 129\MP4SDQ=-300.2209704\CCSD=-300.2144888\CCSD(T)=-300.2497642\RMSD=7.
 Normal termination of Gaussian 16 at Tue Feb 13 18:36:48 2024.
