 Gaussian 16, Revision A.03,
 Gaussian 16:  ES64L-G16RevA.03 25-Dec-2016

 --------------------
 #p ROCCSD(T)/cc-pVTZ
 --------------------

 ---------
 O2_O2_177
 ---------
 Symbolic Z-matrix:
 Charge =  0 Multiplicity = 5

                         Standard orientation:
 ---------------------------------------------------------------------
 Center     Atomic      Atomic             Coordinates (Angstroms)
 Number     Number       Type             X           Y           Z
 ---------------------------------------------------------------------
      1          8           0        0.000000    0.000000    2.840000
      2          8           0        0.000000    0.000000    1.680000
      3          8           0        0.000000    0.000000   -1.680000
      4          8           0        0.000000    0.000000   -2.840000
 ---------------------------------------------------------------------

 SCF Done:  E(ROHF) =  -299.316546372     A.U. after   12 cycles
 E2 =    -0.9227427659D+00 EUMP2 =    -0.30023928913748D+03
 CCSD(T)
 CCSD(T)= -0.30024999593D+03

 The electronic state is 5-SGG.
 Alpha  occ. eigenvalues --  -20.73988 -20.73988 -20.73907 -20.73907  -1.74493
 Alpha  occ. eigenvalues --   -1.74482  -1.17124  -1.16932  -0.83787  -0.83787
 Alpha  occ. eigenvalues --   -0.83746  -0.83746  -0.78366  -0.77843  -0.51038
 Alpha  occ. eigenvalues --   -0.51038  -0.50882  -0.50882
 Alpha virt. eigenvalues --    0.35491   0.47017   0.65126   0.67201   0.67201
 Alpha virt. eigenvalues --    0.68633   0.68633   0.75359   0.77430   0.77738
 Alpha virt. eigenvalues --    0.77738   0.82308   0.82308   0.86390   0.87047

 Mulliken charges and spin densities:
               1          2
     1  O    0.000255   0.998935
     2  O   -0.000255   1.001065
     3  O   -0.000255   1.001065
     4  O    0.000255   0.998935
 Sum of Mulliken charges =  -0.00000   4.00000

 Dipole moment (field-independent basis, Debye):
    X=              0.0000    Y=             -0.0000    Z=             -0.0000  Tot=              0.0000
 Quadrupole moment (field-independent basis, Debye-Ang):
   XX=            -19.6386   YY=            -19.6386   ZZ=            -20.9096
   XY=              0.0000   XZ=              0.0000   YZ=              0.0000

 92891\MP4SDQ=-300.2211875\CCSD=-300.2146821\CCSD(T)=-300.2499959\RMSD=
 Normal termination of Gaussian 16 at Tue Feb 13 17:10:35 2024.
