 Gaussian 16, Revision A.03,
 Gaussian 16:  ES64L-G16RevA.03 25-Dec-2016

 --------------------
 #p ROCCSD(T)/cc-pVTZ
 --------------------

 ---------
 O2_O2_298
 ---------
 Symbolic Z-matrix:
 Charge =  0 Multiplicity = 5

                         Standard orientation:
 ---------------------------------------------------------------------
 Center     Atomic      Atomic             Coordinates (Angstroms)
 Number     Number       Type             X           Y           Z
 ---------------------------------------------------------------------
      1          8           0        0.615183   -3.385183   -0.000000
      2          8           0       -0.205061   -2.564939   -0.000000
      3          8           0       -0.205061    2.395061    0.000000
      4          8           0       -0.205061    3.555061    0.000000
 ---------------------------------------------------------------------

 SCF Done:  E(ROHF) =  -299.316590135     A.U. after   16 cycles
 E2 =    -0.9222920446D+00 EUMP2 =    -0.30023888217933D+03
 CCSD(T)
 CCSD(T)= -0.30024965783D+03

 The electronic state is 5-A'.
 Alpha  occ. eigenvalues --  -20.74039 -20.74022 -20.73963 -20.73945  -1.74538
 Alpha  occ. eigenvalues --   -1.74521  -1.17082  -1.17065  -0.83818  -0.83818
 Alpha  occ. eigenvalues --   -0.83801  -0.83800  -0.78164  -0.78145  -0.51013
 Alpha  occ. eigenvalues --   -0.51013  -0.50996  -0.50995
 Alpha virt. eigenvalues --    0.41048   0.41781   0.67984   0.67985   0.68003
 Alpha virt. eigenvalues --    0.68009   0.71797   0.72284   0.77742   0.78231
 Alpha virt. eigenvalues --    0.79745   0.79767   0.79812   0.79858   0.87047

 Mulliken charges and spin densities:
               1          2
     1  O   -0.000349   0.999618
     2  O    0.000351   1.000381
     3  O    0.000178   1.000203
     4  O   -0.000180   0.999798
 Sum of Mulliken charges =  -0.00000   4.00000

 Dipole moment (field-independent basis, Debye):
    X=             -0.0018    Y=              0.0006    Z=              0.0000  Tot=              0.0019
 Quadrupole moment (field-independent basis, Debye-Ang):
   XX=            -19.9387   YY=            -20.5580   ZZ=            -19.6382
   XY=              0.3033   XZ=             -0.0000   YZ=             -0.0000

 01\PMP2-0=-300.2388822\MP4SDQ=-300.2208654\CCSD=-300.214394\CCSD(T)=-3
 Normal termination of Gaussian 16 at Tue Feb 13 20:47:46 2024.
