 Gaussian 16, Revision A.03,
 Gaussian 16:  ES64L-G16RevA.03 25-Dec-2016

 --------------------
 #p ROCCSD(T)/cc-pVTZ
 --------------------

 ---------
 O2_O2_283
 ---------
 Symbolic Z-matrix:
 Charge =  0 Multiplicity = 5

                         Standard orientation:
 ---------------------------------------------------------------------
 Center     Atomic      Atomic             Coordinates (Angstroms)
 Number     Number       Type             X           Y           Z
 ---------------------------------------------------------------------
      1          8           0        0.615183   -3.285183    0.000000
      2          8           0       -0.205061   -2.464939    0.000000
      3          8           0       -0.205061    2.295061   -0.000000
      4          8           0       -0.205061    3.455061   -0.000000
 ---------------------------------------------------------------------

 SCF Done:  E(ROHF) =  -299.316592202     A.U. after   16 cycles
 E2 =    -0.9223041291D+00 EUMP2 =    -0.30023889633083D+03
 CCSD(T)
 CCSD(T)= -0.30024966944D+03

 The electronic state is 5-A'.
 Alpha  occ. eigenvalues --  -20.74037 -20.74019 -20.73961 -20.73942  -1.74537
 Alpha  occ. eigenvalues --   -1.74518  -1.17081  -1.17062  -0.83817  -0.83817
 Alpha  occ. eigenvalues --   -0.83798  -0.83798  -0.78164  -0.78140  -0.51012
 Alpha  occ. eigenvalues --   -0.51012  -0.50993  -0.50992
 Alpha virt. eigenvalues --    0.40806   0.42005   0.67972   0.67978   0.68001
 Alpha virt. eigenvalues --    0.68019   0.71597   0.72452   0.77572   0.78360
 Alpha virt. eigenvalues --    0.79718   0.79769   0.79844   0.79988   0.87048

 Mulliken charges and spin densities:
               1          2
     1  O   -0.000388   0.999573
     2  O    0.000393   1.000423
     3  O    0.000199   1.000237
     4  O   -0.000205   0.999767
 Sum of Mulliken charges =  -0.00000   4.00000

 Dipole moment (field-independent basis, Debye):
    X=             -0.0020    Y=              0.0006    Z=             -0.0000  Tot=              0.0021
 Quadrupole moment (field-independent basis, Debye-Ang):
   XX=            -19.9388   YY=            -20.5597   ZZ=            -19.6382
   XY=              0.3036   XZ=             -0.0000   YZ=              0.0000

 Normal termination of Gaussian 16 at Tue Feb 13 20:19:06 2024.
