 Gaussian 16, Revision A.03,
 Gaussian 16:  ES64L-G16RevA.03 25-Dec-2016

 --------------------
 #p ROCCSD(T)/cc-pVTZ
 --------------------

 ---------
 O2_O2_197
 ---------
 Symbolic Z-matrix:
 Charge =  0 Multiplicity = 5

                         Standard orientation:
 ---------------------------------------------------------------------
 Center     Atomic      Atomic             Coordinates (Angstroms)
 Number     Number       Type             X           Y           Z
 ---------------------------------------------------------------------
      1          8           0       -0.870000   -2.090000    0.000000
      2          8           0        0.290000   -2.090000    0.000000
      3          8           0        0.290000    1.510000    0.000000
      4          8           0        0.290000    2.670000    0.000000
 ---------------------------------------------------------------------

 SCF Done:  E(ROHF) =  -299.316671542     A.U. after   16 cycles
 E2 =    -0.9226243912D+00 EUMP2 =    -0.30023929593351D+03
 CCSD(T)
 CCSD(T)= -0.30025002777D+03

 The electronic state is 5-A'.
 Alpha  occ. eigenvalues --  -20.74103 -20.74023 -20.73991 -20.73915  -1.74598
 Alpha  occ. eigenvalues --   -1.74484  -1.17150  -1.17027  -0.83881  -0.83880
 Alpha  occ. eigenvalues --   -0.83764  -0.83760  -0.78259  -0.78077  -0.51115
 Alpha  occ. eigenvalues --   -0.51077  -0.50960  -0.50915
 Alpha virt. eigenvalues --    0.39733   0.41707   0.63360   0.67256   0.67705
 Alpha virt. eigenvalues --    0.68601   0.72055   0.74577   0.76750   0.78239
 Alpha virt. eigenvalues --    0.79325   0.80218   0.80350   0.83571   0.86930

 Mulliken charges and spin densities:
               1          2
     1  O   -0.000227   0.999766
     2  O    0.000572   1.000206
     3  O   -0.001712   0.999071
     4  O    0.001368   1.000957
 Sum of Mulliken charges =  -0.00000   4.00000

 Dipole moment (field-independent basis, Debye):
    X=              0.0028    Y=              0.0053    Z=              0.0000  Tot=              0.0060
 Quadrupole moment (field-independent basis, Debye-Ang):
   XX=            -20.2389   YY=            -20.2131   ZZ=            -19.6382
   XY=             -0.0005   XZ=              0.0000   YZ=              0.0000

 959\MP4SDQ=-300.2212039\CCSD=-300.2147252\CCSD(T)=-300.2500278\RMSD=3.
 Normal termination of Gaussian 16 at Tue Feb 13 17:40:33 2024.
