 Gaussian 16, Revision A.03,
 Gaussian 16:  ES64L-G16RevA.03 25-Dec-2016

 --------------------
 #p ROCCSD(T)/cc-pVTZ
 --------------------

 ---------
 O2_O2_229
 ---------
 Symbolic Z-matrix:
 Charge =  0 Multiplicity = 5

                         Standard orientation:
 ---------------------------------------------------------------------
 Center     Atomic      Atomic             Coordinates (Angstroms)
 Number     Number       Type             X           Y           Z
 ---------------------------------------------------------------------
      1          8           0        0.615183   -2.925183   -0.000000
      2          8           0       -0.205061   -2.104939   -0.000000
      3          8           0       -0.205061    1.935061    0.000000
      4          8           0       -0.205061    3.095061    0.000000
 ---------------------------------------------------------------------

 SCF Done:  E(ROHF) =  -299.316622027     A.U. after   13 cycles
 E2 =    -0.9224109865D+00 EUMP2 =    -0.30023903301308D+03
 CCSD(T)
 CCSD(T)= -0.30024978657D+03

 The electronic state is 5-A'.
 Alpha  occ. eigenvalues --  -20.74030 -20.74012 -20.73953 -20.73934  -1.74529
 Alpha  occ. eigenvalues --   -1.74509  -1.17079  -1.17044  -0.83809  -0.83809
 Alpha  occ. eigenvalues --   -0.83788  -0.83786  -0.78188  -0.78095  -0.51011
 Alpha  occ. eigenvalues --   -0.51006  -0.50977  -0.50976
 Alpha virt. eigenvalues --    0.38857   0.43484   0.67120   0.67846   0.67985
 Alpha virt. eigenvalues --    0.68156   0.69919   0.73643   0.76694   0.78536
 Alpha virt. eigenvalues --    0.79305   0.79940   0.80294   0.83145   0.87049

 Mulliken charges and spin densities:
               1          2
     1  O   -0.000400   0.999405
     2  O    0.000490   1.000537
     3  O    0.000089   1.000467
     4  O   -0.000179   0.999592
 Sum of Mulliken charges =  -0.00000   4.00000

 Dipole moment (field-independent basis, Debye):
    X=             -0.0029    Y=             -0.0011    Z=              0.0000  Tot=              0.0031
 Quadrupole moment (field-independent basis, Debye-Ang):
   XX=            -19.9390   YY=            -20.5641   ZZ=            -19.6384
   XY=              0.3046   XZ=              0.0000   YZ=             -0.0000

 2\PMP2-0=-300.239033\MP4SDQ=-300.2209891\CCSD=-300.2145102\CCSD(T)=-30
 Normal termination of Gaussian 16 at Tue Feb 13 18:33:23 2024.
