 Gaussian 16, Revision A.03,
 Gaussian 16:  ES64L-G16RevA.03 25-Dec-2016

 --------------------
 #p ROCCSD(T)/cc-pVTZ
 --------------------

 --------
 O2_O2_88
 --------
 Symbolic Z-matrix:
 Charge =  0 Multiplicity = 5

                         Standard orientation:
 ---------------------------------------------------------------------
 Center     Atomic      Atomic             Coordinates (Angstroms)
 Number     Number       Type             X           Y           Z
 ---------------------------------------------------------------------
      1          8           0        0.615183   -1.985183    0.000000
      2          8           0       -0.205061   -1.164939    0.000000
      3          8           0       -0.205061    0.995061   -0.000000
      4          8           0       -0.205061    2.155061   -0.000000
 ---------------------------------------------------------------------

 SCF Done:  E(ROHF) =  -299.300007858     A.U. after   22 cycles
 E2 =    -0.9257101905D+00 EUMP2 =    -0.30022571804834D+03
 CCSD(T)
 CCSD(T)= -0.30023653244D+03

 The electronic state is 5-A'.
 Alpha  occ. eigenvalues --  -20.73879 -20.73484 -20.73379 -20.73240  -1.74626
 Alpha  occ. eigenvalues --   -1.74024  -1.19189  -1.15209  -0.84445  -0.84071
 Alpha  occ. eigenvalues --   -0.83598  -0.83113  -0.80181  -0.74897  -0.51811
 Alpha  occ. eigenvalues --   -0.51279  -0.50005  -0.49741
 Alpha virt. eigenvalues --    0.42222   0.47015   0.63925   0.64011   0.70275
 Alpha virt. eigenvalues --    0.70359   0.72162   0.75164   0.76243   0.78462
 Alpha virt. eigenvalues --    0.79618   0.85966   0.89645   0.90849   0.91783

 Mulliken charges and spin densities:
               1          2
     1  O   -0.013578   0.986283
     2  O    0.012072   1.012960
     3  O    0.016266   0.991381
     4  O   -0.014760   1.009376
 Sum of Mulliken charges =  -0.00000   4.00000

 Dipole moment (field-independent basis, Debye):
    X=             -0.0528    Y=              0.0923    Z=             -0.0000  Tot=              0.1063
 Quadrupole moment (field-independent basis, Debye-Ang):
   XX=            -19.9836   YY=            -20.9563   ZZ=            -19.6270
   XY=              0.3874   XZ=             -0.0000   YZ=              0.0000

 79\PMP2-0=-300.225718\MP4SDQ=-300.2072858\CCSD=-300.2007882\CCSD(T)=-3
 Normal termination of Gaussian 16 at Tue Feb 13 14:47:57 2024.
