 Gaussian 16, Revision A.03,
 Gaussian 16:  ES64L-G16RevA.03 25-Dec-2016

 --------------------
 #p ROCCSD(T)/cc-pVTZ
 --------------------

 ---------
 O2_O2_237
 ---------
 Symbolic Z-matrix:
 Charge =  0 Multiplicity = 5

                         Standard orientation:
 ---------------------------------------------------------------------
 Center     Atomic      Atomic             Coordinates (Angstroms)
 Number     Number       Type             X           Y           Z
 ---------------------------------------------------------------------
      1          8           0        0.000000    0.000000    3.240000
      2          8           0        0.000000    0.000000    2.080000
      3          8           0        0.000000    0.000000   -2.080000
      4          8           0        0.000000    0.000000   -3.240000
 ---------------------------------------------------------------------

 SCF Done:  E(ROHF) =  -299.316605051     A.U. after   11 cycles
 E2 =    -0.9223862191D+00 EUMP2 =    -0.30023899127055D+03
 CCSD(T)
 CCSD(T)= -0.30024974607D+03

 The electronic state is 5-SGG.
 Alpha  occ. eigenvalues --  -20.74012 -20.74012 -20.73934 -20.73934  -1.74511
 Alpha  occ. eigenvalues --   -1.74510  -1.17063  -1.17042  -0.83793  -0.83793
 Alpha  occ. eigenvalues --   -0.83788  -0.83788  -0.78175  -0.78089  -0.50996
 Alpha  occ. eigenvalues --   -0.50996  -0.50973  -0.50973
 Alpha virt. eigenvalues --    0.38213   0.44145   0.67904   0.67904   0.68120
 Alpha virt. eigenvalues --    0.68120   0.69128   0.73914   0.76821   0.79427
 Alpha virt. eigenvalues --    0.79427   0.80182   0.80182   0.81322   0.87068

 Mulliken charges and spin densities:
               1          2
     1  O   -0.000408   0.999334
     2  O    0.000408   1.000666
     3  O    0.000408   1.000666
     4  O   -0.000408   0.999334
 Sum of Mulliken charges =  -0.00000   4.00000

 Dipole moment (field-independent basis, Debye):
    X=             -0.0000    Y=              0.0000    Z=              0.0000  Tot=              0.0000
 Quadrupole moment (field-independent basis, Debye-Ang):
   XX=            -19.6384   YY=            -19.6384   ZZ=            -20.8820
   XY=              0.0000   XZ=              0.0000   YZ=              0.0000

 89913\MP4SDQ=-300.2209528\CCSD=-300.2144726\CCSD(T)=-300.2497461\RMSD=
 Normal termination of Gaussian 16 at Tue Feb 13 18:47:29 2024.
