 Gaussian 16, Revision A.03,
 Gaussian 16:  ES64L-G16RevA.03 25-Dec-2016

 --------------------
 #p ROCCSD(T)/cc-pVTZ
 --------------------

 ---------
 O2_O2_153
 ---------
 Symbolic Z-matrix:
 Charge =  0 Multiplicity = 5

                         Standard orientation:
 ---------------------------------------------------------------------
 Center     Atomic      Atomic             Coordinates (Angstroms)
 Number     Number       Type             X           Y           Z
 ---------------------------------------------------------------------
      1          8           0        0.000000    0.000000    2.680000
      2          8           0        0.000000    0.000000    1.520000
      3          8           0        0.000000    0.000000   -1.520000
      4          8           0        0.000000    0.000000   -2.680000
 ---------------------------------------------------------------------

 SCF Done:  E(ROHF) =  -299.316274259     A.U. after   12 cycles
 E2 =    -0.9230627492D+00 EUMP2 =    -0.30023933700819D+03
 CCSD(T)
 CCSD(T)= -0.30025000827D+03

 The electronic state is 5-SGG.
 Alpha  occ. eigenvalues --  -20.73958 -20.73958 -20.73879 -20.73879  -1.74480
 Alpha  occ. eigenvalues --   -1.74452  -1.17235  -1.16790  -0.83790  -0.83790
 Alpha  occ. eigenvalues --   -0.83698  -0.83698  -0.78615  -0.77553  -0.51096
 Alpha  occ. eigenvalues --   -0.51096  -0.50777  -0.50777
 Alpha virt. eigenvalues --    0.36692   0.47633   0.65218   0.66433   0.66433
 Alpha virt. eigenvalues --    0.69002   0.69002   0.75518   0.76627   0.76627
 Alpha virt. eigenvalues --    0.78397   0.84300   0.84300   0.86238   0.87026

 Mulliken charges and spin densities:
               1          2
     1  O   -0.001574   0.998742
     2  O    0.001574   1.001258
     3  O    0.001574   1.001258
     4  O   -0.001574   0.998742
 Sum of Mulliken charges =  -0.00000   4.00000

 Dipole moment (field-independent basis, Debye):
    X=             -0.0000    Y=             -0.0000    Z=              0.0000  Tot=              0.0000
 Quadrupole moment (field-independent basis, Debye-Ang):
   XX=            -19.6387   YY=            -19.6387   ZZ=            -20.9357
   XY=              0.0000   XZ=              0.0000   YZ=              0.0000

 7\MP4SDQ=-300.221184\CCSD=-300.2146566\CCSD(T)=-300.2500083\RMSD=1.014
 Normal termination of Gaussian 16 at Tue Feb 13 16:33:21 2024.
