 Gaussian 16, Revision A.03,
 Gaussian 16:  ES64L-G16RevA.03 25-Dec-2016

 --------------------
 #p ROCCSD(T)/cc-pVTZ
 --------------------

 ---------
 O2_O2_108
 ---------
 Symbolic Z-matrix:
 Charge =  0 Multiplicity = 5

                         Standard orientation:
 ---------------------------------------------------------------------
 Center     Atomic      Atomic             Coordinates (Angstroms)
 Number     Number       Type             X           Y           Z
 ---------------------------------------------------------------------
      1          8           0        0.000000    0.000000    2.380000
      2          8           0        0.000000    0.000000    1.220000
      3          8           0        0.000000    0.000000   -1.220000
      4          8           0        0.000000    0.000000   -2.380000
 ---------------------------------------------------------------------

 SCF Done:  E(ROHF) =  -299.311752765     A.U. after   12 cycles
 E2 =    -0.9245265186D+00 EUMP2 =    -0.30023627928372D+03
 CCSD(T)
 CCSD(T)= -0.30024670166D+03

 The electronic state is 5-SGG.
 Alpha  occ. eigenvalues --  -20.73791 -20.73791 -20.73667 -20.73666  -1.74453
 Alpha  occ. eigenvalues --   -1.74273  -1.18052  -1.15976  -0.83850  -0.83850
 Alpha  occ. eigenvalues --   -0.83429  -0.83429  -0.79915  -0.76040  -0.51417
 Alpha  occ. eigenvalues --   -0.51417  -0.50244  -0.50244
 Alpha virt. eigenvalues --    0.41207   0.48241   0.64482   0.64482   0.69255
 Alpha virt. eigenvalues --    0.69762   0.69762   0.75307   0.75307   0.75856
 Alpha virt. eigenvalues --    0.82817   0.85534   0.86937   0.89945   0.89945

 Mulliken charges and spin densities:
               1          2
     1  O   -0.014192   1.000007
     2  O    0.014192   0.999993
     3  O    0.014192   0.999993
     4  O   -0.014192   1.000007
 Sum of Mulliken charges =  -0.00000   4.00000

 Dipole moment (field-independent basis, Debye):
    X=             -0.0000    Y=             -0.0000    Z=             -0.0000  Tot=              0.0000
 Quadrupole moment (field-independent basis, Debye-Ang):
   XX=            -19.6373   YY=            -19.6373   ZZ=            -21.0583
   XY=              0.0000   XZ=              0.0000   YZ=              0.0000

 2793\MP4SDQ=-300.2178123\CCSD=-300.2111784\CCSD(T)=-300.2467017\RMSD=1
 Normal termination of Gaussian 16 at Tue Feb 13 15:23:08 2024.
