 Gaussian 16, Revision A.03,
 Gaussian 16:  ES64L-G16RevA.03 25-Dec-2016

 --------------------
 #p ROCCSD(T)/cc-pVTZ
 --------------------

 -------
 O2_O2_8
 -------
 Symbolic Z-matrix:
 Charge =  0 Multiplicity = 5

                         Standard orientation:
 ---------------------------------------------------------------------
 Center     Atomic      Atomic             Coordinates (Angstroms)
 Number     Number       Type             X           Y           Z
 ---------------------------------------------------------------------
      1          8           0       -0.870000   -0.830000    0.000000
      2          8           0        0.290000   -0.830000    0.000000
      3          8           0        0.290000    0.250000    0.000000
      4          8           0        0.290000    1.410000    0.000000
 ---------------------------------------------------------------------

 SCF Done:  E(ROHF) =  -298.634734055     A.U. after   22 cycles
 E2 =    -0.9114957538D+00 EUMP2 =    -0.29954622980870D+03
 CCSD(T)
 CCSD(T)= -0.29957269509D+03

 The electronic state is 5-A'.
 Alpha  occ. eigenvalues --  -20.77563 -20.75510 -20.68234 -20.67749  -2.04675
 Alpha  occ. eigenvalues --   -1.72423  -1.45404  -1.11263  -1.02750  -0.97265
 Alpha  occ. eigenvalues --   -0.91025  -0.77820  -0.75285  -0.59728  -0.59271
 Alpha  occ. eigenvalues --   -0.47274  -0.43485  -0.24479
 Alpha virt. eigenvalues --    0.39458   0.46653   0.59465   0.62241   0.65659
 Alpha virt. eigenvalues --    0.68653   0.70650   0.73710   0.76410   0.79817
 Alpha virt. eigenvalues --    0.86258   0.87096   0.91354   0.99909   1.09521

 Mulliken charges and spin densities:
               1          2
     1  O   -0.143781   0.878681
     2  O    0.139322   0.388975
     3  O    0.029888   1.238231
     4  O   -0.025429   1.494112
 Sum of Mulliken charges =  -0.00000   4.00000

 Dipole moment (field-independent basis, Debye):
    X=              0.6219    Y=             -0.6535    Z=              0.0000  Tot=              0.9022
 Quadrupole moment (field-independent basis, Debye-Ang):
   XX=            -20.4286   YY=            -23.3328   ZZ=            -18.7628
   XY=             -0.8381   XZ=              0.0000   YZ=              0.0000

 98\MP4SDQ=-299.5375982\CCSD=-299.5359789\CCSD(T)=-299.5726951\RMSD=2.4
 Normal termination of Gaussian 16 at Tue Feb 13 12:11:40 2024.
