 Gaussian 16, Revision A.03,
 Gaussian 16:  ES64L-G16RevA.03 25-Dec-2016

 --------------------
 #p ROCCSD(T)/cc-pVTZ
 --------------------

 ---------
 O2_O2_267
 ---------
 Symbolic Z-matrix:
 Charge =  0 Multiplicity = 5

                         Standard orientation:
 ---------------------------------------------------------------------
 Center     Atomic      Atomic             Coordinates (Angstroms)
 Number     Number       Type             X           Y           Z
 ---------------------------------------------------------------------
      1          8           0        0.000000    0.000000    3.440000
      2          8           0        0.000000    0.000000    2.280000
      3          8           0        0.000000    0.000000   -2.280000
      4          8           0        0.000000    0.000000   -3.440000
 ---------------------------------------------------------------------

 SCF Done:  E(ROHF) =  -299.316592335     A.U. after   11 cycles
 E2 =    -0.9223249675D+00 EUMP2 =    -0.30023891730232D+03
 CCSD(T)
 CCSD(T)= -0.30024968450D+03

 The electronic state is 5-SGG.
 Alpha  occ. eigenvalues --  -20.74018 -20.74018 -20.73940 -20.73940  -1.74517
 Alpha  occ. eigenvalues --   -1.74517  -1.17063  -1.17057  -0.83798  -0.83798
 Alpha  occ. eigenvalues --   -0.83796  -0.83796  -0.78156  -0.78124  -0.50995
 Alpha  occ. eigenvalues --   -0.50995  -0.50988  -0.50988
 Alpha virt. eigenvalues --    0.39939   0.42796   0.67975   0.67975   0.68042
 Alpha virt. eigenvalues --    0.68042   0.70912   0.72966   0.77230   0.79202
 Alpha virt. eigenvalues --    0.79672   0.79672   0.79914   0.79914   0.87067

 Mulliken charges and spin densities:
               1          2
     1  O   -0.000449   0.999475
     2  O    0.000449   1.000525
     3  O    0.000449   1.000525
     4  O   -0.000449   0.999475
 Sum of Mulliken charges =  -0.00000   4.00000

 Dipole moment (field-independent basis, Debye):
    X=             -0.0000    Y=             -0.0000    Z=             -0.0000  Tot=              0.0000
 Quadrupole moment (field-independent basis, Debye-Ang):
   XX=            -19.6383   YY=            -19.6383   ZZ=            -20.8762
   XY=              0.0000   XZ=              0.0000   YZ=              0.0000

 89173\MP4SDQ=-300.2208928\CCSD=-300.2144174\CCSD(T)=-300.2496845\RMSD=
 Normal termination of Gaussian 16 at Tue Feb 13 19:46:58 2024.
