 Gaussian 16, Revision A.03,
 Gaussian 16:  ES64L-G16RevA.03 25-Dec-2016

 --------------------
 #p ROCCSD(T)/cc-pVTZ
 --------------------

 --------
 O2_O2_22
 --------
 Symbolic Z-matrix:
 Charge =  0 Multiplicity = 5

                         Standard orientation:
 ---------------------------------------------------------------------
 Center     Atomic      Atomic             Coordinates (Angstroms)
 Number     Number       Type             X           Y           Z
 ---------------------------------------------------------------------
      1          8           0        0.615183   -1.545183    0.000000
      2          8           0       -0.205061   -0.724939    0.000000
      3          8           0       -0.205061    0.555061   -0.000000
      4          8           0       -0.205061    1.715061   -0.000000
 ---------------------------------------------------------------------

 SCF Done:  E(ROHF) =  -298.933083739     A.U. after   21 cycles
 E2 =    -0.9218662703D+00 EUMP2 =    -0.29985495000969D+03
 CCSD(T)
 CCSD(T)= -0.29987768483D+03

 The electronic state is 5-A'.
 Alpha  occ. eigenvalues --  -20.78856 -20.76099 -20.68679 -20.65923  -1.84684
 Alpha  occ. eigenvalues --   -1.72365  -1.43213  -1.07539  -0.92799  -0.92482
 Alpha  occ. eigenvalues --   -0.89807  -0.80066  -0.76857  -0.59434  -0.58199
 Alpha  occ. eigenvalues --   -0.52981  -0.43732  -0.35647
 Alpha virt. eigenvalues --    0.44734   0.50853   0.63476   0.63800   0.64492
 Alpha virt. eigenvalues --    0.68958   0.71438   0.74324   0.78919   0.80592
 Alpha virt. eigenvalues --    0.81679   0.85958   0.92653   0.97017   1.03779

 Mulliken charges and spin densities:
               1          2
     1  O   -0.137303   0.891531
     2  O   -0.007341   0.792993
     3  O    0.135892   1.113172
     4  O    0.008753   1.202304
 Sum of Mulliken charges =  -0.00000   4.00000

 Dipole moment (field-independent basis, Debye):
    X=             -0.3046    Y=              1.5833    Z=             -0.0000  Tot=              1.6124
 Quadrupole moment (field-independent basis, Debye-Ang):
   XX=            -20.5217   YY=            -22.8177   ZZ=            -19.1194
   XY=              0.6772   XZ=             -0.0000   YZ=              0.0000

 7\PMP2-0=-299.85495\MP4SDQ=-299.8433586\CCSD=-299.8397965\CCSD(T)=-299
 Normal termination of Gaussian 16 at Tue Feb 13 12:39:43 2024.
