 Gaussian 16, Revision A.03,
 Gaussian 16:  ES64L-G16RevA.03 25-Dec-2016

 --------------------
 #p ROCCSD(T)/cc-pVTZ
 --------------------

 ---------
 O2_O2_181
 ---------
 Symbolic Z-matrix:
 Charge =  0 Multiplicity = 5

                         Standard orientation:
 ---------------------------------------------------------------------
 Center     Atomic      Atomic             Coordinates (Angstroms)
 Number     Number       Type             X           Y           Z
 ---------------------------------------------------------------------
      1          8           0        0.615183   -2.605183   -0.000000
      2          8           0       -0.205061   -1.784939    0.000000
      3          8           0       -0.205061    1.615061    0.000000
      4          8           0       -0.205061    2.775061    0.000000
 ---------------------------------------------------------------------

 SCF Done:  E(ROHF) =  -299.316576245     A.U. after   17 cycles
 E2 =    -0.9227131631D+00 EUMP2 =    -0.30023928940800D+03
 CCSD(T)
 CCSD(T)= -0.30025000547D+03

 The electronic state is 5-A'.
 Alpha  occ. eigenvalues --  -20.74014 -20.73996 -20.73936 -20.73914  -1.74516
 Alpha  occ. eigenvalues --   -1.74489  -1.17127  -1.16962  -0.83805  -0.83802
 Alpha  occ. eigenvalues --   -0.83763  -0.83760  -0.78319  -0.77924  -0.51045
 Alpha  occ. eigenvalues --   -0.51013  -0.50931  -0.50908
 Alpha virt. eigenvalues --    0.37070   0.44884   0.64267   0.67225   0.67578
 Alpha virt. eigenvalues --    0.68613   0.69623   0.74563   0.76839   0.77758
 Alpha virt. eigenvalues --    0.77978   0.81174   0.81963   0.86072   0.87039

 Mulliken charges and spin densities:
               1          2
     1  O   -0.000383   0.998858
     2  O    0.000647   1.000965
     3  O   -0.000689   1.000809
     4  O    0.000425   0.999367
 Sum of Mulliken charges =  -0.00000   4.00000

 Dipole moment (field-independent basis, Debye):
    X=             -0.0054    Y=             -0.0026    Z=              0.0000  Tot=              0.0060
 Quadrupole moment (field-independent basis, Debye-Ang):
   XX=            -19.9398   YY=            -20.5819   ZZ=            -19.6385
   XY=              0.3086   XZ=              0.0000   YZ=             -0.0000

 Normal termination of Gaussian 16 at Tue Feb 13 17:16:39 2024.
