 Gaussian 16, Revision A.03,
 Gaussian 16:  ES64L-G16RevA.03 25-Dec-2016

 --------------------
 #p ROCCSD(T)/cc-pVTZ
 --------------------

 ---------
 O2_O2_214
 ---------
 Symbolic Z-matrix:
 Charge =  0 Multiplicity = 5

                         Standard orientation:
 ---------------------------------------------------------------------
 Center     Atomic      Atomic             Coordinates (Angstroms)
 Number     Number       Type             X           Y           Z
 ---------------------------------------------------------------------
      1          8           0        0.615183   -2.825183    0.000000
      2          8           0       -0.205061   -2.004939    0.000000
      3          8           0       -0.205061    1.835061   -0.000000
      4          8           0       -0.205061    2.995061   -0.000000
 ---------------------------------------------------------------------

 SCF Done:  E(ROHF) =  -299.316629843     A.U. after   17 cycles
 E2 =    -0.9224752562D+00 EUMP2 =    -0.30023910509902D+03
 CCSD(T)
 CCSD(T)= -0.30024984899D+03

 The electronic state is 5-A'.
 Alpha  occ. eigenvalues --  -20.74026 -20.74010 -20.73949 -20.73931  -1.74526
 Alpha  occ. eigenvalues --   -1.74506  -1.17085  -1.17030  -0.83807  -0.83806
 Alpha  occ. eigenvalues --   -0.83784  -0.83781  -0.78211  -0.78064  -0.51016
 Alpha  occ. eigenvalues --   -0.51006  -0.50969  -0.50964
 Alpha virt. eigenvalues --    0.38094   0.43983   0.66244   0.67737   0.67941
 Alpha virt. eigenvalues --    0.68252   0.69602   0.74009   0.76601   0.78378
 Alpha virt. eigenvalues --    0.79016   0.80150   0.80620   0.85015   0.87044

 Mulliken charges and spin densities:
               1          2
     1  O   -0.000339   0.999320
     2  O    0.000489   1.000583
     3  O   -0.000107   1.000575
     4  O   -0.000042   0.999522
 Sum of Mulliken charges =   0.00000   4.00000

 Dipole moment (field-independent basis, Debye):
    X=             -0.0034    Y=             -0.0020    Z=              0.0000  Tot=              0.0039
 Quadrupole moment (field-independent basis, Debye-Ang):
   XX=            -19.9391   YY=            -20.5660   ZZ=            -19.6384
   XY=              0.3052   XZ=              0.0000   YZ=             -0.0000

 98\PMP2-0=-300.2391051\MP4SDQ=-300.2210478\CCSD=-300.2145651\CCSD(T)=-
 Normal termination of Gaussian 16 at Tue Feb 13 18:07:01 2024.
