 Gaussian 16, Revision A.03,
 Gaussian 16:  ES64L-G16RevA.03 25-Dec-2016

 --------------------
 #p ROCCSD(T)/cc-pVTZ
 --------------------

 ---------
 O2_O2_216
 ---------
 Symbolic Z-matrix:
 Charge =  0 Multiplicity = 5

                         Standard orientation:
 ---------------------------------------------------------------------
 Center     Atomic      Atomic             Coordinates (Angstroms)
 Number     Number       Type             X           Y           Z
 ---------------------------------------------------------------------
      1          8           0        0.000000    0.000000    3.100000
      2          8           0        0.000000    0.000000    1.940000
      3          8           0        0.000000    0.000000   -1.940000
      4          8           0        0.000000    0.000000   -3.100000
 ---------------------------------------------------------------------

 SCF Done:  E(ROHF) =  -299.316612541     A.U. after   11 cycles
 E2 =    -0.9224648342D+00 EUMP2 =    -0.30023907737474D+03
 CCSD(T)
 CCSD(T)= -0.30024981872D+03

 The electronic state is 5-SGG.
 Alpha  occ. eigenvalues --  -20.74007 -20.74007 -20.73928 -20.73928  -1.74506
 Alpha  occ. eigenvalues --   -1.74504  -1.17070  -1.17022  -0.83790  -0.83790
 Alpha  occ. eigenvalues --   -0.83779  -0.83779  -0.78206  -0.78043  -0.51002
 Alpha  occ. eigenvalues --   -0.51002  -0.50956  -0.50956
 Alpha virt. eigenvalues --    0.36732   0.45263   0.67417   0.67783   0.67783
 Alpha virt. eigenvalues --    0.68231   0.68231   0.74584   0.76776   0.79060
 Alpha virt. eigenvalues --    0.79060   0.80591   0.80591   0.84188   0.87064

 Mulliken charges and spin densities:
               1          2
     1  O   -0.000149   0.999218
     2  O    0.000149   1.000782
     3  O    0.000149   1.000782
     4  O   -0.000149   0.999218
 Sum of Mulliken charges =   0.00000   4.00000

 Dipole moment (field-independent basis, Debye):
    X=              0.0000    Y=              0.0000    Z=             -0.0000  Tot=              0.0000
 Quadrupole moment (field-independent basis, Debye-Ang):
   XX=            -19.6385   YY=            -19.6385   ZZ=            -20.8877
   XY=              0.0000   XZ=              0.0000   YZ=              0.0000

 0774\MP4SDQ=-300.2210227\CCSD=-300.2145367\CCSD(T)=-300.2498187\RMSD=9
 Normal termination of Gaussian 16 at Tue Feb 13 18:10:02 2024.
