 Gaussian 16, Revision A.03,
 Gaussian 16:  ES64L-G16RevA.03 25-Dec-2016

 --------------------
 #p ROCCSD(T)/cc-pVTZ
 --------------------

 --------
 O2_O2_17
 --------
 Symbolic Z-matrix:
 Charge =  0 Multiplicity = 5

                         Standard orientation:
 ---------------------------------------------------------------------
 Center     Atomic      Atomic             Coordinates (Angstroms)
 Number     Number       Type             X           Y           Z
 ---------------------------------------------------------------------
      1          8           0       -0.870000   -0.890000    0.000000
      2          8           0        0.290000   -0.890000    0.000000
      3          8           0        0.290000    0.310000    0.000000
      4          8           0        0.290000    1.470000    0.000000
 ---------------------------------------------------------------------

 SCF Done:  E(ROHF) =  -298.813566014     A.U. after   21 cycles
 E2 =    -0.9231289290D+00 EUMP2 =    -0.29973669494257D+03
 CCSD(T)
 CCSD(T)= -0.29975845149D+03

 The electronic state is 5-A'.
 Alpha  occ. eigenvalues --  -20.79784 -20.72447 -20.71516 -20.66852  -1.94774
 Alpha  occ. eigenvalues --   -1.73146  -1.40175  -1.11273  -0.97325  -0.96032
 Alpha  occ. eigenvalues --   -0.89969  -0.79398  -0.75855  -0.59192  -0.58065
 Alpha  occ. eigenvalues --   -0.50005  -0.45813  -0.31080
 Alpha virt. eigenvalues --    0.40236   0.46734   0.59432   0.63320   0.67368
 Alpha virt. eigenvalues --    0.69232   0.70868   0.73254   0.78106   0.79524
 Alpha virt. eigenvalues --    0.86011   0.86105   0.86798   0.98347   1.03139

 Mulliken charges and spin densities:
               1          2
     1  O   -0.152456   0.844313
     2  O    0.067427   0.643950
     3  O    0.140863   1.276772
     4  O   -0.055835   1.234965
 Sum of Mulliken charges =  -0.00000   4.00000

 Dipole moment (field-independent basis, Debye):
    X=              0.7436    Y=              0.2231    Z=              0.0000  Tot=              0.7764
 Quadrupole moment (field-independent basis, Debye-Ang):
   XX=            -20.6379   YY=            -22.8529   ZZ=            -18.9566
   XY=             -0.5967   XZ=              0.0000   YZ=              0.0000

 \MP4SDQ=-299.7238064\CCSD=-299.72095\CCSD(T)=-299.7584515\RMSD=2.833e-
 Normal termination of Gaussian 16 at Tue Feb 13 12:29:42 2024.
