 Gaussian 16, Revision A.03,
 Gaussian 16:  ES64L-G16RevA.03 25-Dec-2016

 --------------------
 #p ROCCSD(T)/cc-pVTZ
 --------------------

 --------
 O2_O2_27
 --------
 Symbolic Z-matrix:
 Charge =  0 Multiplicity = 5

                         Standard orientation:
 ---------------------------------------------------------------------
 Center     Atomic      Atomic             Coordinates (Angstroms)
 Number     Number       Type             X           Y           Z
 ---------------------------------------------------------------------
      1          8           0        0.000000    0.000000    1.840000
      2          8           0        0.000000    0.000000    0.680000
      3          8           0        0.000000    0.000000   -0.680000
      4          8           0        0.000000    0.000000   -1.840000
 ---------------------------------------------------------------------

 SCF Done:  E(ROHF) =  -298.953779860     A.U. after   13 cycles
 E2 =    -0.9549344393D+00 EUMP2 =    -0.29990871429905D+03
 CCSD(T)
 CCSD(T)= -0.29991493170D+03

 The electronic state is 5-SGG.
 Alpha  occ. eigenvalues --  -20.72472 -20.72472 -20.67930 -20.67929  -1.76837
 Alpha  occ. eigenvalues --   -1.71349  -1.36425  -1.07505  -0.88666  -0.86734
 Alpha  occ. eigenvalues --   -0.86734  -0.80108  -0.80108  -0.56305  -0.56305
 Alpha  occ. eigenvalues --   -0.51094  -0.43062  -0.43062
 Alpha virt. eigenvalues --    0.44816   0.49414   0.65430   0.66226   0.66226
 Alpha virt. eigenvalues --    0.70959   0.70959   0.72865   0.81191   0.81191
 Alpha virt. eigenvalues --    0.84117   0.95007   0.99628   0.99628   1.07610

 Mulliken charges and spin densities:
               1          2
     1  O    0.012334   1.165241
     2  O   -0.012334   0.834759
     3  O   -0.012334   0.834759
     4  O    0.012334   1.165241
 Sum of Mulliken charges =  -0.00000   4.00000

 Dipole moment (field-independent basis, Debye):
    X=              0.0000    Y=             -0.0000    Z=             -0.0000  Tot=              0.0000
 Quadrupole moment (field-independent basis, Debye-Ang):
   XX=            -19.3680   YY=            -19.3680   ZZ=            -21.6794
   XY=              0.0000   XZ=              0.0000   YZ=              0.0000

 7143\MP4SDQ=-299.8840627\CCSD=-299.8752842\CCSD(T)=-299.9149317\RMSD=2
 Normal termination of Gaussian 16 at Tue Feb 13 12:49:35 2024.
