 Gaussian 16, Revision A.03,
 Gaussian 16:  ES64L-G16RevA.03 25-Dec-2016

 --------------------
 #p ROCCSD(T)/cc-pVTZ
 --------------------

 ---------
 O2_O2_232
 ---------
 Symbolic Z-matrix:
 Charge =  0 Multiplicity = 5

                         Standard orientation:
 ---------------------------------------------------------------------
 Center     Atomic      Atomic             Coordinates (Angstroms)
 Number     Number       Type             X           Y           Z
 ---------------------------------------------------------------------
      1          8           0        0.615183   -2.945183    0.000000
      2          8           0       -0.205061   -2.124939    0.000000
      3          8           0       -0.205061    1.955061   -0.000000
      4          8           0       -0.205061    3.115061   -0.000000
 ---------------------------------------------------------------------

 SCF Done:  E(ROHF) =  -299.316619809     A.U. after   13 cycles
 E2 =    -0.9224005885D+00 EUMP2 =    -0.30023902039703D+03
 CCSD(T)
 CCSD(T)= -0.30024977564D+03

 The electronic state is 5-A'.
 Alpha  occ. eigenvalues --  -20.74030 -20.74012 -20.73954 -20.73934  -1.74530
 Alpha  occ. eigenvalues --   -1.74509  -1.17079  -1.17046  -0.83810  -0.83810
 Alpha  occ. eigenvalues --   -0.83789  -0.83787  -0.78185  -0.78100  -0.51011
 Alpha  occ. eigenvalues --   -0.51006  -0.50978  -0.50978
 Alpha virt. eigenvalues --    0.39008   0.43383   0.67253   0.67862   0.67989
 Alpha virt. eigenvalues --    0.68141   0.70012   0.73565   0.76727   0.78556
 Alpha virt. eigenvalues --    0.79350   0.79912   0.80244   0.82792   0.87049

 Mulliken charges and spin densities:
               1          2
     1  O   -0.000410   0.999417
     2  O    0.000490   1.000531
     3  O    0.000115   1.000448
     4  O   -0.000196   0.999604
 Sum of Mulliken charges =  -0.00000   4.00000

 Dipole moment (field-independent basis, Debye):
    X=             -0.0028    Y=             -0.0009    Z=             -0.0000  Tot=              0.0030
 Quadrupole moment (field-independent basis, Debye-Ang):
   XX=            -19.9390   YY=            -20.5638   ZZ=            -19.6384
   XY=              0.3045   XZ=             -0.0000   YZ=              0.0000

 98\PMP2-0=-300.2390204\MP4SDQ=-300.2209787\CCSD=-300.2145004\CCSD(T)=-
 Normal termination of Gaussian 16 at Tue Feb 13 18:38:42 2024.
