 Gaussian 16, Revision A.03,
 Gaussian 16:  ES64L-G16RevA.03 25-Dec-2016

 --------------------
 #p ROCCSD(T)/cc-pVTZ
 --------------------

 ---------
 O2_O2_295
 ---------
 Symbolic Z-matrix:
 Charge =  0 Multiplicity = 5

                         Standard orientation:
 ---------------------------------------------------------------------
 Center     Atomic      Atomic             Coordinates (Angstroms)
 Number     Number       Type             X           Y           Z
 ---------------------------------------------------------------------
      1          8           0        0.615183   -3.365183   -0.000000
      2          8           0       -0.205061   -2.544939    0.000000
      3          8           0       -0.205061    2.375061    0.000000
      4          8           0       -0.205061    3.535061    0.000000
 ---------------------------------------------------------------------

 SCF Done:  E(ROHF) =  -299.316590411     A.U. after   16 cycles
 E2 =    -0.9222941613D+00 EUMP2 =    -0.30023888457276D+03
 CCSD(T)
 CCSD(T)= -0.30024965978D+03

 The electronic state is 5-A'.
 Alpha  occ. eigenvalues --  -20.74038 -20.74021 -20.73962 -20.73945  -1.74538
 Alpha  occ. eigenvalues --   -1.74520  -1.17082  -1.17064  -0.83818  -0.83818
 Alpha  occ. eigenvalues --   -0.83800  -0.83800  -0.78164  -0.78144  -0.51013
 Alpha  occ. eigenvalues --   -0.51013  -0.50995  -0.50995
 Alpha virt. eigenvalues --    0.41008   0.41820   0.67983   0.67983   0.68002
 Alpha virt. eigenvalues --    0.68011   0.71765   0.72312   0.77713   0.78255
 Alpha virt. eigenvalues --    0.79741   0.79767   0.79817   0.79875   0.87047

 Mulliken charges and spin densities:
               1          2
     1  O   -0.000357   0.999609
     2  O    0.000360   1.000389
     3  O    0.000183   1.000210
     4  O   -0.000185   0.999792
 Sum of Mulliken charges =  -0.00000   4.00000

 Dipole moment (field-independent basis, Debye):
    X=             -0.0018    Y=              0.0006    Z=             -0.0000  Tot=              0.0019
 Quadrupole moment (field-independent basis, Debye-Ang):
   XX=            -19.9387   YY=            -20.5584   ZZ=            -19.6382
   XY=              0.3033   XZ=             -0.0000   YZ=              0.0000

 Normal termination of Gaussian 16 at Tue Feb 13 20:42:13 2024.
