 Gaussian 16, Revision A.03,
 Gaussian 16:  ES64L-G16RevA.03 25-Dec-2016

 --------------------
 #p ROCCSD(T)/cc-pVTZ
 --------------------

 --------
 O2_O2_63
 --------
 Symbolic Z-matrix:
 Charge =  0 Multiplicity = 5

                         Standard orientation:
 ---------------------------------------------------------------------
 Center     Atomic      Atomic             Coordinates (Angstroms)
 Number     Number       Type             X           Y           Z
 ---------------------------------------------------------------------
      1          8           0        0.000000    0.000000    2.080000
      2          8           0        0.000000    0.000000    0.920000
      3          8           0        0.000000    0.000000   -0.920000
      4          8           0        0.000000    0.000000   -2.080000
 ---------------------------------------------------------------------

 SCF Done:  E(ROHF) =  -299.258308958     A.U. after   11 cycles
 E2 =    -0.9314801581D+00 EUMP2 =    -0.30018978911621D+03
 CCSD(T)
 CCSD(T)= -0.30019873018D+03

 The electronic state is 5-SGG.
 Alpha  occ. eigenvalues --  -20.73338 -20.73338 -20.72098 -20.72095  -1.74587
 Alpha  occ. eigenvalues --   -1.73437  -1.22373  -1.12976  -0.84280  -0.84280
 Alpha  occ. eigenvalues --   -0.83696  -0.82353  -0.82353  -0.70070  -0.52643
 Alpha  occ. eigenvalues --   -0.52643  -0.48283  -0.48283
 Alpha virt. eigenvalues --    0.44633   0.48648   0.64908   0.64908   0.70498
 Alpha virt. eigenvalues --    0.70498   0.71757   0.76744   0.76744   0.76957
 Alpha virt. eigenvalues --    0.85035   0.85538   0.95808   0.95821   0.95821

 Mulliken charges and spin densities:
               1          2
     1  O   -0.028245   1.023314
     2  O    0.028245   0.976686
     3  O    0.028245   0.976686
     4  O   -0.028245   1.023314
 Sum of Mulliken charges =   0.00000   4.00000

 Dipole moment (field-independent basis, Debye):
    X=             -0.0000    Y=             -0.0000    Z=             -0.0000  Tot=              0.0000
 Quadrupole moment (field-independent basis, Debye-Ang):
   XX=            -19.5912   YY=            -19.5912   ZZ=            -21.4152
   XY=              0.0000   XZ=              0.0000   YZ=              0.0000

 \MP4SDQ=-300.1696098\CCSD=-300.1624512\CCSD(T)=-300.1987302\RMSD=6.051
 Normal termination of Gaussian 16 at Tue Feb 13 14:01:09 2024.
