 Gaussian 16, Revision A.03,
 Gaussian 16:  ES64L-G16RevA.03 25-Dec-2016

 --------------------
 #p ROCCSD(T)/cc-pVTZ
 --------------------

 ---------
 O2_O2_140
 ---------
 Symbolic Z-matrix:
 Charge =  0 Multiplicity = 5

                         Standard orientation:
 ---------------------------------------------------------------------
 Center     Atomic      Atomic             Coordinates (Angstroms)
 Number     Number       Type             X           Y           Z
 ---------------------------------------------------------------------
      1          8           0       -0.870000   -1.710000    0.000000
      2          8           0        0.290000   -1.710000    0.000000
      3          8           0        0.290000    1.130000    0.000000
      4          8           0        0.290000    2.290000    0.000000
 ---------------------------------------------------------------------

 SCF Done:  E(ROHF) =  -299.315613822     A.U. after   16 cycles
 E2 =    -0.9235742142D+00 EUMP2 =    -0.30023918803627D+03
 CCSD(T)
 CCSD(T)= -0.30024986640D+03

 The electronic state is 5-A'.
 Alpha  occ. eigenvalues --  -20.74131 -20.74014 -20.73906 -20.73802  -1.74645
 Alpha  occ. eigenvalues --   -1.74389  -1.17303  -1.16880  -0.84023  -0.83961
 Alpha  occ. eigenvalues --   -0.83762  -0.83632  -0.78436  -0.77721  -0.51393
 Alpha  occ. eigenvalues --   -0.51150  -0.50840  -0.50602
 Alpha virt. eigenvalues --    0.40124   0.42393   0.62753   0.64961   0.66325
 Alpha virt. eigenvalues --    0.69821   0.71876   0.73870   0.76576   0.77962
 Alpha virt. eigenvalues --    0.78872   0.79017   0.82464   0.86756   0.90095

 Mulliken charges and spin densities:
               1          2
     1  O   -0.001274   0.997136
     2  O    0.001614   1.002881
     3  O   -0.002279   0.997342
     4  O    0.001939   1.002640
 Sum of Mulliken charges =   0.00000   4.00000

 Dipole moment (field-independent basis, Debye):
    X=              0.0171    Y=              0.0262    Z=              0.0000  Tot=              0.0313
 Quadrupole moment (field-independent basis, Debye-Ang):
   XX=            -20.2461   YY=            -20.2697   ZZ=            -19.6381
   XY=             -0.0170   XZ=              0.0000   YZ=              0.0000

 MP4SDQ=-300.2209215\CCSD=-300.2144316\CCSD(T)=-300.2498664\RMSD=3.647e
 Normal termination of Gaussian 16 at Tue Feb 13 16:13:22 2024.
