 Gaussian 16, Revision A.03,
 Gaussian 16:  ES64L-G16RevA.03 25-Dec-2016

 --------------------
 #p ROCCSD(T)/cc-pVTZ
 --------------------

 --------
 O2_O2_79
 --------
 Symbolic Z-matrix:
 Charge =  0 Multiplicity = 5

                         Standard orientation:
 ---------------------------------------------------------------------
 Center     Atomic      Atomic             Coordinates (Angstroms)
 Number     Number       Type             X           Y           Z
 ---------------------------------------------------------------------
      1          8           0        0.615183   -1.925183    0.000000
      2          8           0       -0.205061   -1.104939   -0.000000
      3          8           0       -0.205061    0.935061   -0.000000
      4          8           0       -0.205061    2.095061   -0.000000
 ---------------------------------------------------------------------

 SCF Done:  E(ROHF) =  -299.289842689     A.U. after   22 cycles
 E2 =    -0.9261073594D+00 EUMP2 =    -0.30021595004848D+03
 CCSD(T)
 CCSD(T)= -0.30022738137D+03

 The electronic state is 5-A'.
 Alpha  occ. eigenvalues --  -20.73892 -20.73298 -20.73129 -20.72951  -1.74733
 Alpha  occ. eigenvalues --   -1.73866  -1.20065  -1.14646  -0.84875  -0.84216
 Alpha  occ. eigenvalues --   -0.83667  -0.82908  -0.80412  -0.73898  -0.52087
 Alpha  occ. eigenvalues --   -0.51370  -0.49644  -0.49379
 Alpha virt. eigenvalues --    0.42744   0.47285   0.63923   0.64111   0.70423
 Alpha virt. eigenvalues --    0.70755   0.72413   0.75190   0.76620   0.78540
 Alpha virt. eigenvalues --    0.79164   0.85809   0.91605   0.92031   0.93499

 Mulliken charges and spin densities:
               1          2
     1  O   -0.019094   0.981055
     2  O    0.016042   1.016763
     3  O    0.018253   0.986739
     4  O   -0.015202   1.015443
 Sum of Mulliken charges =  -0.00000   4.00000

 Dipole moment (field-independent basis, Debye):
    X=             -0.0706    Y=              0.1361    Z=             -0.0000  Tot=              0.1533
 Quadrupole moment (field-independent basis, Debye-Ang):
   XX=            -20.0001   YY=            -21.0604   ZZ=            -19.6156
   XY=              0.4156   XZ=             -0.0000   YZ=              0.0000

 7\PMP2-0=-300.21595\MP4SDQ=-300.1978443\CCSD=-300.1915045\CCSD(T)=-300
 Normal termination of Gaussian 16 at Tue Feb 13 14:31:50 2024.
