 Gaussian 16, Revision A.03,
 Gaussian 16:  ES64L-G16RevA.03 25-Dec-2016

 --------------------
 #p ROCCSD(T)/cc-pVTZ
 --------------------

 ---------
 O2_O2_302
 ---------
 Symbolic Z-matrix:
 Charge =  0 Multiplicity = 5

                         Standard orientation:
 ---------------------------------------------------------------------
 Center     Atomic      Atomic             Coordinates (Angstroms)
 Number     Number       Type             X           Y           Z
 ---------------------------------------------------------------------
      1          8           0       -0.870000   -2.790000    0.000000
      2          8           0        0.290000   -2.790000    0.000000
      3          8           0        0.290000    2.210000    0.000000
      4          8           0        0.290000    3.370000    0.000000
 ---------------------------------------------------------------------

 SCF Done:  E(ROHF) =  -299.316596173     A.U. after   16 cycles
 E2 =    -0.9222903015D+00 EUMP2 =    -0.30023888647436D+03
 CCSD(T)
 CCSD(T)= -0.30024966431D+03

 The electronic state is 5-A'.
 Alpha  occ. eigenvalues --  -20.74072 -20.74017 -20.73995 -20.73941  -1.74570
 Alpha  occ. eigenvalues --   -1.74516  -1.17116  -1.17061  -0.83850  -0.83850
 Alpha  occ. eigenvalues --   -0.83796  -0.83795  -0.78198  -0.78143  -0.51046
 Alpha  occ. eigenvalues --   -0.51046  -0.50992  -0.50991
 Alpha virt. eigenvalues --    0.41345   0.41447   0.67948   0.67955   0.67994
 Alpha virt. eigenvalues --    0.68013   0.72019   0.72063   0.77939   0.78022
 Alpha virt. eigenvalues --    0.79692   0.79735   0.79792   0.79856   0.87016

 Mulliken charges and spin densities:
               1          2
     1  O   -0.000113   0.999878
     2  O    0.000116   1.000121
     3  O   -0.000300   0.999670
     4  O    0.000297   1.000331
 Sum of Mulliken charges =  -0.00000   4.00000

 Dipole moment (field-independent basis, Debye):
    X=              0.0010    Y=              0.0032    Z=              0.0000  Tot=              0.0034
 Quadrupole moment (field-independent basis, Debye-Ang):
   XX=            -20.2386   YY=            -20.2313   ZZ=            -19.6381
   XY=             -0.0010   XZ=              0.0000   YZ=              0.0000

 65\MP4SDQ=-300.2208695\CCSD=-300.2144007\CCSD(T)=-300.2496643\RMSD=2.1
 Normal termination of Gaussian 16 at Tue Feb 13 20:54:57 2024.
