 Gaussian 16, Revision A.03,
 Gaussian 16:  ES64L-G16RevA.03 25-Dec-2016

 --------------------
 #p ROCCSD(T)/cc-pVTZ
 --------------------

 ---------
 O2_O2_300
 ---------
 Symbolic Z-matrix:
 Charge =  0 Multiplicity = 5

                         Standard orientation:
 ---------------------------------------------------------------------
 Center     Atomic      Atomic             Coordinates (Angstroms)
 Number     Number       Type             X           Y           Z
 ---------------------------------------------------------------------
      1          8           0        0.000000    0.000000    3.660000
      2          8           0        0.000000    0.000000    2.500000
      3          8           0        0.000000    0.000000   -2.500000
      4          8           0        0.000000    0.000000   -3.660000
 ---------------------------------------------------------------------

 SCF Done:  E(ROHF) =  -299.316587830     A.U. after   11 cycles
 E2 =    -0.9222929960D+00 EUMP2 =    -0.30023888082624D+03
 CCSD(T)
 CCSD(T)= -0.30024965524D+03

 The electronic state is 5-SGG.
 Alpha  occ. eigenvalues --  -20.74023 -20.74023 -20.73947 -20.73947  -1.74523
 Alpha  occ. eigenvalues --   -1.74523  -1.17067  -1.17066  -0.83803  -0.83803
 Alpha  occ. eigenvalues --   -0.83802  -0.83802  -0.78152  -0.78142  -0.50998
 Alpha  occ. eigenvalues --   -0.50998  -0.50996  -0.50996
 Alpha virt. eigenvalues --    0.40921   0.41924   0.67995   0.67995   0.68011
 Alpha virt. eigenvalues --    0.68011   0.71737   0.72354   0.77694   0.78360
 Alpha virt. eigenvalues --    0.79757   0.79757   0.79815   0.79815   0.87061

 Mulliken charges and spin densities:
               1          2
     1  O   -0.000364   0.999596
     2  O    0.000364   1.000404
     3  O    0.000364   1.000404
     4  O   -0.000364   0.999596
 Sum of Mulliken charges =  -0.00000   4.00000

 Dipole moment (field-independent basis, Debye):
    X=             -0.0000    Y=              0.0000    Z=              0.0000  Tot=              0.0000
 Quadrupole moment (field-independent basis, Debye-Ang):
   XX=            -19.6382   YY=            -19.6382   ZZ=            -20.8703
   XY=              0.0000   XZ=              0.0000   YZ=              0.0000

 808\MP4SDQ=-300.2208639\CCSD=-300.2143912\CCSD(T)=-300.2496552\RMSD=5.
 Normal termination of Gaussian 16 at Tue Feb 13 20:51:11 2024.
