 Gaussian 16, Revision A.03,
 Gaussian 16:  ES64L-G16RevA.03 25-Dec-2016

 --------------------
 #p ROCCSD(T)/cc-pVTZ
 --------------------

 ---------
 O2_O2_269
 ---------
 Symbolic Z-matrix:
 Charge =  0 Multiplicity = 5

                         Standard orientation:
 ---------------------------------------------------------------------
 Center     Atomic      Atomic             Coordinates (Angstroms)
 Number     Number       Type             X           Y           Z
 ---------------------------------------------------------------------
      1          8           0       -0.870000   -2.570000    0.000000
      2          8           0        0.290000   -2.570000    0.000000
      3          8           0        0.290000    1.990000    0.000000
      4          8           0        0.290000    3.150000    0.000000
 ---------------------------------------------------------------------

 SCF Done:  E(ROHF) =  -299.316606317     A.U. after   16 cycles
 E2 =    -0.9223235652D+00 EUMP2 =    -0.30023892988239D+03
 CCSD(T)
 CCSD(T)= -0.30024970171D+03

 The electronic state is 5-A'.
 Alpha  occ. eigenvalues --  -20.74078 -20.74010 -20.74002 -20.73934  -1.74576
 Alpha  occ. eigenvalues --   -1.74508  -1.17122  -1.17053  -0.83856  -0.83856
 Alpha  occ. eigenvalues --   -0.83789  -0.83786  -0.78205  -0.78135  -0.51053
 Alpha  occ. eigenvalues --   -0.51052  -0.50984  -0.50981
 Alpha virt. eigenvalues --    0.41227   0.41505   0.67678   0.67922   0.67971
 Alpha virt. eigenvalues --    0.68047   0.72056   0.72240   0.77873   0.78084
 Alpha virt. eigenvalues --    0.79556   0.79709   0.79820   0.80134   0.87009

 Mulliken charges and spin densities:
               1          2
     1  O   -0.000137   0.999855
     2  O    0.000159   1.000143
     3  O   -0.000429   0.999554
     4  O    0.000407   1.000448
 Sum of Mulliken charges =  -0.00000   4.00000

 Dipole moment (field-independent basis, Debye):
    X=              0.0013    Y=              0.0041    Z=              0.0000  Tot=              0.0043
 Quadrupole moment (field-independent basis, Debye-Ang):
   XX=            -20.2387   YY=            -20.2282   ZZ=            -19.6381
   XY=             -0.0009   XZ=              0.0000   YZ=              0.0000

 9299\MP4SDQ=-300.2209045\CCSD=-300.2144349\CCSD(T)=-300.2497017\RMSD=2
 Normal termination of Gaussian 16 at Tue Feb 13 19:51:11 2024.
