 Gaussian 16, Revision A.03,
 Gaussian 16:  ES64L-G16RevA.03 25-Dec-2016

 --------------------
 #p ROCCSD(T)/cc-pVTZ
 --------------------

 --------
 O2_O2_60
 --------
 Symbolic Z-matrix:
 Charge =  0 Multiplicity = 5

                         Standard orientation:
 ---------------------------------------------------------------------
 Center     Atomic      Atomic             Coordinates (Angstroms)
 Number     Number       Type             X           Y           Z
 ---------------------------------------------------------------------
      1          8           0        0.000000    0.000000    2.060000
      2          8           0        0.000000    0.000000    0.900000
      3          8           0        0.000000    0.000000   -0.900000
      4          8           0        0.000000    0.000000   -2.060000
 ---------------------------------------------------------------------

 SCF Done:  E(ROHF) =  -299.248264824     A.U. after   11 cycles
 E2 =    -0.9325127382D+00 EUMP2 =    -0.30018077756228D+03
 CCSD(T)
 CCSD(T)= -0.30018950500D+03

 The electronic state is 5-SGG.
 Alpha  occ. eigenvalues --  -20.73288 -20.73288 -20.71872 -20.71868  -1.74629
 Alpha  occ. eigenvalues --   -1.73327  -1.23001  -1.12627  -0.84357  -0.84357
 Alpha  occ. eigenvalues --   -0.84068  -0.82220  -0.82220  -0.69262  -0.52806
 Alpha  occ. eigenvalues --   -0.52806  -0.48036  -0.48036
 Alpha virt. eigenvalues --    0.44785   0.48685   0.65048   0.65048   0.70549
 Alpha virt. eigenvalues --    0.70549   0.71593   0.76944   0.76995   0.76995
 Alpha virt. eigenvalues --    0.85184   0.85402   0.96162   0.96162   0.96811

 Mulliken charges and spin densities:
               1          2
     1  O   -0.028228   1.027793
     2  O    0.028228   0.972207
     3  O    0.028228   0.972207
     4  O   -0.028228   1.027793
 Sum of Mulliken charges =  -0.00000   4.00000

 Dipole moment (field-independent basis, Debye):
    X=             -0.0000    Y=             -0.0000    Z=              0.0000  Tot=              0.0000
 Quadrupole moment (field-independent basis, Debye-Ang):
   XX=            -19.5827   YY=            -19.5827   ZZ=            -21.4443
   XY=              0.0000   XZ=              0.0000   YZ=              0.0000

 776\MP4SDQ=-300.1603528\CCSD=-300.1531134\CCSD(T)=-300.189505\RMSD=7.7
 Normal termination of Gaussian 16 at Tue Feb 13 13:55:19 2024.
