 Gaussian 16, Revision A.03,
 Gaussian 16:  ES64L-G16RevA.03 25-Dec-2016

 --------------------
 #p ROCCSD(T)/cc-pVTZ
 --------------------

 ---------
 O2_O2_203
 ---------
 Symbolic Z-matrix:
 Charge =  0 Multiplicity = 5

                         Standard orientation:
 ---------------------------------------------------------------------
 Center     Atomic      Atomic             Coordinates (Angstroms)
 Number     Number       Type             X           Y           Z
 ---------------------------------------------------------------------
      1          8           0       -0.870000   -2.130000    0.000000
      2          8           0        0.290000   -2.130000    0.000000
      3          8           0        0.290000    1.550000    0.000000
      4          8           0        0.290000    2.710000    0.000000
 ---------------------------------------------------------------------

 SCF Done:  E(ROHF) =  -299.316670158     A.U. after   16 cycles
 E2 =    -0.9225760372D+00 EUMP2 =    -0.30023924619569D+03
 CCSD(T)
 CCSD(T)= -0.30024998266D+03

 The electronic state is 5-A'.
 Alpha  occ. eigenvalues --  -20.74100 -20.74021 -20.73994 -20.73918  -1.74595
 Alpha  occ. eigenvalues --   -1.74488  -1.17146  -1.17031  -0.83877  -0.83877
 Alpha  occ. eigenvalues --   -0.83768  -0.83762  -0.78249  -0.78089  -0.51104
 Alpha  occ. eigenvalues --   -0.51074  -0.50964  -0.50927
 Alpha virt. eigenvalues --    0.39922   0.41686   0.63798   0.67380   0.67775
 Alpha virt. eigenvalues --    0.68510   0.72061   0.74446   0.76908   0.78234
 Alpha virt. eigenvalues --    0.79382   0.80103   0.80250   0.83153   0.86940

 Mulliken charges and spin densities:
               1          2
     1  O   -0.000200   0.999814
     2  O    0.000509   1.000159
     3  O   -0.001500   0.999140
     4  O    0.001191   1.000886
 Sum of Mulliken charges =  -0.00000   4.00000

 Dipole moment (field-independent basis, Debye):
    X=              0.0024    Y=              0.0048    Z=              0.0000  Tot=              0.0054
 Quadrupole moment (field-independent basis, Debye-Ang):
   XX=            -20.2388   YY=            -20.2134   ZZ=            -19.6382
   XY=             -0.0002   XZ=              0.0000   YZ=              0.0000

 62\MP4SDQ=-300.2211637\CCSD=-300.2146863\CCSD(T)=-300.2499827\RMSD=3.6
 Normal termination of Gaussian 16 at Tue Feb 13 17:49:25 2024.
