 Gaussian 16, Revision A.03,
 Gaussian 16:  ES64L-G16RevA.03 25-Dec-2016

 --------------------
 #p ROCCSD(T)/cc-pVTZ
 --------------------

 --------
 O2_O2_39
 --------
 Symbolic Z-matrix:
 Charge =  0 Multiplicity = 5

                         Standard orientation:
 ---------------------------------------------------------------------
 Center     Atomic      Atomic             Coordinates (Angstroms)
 Number     Number       Type             X           Y           Z
 ---------------------------------------------------------------------
      1          8           0        0.000000    0.000000    1.920000
      2          8           0        0.000000    0.000000    0.760000
      3          8           0        0.000000    0.000000   -0.760000
      4          8           0        0.000000    0.000000   -1.920000
 ---------------------------------------------------------------------

 SCF Done:  E(ROHF) =  -299.114724311     A.U. after   12 cycles
 E2 =    -0.9440767551D+00 EUMP2 =    -0.30005880106624D+03
 CCSD(T)
 CCSD(T)= -0.30006555055D+03

 The electronic state is 5-SGG.
 Alpha  occ. eigenvalues --  -20.72856 -20.72856 -20.69606 -20.69602  -1.75407
 Alpha  occ. eigenvalues --   -1.72238  -1.29867  -1.09569  -0.86943  -0.85385
 Alpha  occ. eigenvalues --   -0.85385  -0.80999  -0.80999  -0.60292  -0.54557
 Alpha  occ. eigenvalues --   -0.54557  -0.45490  -0.45490
 Alpha virt. eigenvalues --    0.45296   0.49086   0.65989   0.65989   0.68680
 Alpha virt. eigenvalues --    0.70866   0.70866   0.75253   0.79440   0.79440
 Alpha virt. eigenvalues --    0.84445   0.88999   0.98393   0.98393   1.03795

 Mulliken charges and spin densities:
               1          2
     1  O   -0.017536   1.089292
     2  O    0.017536   0.910708
     3  O    0.017536   0.910708
     4  O   -0.017536   1.089292
 Sum of Mulliken charges =   0.00000   4.00000

 Dipole moment (field-independent basis, Debye):
    X=              0.0000    Y=             -0.0000    Z=             -0.0000  Tot=              0.0000
 Quadrupole moment (field-independent basis, Debye-Ang):
   XX=            -19.4799   YY=            -19.4799   ZZ=            -21.5999
   XY=              0.0000   XZ=              0.0000   YZ=              0.0000

 8011\MP4SDQ=-300.035895\CCSD=-300.0277482\CCSD(T)=-300.0655506\RMSD=7.
 Normal termination of Gaussian 16 at Tue Feb 13 13:15:20 2024.
