 Gaussian 16, Revision A.03,
 Gaussian 16:  ES64L-G16RevA.03 25-Dec-2016

 --------------------
 #p ROCCSD(T)/cc-pVTZ
 --------------------

 --------
 O2_O2_69
 --------
 Symbolic Z-matrix:
 Charge =  0 Multiplicity = 5

                         Standard orientation:
 ---------------------------------------------------------------------
 Center     Atomic      Atomic             Coordinates (Angstroms)
 Number     Number       Type             X           Y           Z
 ---------------------------------------------------------------------
      1          8           0        0.000000    0.000000    2.120000
      2          8           0        0.000000    0.000000    0.960000
      3          8           0        0.000000    0.000000   -0.960000
      4          8           0        0.000000    0.000000   -2.120000
 ---------------------------------------------------------------------

 SCF Done:  E(ROHF) =  -299.274296123     A.U. after   11 cycles
 E2 =    -0.9297429023D+00 EUMP2 =    -0.30020403902519D+03
 CCSD(T)
 CCSD(T)= -0.30021334680D+03

 The electronic state is 5-SGG.
 Alpha  occ. eigenvalues --  -20.73429 -20.73429 -20.72488 -20.72485  -1.74529
 Alpha  occ. eigenvalues --   -1.73630  -1.21308  -1.13606  -0.84158  -0.84158
 Alpha  occ. eigenvalues --   -0.82996  -0.82589  -0.82589  -0.71454  -0.52364
 Alpha  occ. eigenvalues --   -0.52364  -0.48716  -0.48716
 Alpha virt. eigenvalues --    0.44288   0.48584   0.64650   0.64650   0.70398
 Alpha virt. eigenvalues --    0.70398   0.71930   0.76312   0.76312   0.76888
 Alpha virt. eigenvalues --    0.84895   0.85785   0.93820   0.95117   0.95117

 Mulliken charges and spin densities:
               1          2
     1  O   -0.027797   1.016237
     2  O    0.027797   0.983763
     3  O    0.027797   0.983763
     4  O   -0.027797   1.016237
 Sum of Mulliken charges =  -0.00000   4.00000

 Dipole moment (field-independent basis, Debye):
    X=             -0.0000    Y=              0.0000    Z=             -0.0000  Tot=              0.0000
 Quadrupole moment (field-independent basis, Debye-Ang):
   XX=            -19.6051   YY=            -19.6051   ZZ=            -21.3559
   XY=              0.0000   XZ=              0.0000   YZ=              0.0000

 9\MP4SDQ=-300.1842794\CCSD=-300.1772554\CCSD(T)=-300.2133468\RMSD=3.36
 Normal termination of Gaussian 16 at Tue Feb 13 14:13:29 2024.
