 Gaussian 16, Revision A.03,
 Gaussian 16:  ES64L-G16RevA.03 25-Dec-2016

 --------------------
 #p ROCCSD(T)/cc-pVTZ
 --------------------

 -------
 O2_O2_0
 -------
 Symbolic Z-matrix:
 Charge =  0 Multiplicity = 5

                         Standard orientation:
 ---------------------------------------------------------------------
 Center     Atomic      Atomic             Coordinates (Angstroms)
 Number     Number       Type             X           Y           Z
 ---------------------------------------------------------------------
      1          8           0        0.000000    0.000000    1.660000
      2          8           0        0.000000    0.000000    0.500000
      3          8           0        0.000000    0.000000   -0.500000
      4          8           0        0.000000    0.000000   -1.660000
 ---------------------------------------------------------------------

 SCF Done:  E(ROHF) =  -298.497874964     A.U. after   15 cycles
 E2 =    -0.9264608815D+00 EUMP2 =    -0.29942433584541D+03
 CCSD(T)
 CCSD(T)= -0.29945061887D+03

 Unable to determine electronic state:  an orbital has unidentified symmetry.
 Alpha  occ. eigenvalues --  -20.78272 -20.78101 -20.66613 -20.66611  -2.04350
 Alpha  occ. eigenvalues --   -1.72338  -1.58003  -1.05933  -1.05449  -1.01359
 Alpha  occ. eigenvalues --   -0.90951  -0.78671  -0.76066  -0.61800  -0.56602
 Alpha  occ. eigenvalues --   -0.38487  -0.36792  -0.22264
 Alpha virt. eigenvalues --    0.33609   0.48654   0.54976   0.61133   0.61835
 Alpha virt. eigenvalues --    0.66051   0.71475   0.73993   0.82015   0.82425
 Alpha virt. eigenvalues --    0.83810   0.99026   0.99417   1.12194   1.26784

 Mulliken charges and spin densities:
               1          2
     1  O   -0.097032   1.004991
     2  O    0.097032   0.995009
     3  O    0.097032   0.995009
     4  O   -0.097032   1.004991
 Sum of Mulliken charges =   0.00000   4.00000

 Dipole moment (field-independent basis, Debye):
    X=             -0.0000    Y=              0.0000    Z=             -0.0000  Tot=              0.0000
 Quadrupole moment (field-independent basis, Debye-Ang):
   XX=            -18.5052   YY=            -19.5734   ZZ=            -27.1920
   XY=             -0.0000   XZ=              0.0000   YZ=             -0.0000

 4121056\CCSD=-299.4097968\CCSD(T)=-299.4506189\RMSD=4.810e-10\PG=D*H [
 Normal termination of Gaussian 16 at Tue Feb 13 11:54:27 2024.
