 Gaussian 16, Revision A.03,
 Gaussian 16:  ES64L-G16RevA.03 25-Dec-2016

 --------------------
 #p ROCCSD(T)/cc-pVTZ
 --------------------

 --------
 O2_O2_25
 --------
 Symbolic Z-matrix:
 Charge =  0 Multiplicity = 5

                         Standard orientation:
 ---------------------------------------------------------------------
 Center     Atomic      Atomic             Coordinates (Angstroms)
 Number     Number       Type             X           Y           Z
 ---------------------------------------------------------------------
      1          8           0        0.615183   -1.565183    0.000000
      2          8           0       -0.205061   -0.744939    0.000000
      3          8           0       -0.205061    0.575061   -0.000000
      4          8           0       -0.205061    1.735061   -0.000000
 ---------------------------------------------------------------------

 SCF Done:  E(ROHF) =  -298.972960308     A.U. after   21 cycles
 E2 =    -0.9204995563D+00 EUMP2 =    -0.29989345986403D+03
 CCSD(T)
 CCSD(T)= -0.29991750682D+03

 The electronic state is 5-A'.
 Alpha  occ. eigenvalues --  -20.77789 -20.76223 -20.68860 -20.66246  -1.83077
 Alpha  occ. eigenvalues --   -1.72235  -1.41075  -1.07890  -0.91717  -0.91601
 Alpha  occ. eigenvalues --   -0.89375  -0.80181  -0.77179  -0.58759  -0.58557
 Alpha  occ. eigenvalues --   -0.53823  -0.44177  -0.37758
 Alpha virt. eigenvalues --    0.44794   0.50465   0.63685   0.64058   0.65122
 Alpha virt. eigenvalues --    0.69739   0.71391   0.74148   0.79105   0.80127
 Alpha virt. eigenvalues --    0.81519   0.85686   0.92802   0.97001   1.03032

 Mulliken charges and spin densities:
               1          2
     1  O   -0.130177   0.895984
     2  O    0.001287   0.851396
     3  O    0.120161   1.079596
     4  O    0.008729   1.173024
 Sum of Mulliken charges =  -0.00000   4.00000

 Dipole moment (field-independent basis, Debye):
    X=             -0.2982    Y=              1.5483    Z=             -0.0000  Tot=              1.5768
 Quadrupole moment (field-independent basis, Debye-Ang):
   XX=            -20.4902   YY=            -22.6052   ZZ=            -19.1804
   XY=              0.6670   XZ=             -0.0000   YZ=              0.0000

 603\PMP2-0=-299.8934599\MP4SDQ=-299.88301\CCSD=-299.87971\CCSD(T)=-299
 Normal termination of Gaussian 16 at Tue Feb 13 12:45:53 2024.
