 Gaussian 16, Revision A.03,
 Gaussian 16:  ES64L-G16RevA.03 25-Dec-2016

 --------------------
 #p ROCCSD(T)/cc-pVTZ
 --------------------

 --------
 O2_O2_86
 --------
 Symbolic Z-matrix:
 Charge =  0 Multiplicity = 5

                         Standard orientation:
 ---------------------------------------------------------------------
 Center     Atomic      Atomic             Coordinates (Angstroms)
 Number     Number       Type             X           Y           Z
 ---------------------------------------------------------------------
      1          8           0       -0.870000   -1.350000    0.000000
      2          8           0        0.290000   -1.350000    0.000000
      3          8           0        0.290000    0.770000    0.000000
      4          8           0        0.290000    1.930000    0.000000
 ---------------------------------------------------------------------

 SCF Done:  E(ROHF) =  -299.293347040     A.U. after   22 cycles
 E2 =    -0.9240038033D+00 EUMP2 =    -0.30021735084358D+03
 CCSD(T)
 CCSD(T)= -0.30023072535D+03

 The electronic state is 5-A'.
 Alpha  occ. eigenvalues --  -20.74130 -20.73609 -20.73526 -20.72723  -1.75076
 Alpha  occ. eigenvalues --   -1.73893  -1.18698  -1.16018  -0.86071  -0.84480
 Alpha  occ. eigenvalues --   -0.83883  -0.82927  -0.78248  -0.75358  -0.52350
 Alpha  occ. eigenvalues --   -0.51561  -0.50158  -0.49326
 Alpha virt. eigenvalues --    0.41226   0.45520   0.63311   0.66211   0.69569
 Alpha virt. eigenvalues --    0.70972   0.71369   0.73257   0.75070   0.77827
 Alpha virt. eigenvalues --    0.79060   0.85332   0.86481   0.87136   0.96923

 Mulliken charges and spin densities:
               1          2
     1  O   -0.018420   0.968767
     2  O    0.017078   1.029832
     3  O    0.011911   0.987230
     4  O   -0.010569   1.014170
 Sum of Mulliken charges =  -0.00000   4.00000

 Dipole moment (field-independent basis, Debye):
    X=              0.1298    Y=              0.0949    Z=              0.0000  Tot=              0.1608
 Quadrupole moment (field-independent basis, Debye-Ang):
   XX=            -20.3138   YY=            -20.5253   ZZ=            -19.6159
   XY=             -0.1719   XZ=              0.0000   YZ=              0.0000

 8\MP4SDQ=-300.2005289\CCSD=-300.1948608\CCSD(T)=-300.2307253\RMSD=9.28
 Normal termination of Gaussian 16 at Tue Feb 13 14:44:46 2024.
