 Gaussian 16, Revision A.03,
 Gaussian 16:  ES64L-G16RevA.03 25-Dec-2016

 --------------------
 #p ROCCSD(T)/cc-pVTZ
 --------------------

 ---------
 O2_O2_174
 ---------
 Symbolic Z-matrix:
 Charge =  0 Multiplicity = 5

                         Standard orientation:
 ---------------------------------------------------------------------
 Center     Atomic      Atomic             Coordinates (Angstroms)
 Number     Number       Type             X           Y           Z
 ---------------------------------------------------------------------
      1          8           0        0.000000    0.000000    2.820000
      2          8           0        0.000000    0.000000    1.660000
      3          8           0        0.000000    0.000000   -1.660000
      4          8           0        0.000000    0.000000   -2.820000
 ---------------------------------------------------------------------

 SCF Done:  E(ROHF) =  -299.316529619     A.U. after   12 cycles
 E2 =    -0.9227743848D+00 EUMP2 =    -0.30023930400353D+03
 CCSD(T)
 CCSD(T)= -0.30025000743D+03

 The electronic state is 5-SGG.
 Alpha  occ. eigenvalues --  -20.73985 -20.73985 -20.73905 -20.73905  -1.74491
 Alpha  occ. eigenvalues --   -1.74479  -1.17133  -1.16920  -0.83787  -0.83787
 Alpha  occ. eigenvalues --   -0.83742  -0.83742  -0.78388  -0.77816  -0.51043
 Alpha  occ. eigenvalues --   -0.51043  -0.50872  -0.50872
 Alpha virt. eigenvalues --    0.35556   0.47114   0.65063   0.67125   0.67125
 Alpha virt. eigenvalues --    0.68675   0.68675   0.75391   0.77524   0.77604
 Alpha virt. eigenvalues --    0.77604   0.82512   0.82512   0.86384   0.87045

 Mulliken charges and spin densities:
               1          2
     1  O    0.000170   0.998909
     2  O   -0.000170   1.001091
     3  O   -0.000170   1.001091
     4  O    0.000170   0.998909
 Sum of Mulliken charges =  -0.00000   4.00000

 Dipole moment (field-independent basis, Debye):
    X=              0.0000    Y=             -0.0000    Z=              0.0000  Tot=              0.0000
 Quadrupole moment (field-independent basis, Debye-Ang):
   XX=            -19.6386   YY=            -19.6386   ZZ=            -20.9122
   XY=              0.0000   XZ=              0.0000   YZ=              0.0000

 304\MP4SDQ=-300.2211975\CCSD=-300.2146899\CCSD(T)=-300.2500074\RMSD=1.
 Normal termination of Gaussian 16 at Tue Feb 13 17:06:09 2024.
