 Gaussian 16, Revision A.03,
 Gaussian 16:  ES64L-G16RevA.03 25-Dec-2016

 --------------------
 #p ROCCSD(T)/cc-pVTZ
 --------------------

 --------
 O2_O2_30
 --------
 Symbolic Z-matrix:
 Charge =  0 Multiplicity = 5

                         Standard orientation:
 ---------------------------------------------------------------------
 Center     Atomic      Atomic             Coordinates (Angstroms)
 Number     Number       Type             X           Y           Z
 ---------------------------------------------------------------------
      1          8           0        0.000000    0.000000    1.860000
      2          8           0        0.000000    0.000000    0.700000
      3          8           0        0.000000    0.000000   -0.700000
      4          8           0        0.000000    0.000000   -1.860000
 ---------------------------------------------------------------------

 SCF Done:  E(ROHF) =  -299.002267453     A.U. after   13 cycles
 E2 =    -0.9519302078D+00 EUMP2 =    -0.29995419766112D+03
 CCSD(T)
 CCSD(T)= -0.29996037636D+03

 The electronic state is 5-SGG.
 Alpha  occ. eigenvalues --  -20.72589 -20.72589 -20.68342 -20.68342  -1.76346
 Alpha  occ. eigenvalues --   -1.71587  -1.34574  -1.08026  -0.88238  -0.86308
 Alpha  occ. eigenvalues --   -0.86308  -0.80338  -0.80338  -0.55798  -0.55798
 Alpha  occ. eigenvalues --   -0.53761  -0.43758  -0.43758
 Alpha virt. eigenvalues --    0.45025   0.49332   0.66205   0.66205   0.66354
 Alpha virt. eigenvalues --    0.70946   0.70946   0.73544   0.80755   0.80755
 Alpha virt. eigenvalues --    0.84176   0.93096   0.99318   0.99318   1.06680

 Mulliken charges and spin densities:
               1          2
     1  O    0.001969   1.142487
     2  O   -0.001969   0.857513
     3  O   -0.001969   0.857513
     4  O    0.001969   1.142487
 Sum of Mulliken charges =  -0.00000   4.00000

 Dipole moment (field-independent basis, Debye):
    X=              0.0000    Y=             -0.0000    Z=             -0.0000  Tot=              0.0000
 Quadrupole moment (field-independent basis, Debye-Ang):
   XX=            -19.4011   YY=            -19.4011   ZZ=            -21.6482
   XY=              0.0000   XZ=              0.0000   YZ=              0.0000

 977\MP4SDQ=-299.9299703\CCSD=-299.9213172\CCSD(T)=-299.9603764\RMSD=2.
 Normal termination of Gaussian 16 at Tue Feb 13 12:55:39 2024.
