 Gaussian 16, Revision A.03,
 Gaussian 16:  ES64L-G16RevA.03 25-Dec-2016

 --------------------
 #p ROCCSD(T)/cc-pVTZ
 --------------------

 --------
 O2_O2_11
 --------
 Symbolic Z-matrix:
 Charge =  0 Multiplicity = 5

                         Standard orientation:
 ---------------------------------------------------------------------
 Center     Atomic      Atomic             Coordinates (Angstroms)
 Number     Number       Type             X           Y           Z
 ---------------------------------------------------------------------
      1          8           0       -0.870000   -0.850000    0.000000
      2          8           0        0.290000   -0.850000    0.000000
      3          8           0        0.290000    0.270000    0.000000
      4          8           0        0.290000    1.430000    0.000000
 ---------------------------------------------------------------------

 SCF Done:  E(ROHF) =  -298.700059624     A.U. after   21 cycles
 E2 =    -0.9173161685D+00 EUMP2 =    -0.29961737579263D+03
 CCSD(T)
 CCSD(T)= -0.29964166003D+03

 The electronic state is 5-A'.
 Alpha  occ. eigenvalues --  -20.78531 -20.74383 -20.69073 -20.67774  -2.00973
 Alpha  occ. eigenvalues --   -1.72787  -1.43537  -1.11173  -1.00685  -0.96848
 Alpha  occ. eigenvalues --   -0.90553  -0.78476  -0.75628  -0.59143  -0.59141
 Alpha  occ. eigenvalues --   -0.48259  -0.44491  -0.26189
 Alpha virt. eigenvalues --    0.39727   0.46825   0.59326   0.62703   0.66464
 Alpha virt. eigenvalues --    0.68772   0.70699   0.73501   0.77001   0.79676
 Alpha virt. eigenvalues --    0.86403   0.86740   0.89795   0.99238   1.06019

 Mulliken charges and spin densities:
               1          2
     1  O   -0.146885   0.867481
     2  O    0.113526   0.453670
     3  O    0.067131   1.260379
     4  O   -0.033772   1.418469
 Sum of Mulliken charges =  -0.00000   4.00000

 Dipole moment (field-independent basis, Debye):
    X=              0.6652    Y=             -0.3397    Z=              0.0000  Tot=              0.7469
 Quadrupole moment (field-independent basis, Debye-Ang):
   XX=            -20.5006   YY=            -23.1725   ZZ=            -18.8265
   XY=             -0.7404   XZ=              0.0000   YZ=              0.0000

 758\MP4SDQ=-299.606631\CCSD=-299.6045179\CCSD(T)=-299.64166\RMSD=5.405
 Normal termination of Gaussian 16 at Tue Feb 13 12:17:11 2024.
