 Gaussian 16, Revision A.03,
 Gaussian 16:  ES64L-G16RevA.03 25-Dec-2016

 --------------------
 #p ROCCSD(T)/cc-pVTZ
 --------------------

 ---------
 O2_O2_175
 ---------
 Symbolic Z-matrix:
 Charge =  0 Multiplicity = 5

                         Standard orientation:
 ---------------------------------------------------------------------
 Center     Atomic      Atomic             Coordinates (Angstroms)
 Number     Number       Type             X           Y           Z
 ---------------------------------------------------------------------
      1          8           0        0.615183   -2.565183    0.000000
      2          8           0       -0.205061   -1.744939    0.000000
      3          8           0       -0.205061    1.575062   -0.000000
      4          8           0       -0.205061    2.735060   -0.000000
 ---------------------------------------------------------------------

 SCF Done:  E(ROHF) =  -299.316541130     A.U. after   17 cycles
 E2 =    -0.9227759147D+00 EUMP2 =    -0.30023931704482D+03
 CCSD(T)
 CCSD(T)= -0.30025002667D+03

 The electronic state is 5-A'.
 Alpha  occ. eigenvalues --  -20.74010 -20.73990 -20.73933 -20.73907  -1.74514
 Alpha  occ. eigenvalues --   -1.74484  -1.17143  -1.16940  -0.83806  -0.83803
 Alpha  occ. eigenvalues --   -0.83757  -0.83752  -0.78353  -0.77881  -0.51054
 Alpha  occ. eigenvalues --   -0.51016  -0.50920  -0.50891
 Alpha virt. eigenvalues --    0.37093   0.45006   0.64073   0.67073   0.67451
 Alpha virt. eigenvalues --    0.68702   0.69696   0.74620   0.76938   0.77646
 Alpha virt. eigenvalues --    0.77738   0.81461   0.82328   0.86030   0.87040

 Mulliken charges and spin densities:
               1          2
     1  O   -0.000478   0.998714
     2  O    0.000743   1.001108
     3  O   -0.000716   1.000831
     4  O    0.000450   0.999348
 Sum of Mulliken charges =  -0.00000   4.00000

 Dipole moment (field-independent basis, Debye):
    X=             -0.0061    Y=             -0.0021    Z=             -0.0000  Tot=              0.0064
 Quadrupole moment (field-independent basis, Debye-Ang):
   XX=            -19.9402   YY=            -20.5877   ZZ=            -19.6385
   XY=              0.3096   XZ=              0.0000   YZ=              0.0000

 411\PMP2-0=-300.239317\MP4SDQ=-300.2212044\CCSD=-300.2147056\CCSD(T)=-
 Normal termination of Gaussian 16 at Tue Feb 13 17:07:44 2024.
