 Gaussian 16, Revision A.03,
 Gaussian 16:  ES64L-G16RevA.03 25-Dec-2016

 --------------------
 #p ROCCSD(T)/cc-pVTZ
 --------------------

 ---------
 O2_O2_294
 ---------
 Symbolic Z-matrix:
 Charge =  0 Multiplicity = 5

                         Standard orientation:
 ---------------------------------------------------------------------
 Center     Atomic      Atomic             Coordinates (Angstroms)
 Number     Number       Type             X           Y           Z
 ---------------------------------------------------------------------
      1          8           0        0.000000    0.000000    3.620000
      2          8           0        0.000000    0.000000    2.460000
      3          8           0        0.000000    0.000000   -2.460000
      4          8           0        0.000000    0.000000   -3.620000
 ---------------------------------------------------------------------

 SCF Done:  E(ROHF) =  -299.316588108     A.U. after   11 cycles
 E2 =    -0.9222972694D+00 EUMP2 =    -0.30023888537741D+03
 CCSD(T)
 CCSD(T)= -0.30024965880D+03

 The electronic state is 5-SGG.
 Alpha  occ. eigenvalues --  -20.74022 -20.74022 -20.73946 -20.73946  -1.74522
 Alpha  occ. eigenvalues --   -1.74522  -1.17066  -1.17064  -0.83802  -0.83802
 Alpha  occ. eigenvalues --   -0.83801  -0.83801  -0.78152  -0.78140  -0.50998
 Alpha  occ. eigenvalues --   -0.50998  -0.50995  -0.50995
 Alpha virt. eigenvalues --    0.40802   0.42036   0.67994   0.67994   0.68015
 Alpha virt. eigenvalues --    0.68015   0.71649   0.72429   0.77627   0.78452
 Alpha virt. eigenvalues --    0.79749   0.79749   0.79825   0.79825   0.87062

 Mulliken charges and spin densities:
               1          2
     1  O   -0.000380   0.999577
     2  O    0.000380   1.000423
     3  O    0.000380   1.000423
     4  O   -0.000380   0.999577
 Sum of Mulliken charges =  -0.00000   4.00000

 Dipole moment (field-independent basis, Debye):
    X=             -0.0000    Y=             -0.0000    Z=              0.0000  Tot=              0.0000
 Quadrupole moment (field-independent basis, Debye-Ang):
   XX=            -19.6382   YY=            -19.6382   ZZ=            -20.8714
   XY=              0.0000   XZ=              0.0000   YZ=              0.0000

 88854\MP4SDQ=-300.2208674\CCSD=-300.2143944\CCSD(T)=-300.2496588\RMSD=
 Normal termination of Gaussian 16 at Tue Feb 13 20:40:03 2024.
