 Gaussian 16, Revision A.03,
 Gaussian 16:  ES64L-G16RevA.03 25-Dec-2016

 --------------------
 #p ROCCSD(T)/cc-pVTZ
 --------------------

 --------
 O2_O2_44
 --------
 Symbolic Z-matrix:
 Charge =  0 Multiplicity = 5

                         Standard orientation:
 ---------------------------------------------------------------------
 Center     Atomic      Atomic             Coordinates (Angstroms)
 Number     Number       Type             X           Y           Z
 ---------------------------------------------------------------------
      1          8           0       -0.870000   -1.070000    0.000000
      2          8           0        0.290000   -1.070000    0.000000
      3          8           0        0.290000    0.490000    0.000000
      4          8           0        0.290000    1.650000    0.000000
 ---------------------------------------------------------------------

 SCF Done:  E(ROHF) =  -299.143592854     A.U. after   22 cycles
 E2 =    -0.9090324227D+00 EUMP2 =    -0.30005262527656D+03
 CCSD(T)
 CCSD(T)= -0.30008212764D+03

 The electronic state is 5-A'.
 Alpha  occ. eigenvalues --  -20.74181 -20.73915 -20.72732 -20.68226  -1.79234
 Alpha  occ. eigenvalues --   -1.72843  -1.26609  -1.13432  -0.91848  -0.87697
 Alpha  occ. eigenvalues --   -0.85737  -0.81188  -0.76731  -0.66148  -0.53852
 Alpha  occ. eigenvalues --   -0.53791  -0.48161  -0.45405
 Alpha virt. eigenvalues --    0.41414   0.46558   0.62896   0.64619   0.67795
 Alpha virt. eigenvalues --    0.70211   0.72291   0.74414   0.78559   0.79666
 Alpha virt. eigenvalues --    0.81266   0.85852   0.87216   0.98697   0.98787

 Mulliken charges and spin densities:
               1          2
     1  O   -0.096861   0.864348
     2  O    0.069014   1.068947
     3  O    0.053179   1.022627
     4  O   -0.025331   1.044077
 Sum of Mulliken charges =  -0.00000   4.00000

 Dipole moment (field-independent basis, Debye):
    X=              0.5407    Y=              0.3715    Z=              0.0000  Tot=              0.6560
 Quadrupole moment (field-independent basis, Debye-Ang):
   XX=            -20.6116   YY=            -21.2468   ZZ=            -19.3995
   XY=             -0.5388   XZ=              0.0000   YZ=              0.0000

 253\MP4SDQ=-300.0467614\CCSD=-300.0456818\CCSD(T)=-300.0821276\RMSD=2.
 Normal termination of Gaussian 16 at Tue Feb 13 13:25:26 2024.
