 Gaussian 16, Revision A.03,
 Gaussian 16:  ES64L-G16RevA.03 25-Dec-2016

 --------------------
 #p ROCCSD(T)/cc-pVTZ
 --------------------

 ---------
 O2_O2_293
 ---------
 Symbolic Z-matrix:
 Charge =  0 Multiplicity = 5

                         Standard orientation:
 ---------------------------------------------------------------------
 Center     Atomic      Atomic             Coordinates (Angstroms)
 Number     Number       Type             X           Y           Z
 ---------------------------------------------------------------------
      1          8           0       -0.870000   -2.730000    0.000000
      2          8           0        0.290000   -2.730000    0.000000
      3          8           0        0.290000    2.150000    0.000000
      4          8           0        0.290000    3.310000    0.000000
 ---------------------------------------------------------------------

 SCF Done:  E(ROHF) =  -299.316597743     A.U. after   16 cycles
 E2 =    -0.9222970154D+00 EUMP2 =    -0.30023889475815D+03
 CCSD(T)
 CCSD(T)= -0.30024967138D+03

 The electronic state is 5-A'.
 Alpha  occ. eigenvalues --  -20.74074 -20.74015 -20.73997 -20.73939  -1.74572
 Alpha  occ. eigenvalues --   -1.74514  -1.17118  -1.17059  -0.83852  -0.83852
 Alpha  occ. eigenvalues --   -0.83794  -0.83793  -0.78200  -0.78141  -0.51047
 Alpha  occ. eigenvalues --   -0.51047  -0.50990  -0.50988
 Alpha virt. eigenvalues --    0.41326   0.41459   0.67927   0.67950   0.67985
 Alpha virt. eigenvalues --    0.68018   0.72032   0.72072   0.77928   0.78032
 Alpha virt. eigenvalues --    0.79666   0.79731   0.79796   0.79898   0.87015

 Mulliken charges and spin densities:
               1          2
     1  O   -0.000122   0.999870
     2  O    0.000127   1.000130
     3  O   -0.000328   0.999642
     4  O    0.000323   1.000359
 Sum of Mulliken charges =  -0.00000   4.00000

 Dipole moment (field-independent basis, Debye):
    X=              0.0011    Y=              0.0035    Z=              0.0000  Tot=              0.0036
 Quadrupole moment (field-independent basis, Debye-Ang):
   XX=            -20.2386   YY=            -20.2306   ZZ=            -19.6381
   XY=             -0.0010   XZ=              0.0000   YZ=              0.0000

 8948\MP4SDQ=-300.2208761\CCSD=-300.2144072\CCSD(T)=-300.2496714\RMSD=2
 Normal termination of Gaussian 16 at Tue Feb 13 20:38:31 2024.
