 Gaussian 16, Revision A.03,
 Gaussian 16:  ES64L-G16RevA.03 25-Dec-2016

 --------------------
 #p ROCCSD(T)/cc-pVTZ
 --------------------

 ---------
 O2_O2_119
 ---------
 Symbolic Z-matrix:
 Charge =  0 Multiplicity = 5

                         Standard orientation:
 ---------------------------------------------------------------------
 Center     Atomic      Atomic             Coordinates (Angstroms)
 Number     Number       Type             X           Y           Z
 ---------------------------------------------------------------------
      1          8           0       -0.870000   -1.570000    0.000000
      2          8           0        0.290000   -1.570000    0.000000
      3          8           0        0.290000    0.990000    0.000000
      4          8           0        0.290000    2.150000    0.000000
 ---------------------------------------------------------------------

 SCF Done:  E(ROHF) =  -299.312816945     A.U. after   22 cycles
 E2 =    -0.9243051391D+00 EUMP2 =    -0.30023712208410D+03
 CCSD(T)
 CCSD(T)= -0.30024782695D+03

 The electronic state is 5-A'.
 Alpha  occ. eigenvalues --  -20.74136 -20.73935 -20.73825 -20.73636  -1.74701
 Alpha  occ. eigenvalues --   -1.74285  -1.17531  -1.16702  -0.84331  -0.84054
 Alpha  occ. eigenvalues --   -0.83782  -0.83478  -0.78483  -0.77294  -0.51639
 Alpha  occ. eigenvalues --   -0.51225  -0.50700  -0.50307
 Alpha virt. eigenvalues --    0.40794   0.43509   0.63897   0.64194   0.67176
 Alpha virt. eigenvalues --    0.70282   0.71722   0.73824   0.74880   0.77658
 Alpha virt. eigenvalues --    0.78869   0.80419   0.83730   0.86677   0.93186

 Mulliken charges and spin densities:
               1          2
     1  O   -0.003084   0.992886
     2  O    0.003544   1.007104
     3  O    0.000640   0.995269
     4  O   -0.001099   1.004741
 Sum of Mulliken charges =  -0.00000   4.00000

 Dipole moment (field-independent basis, Debye):
    X=              0.0360    Y=              0.0447    Z=              0.0000  Tot=              0.0574
 Quadrupole moment (field-independent basis, Debye-Ang):
   XX=            -20.2567   YY=            -20.3347   ZZ=            -19.6369
   XY=             -0.0430   XZ=              0.0000   YZ=              0.0000

 221\MP4SDQ=-300.2187488\CCSD=-300.2122798\CCSD(T)=-300.247827\RMSD=5.5
 Normal termination of Gaussian 16 at Tue Feb 13 15:40:04 2024.
