 Gaussian 16, Revision A.03,
 Gaussian 16:  ES64L-G16RevA.03 25-Dec-2016

 --------------------
 #p ROCCSD(T)/cc-pVTZ
 --------------------

 ---------
 O2_O2_286
 ---------
 Symbolic Z-matrix:
 Charge =  0 Multiplicity = 5

                         Standard orientation:
 ---------------------------------------------------------------------
 Center     Atomic      Atomic             Coordinates (Angstroms)
 Number     Number       Type             X           Y           Z
 ---------------------------------------------------------------------
      1          8           0        0.615183   -3.305183    0.000000
      2          8           0       -0.205061   -2.484939    0.000000
      3          8           0       -0.205061    2.315062   -0.000000
      4          8           0       -0.205061    3.475060   -0.000000
 ---------------------------------------------------------------------

 SCF Done:  E(ROHF) =  -299.316591680     A.U. after   16 cycles
 E2 =    -0.9223010011D+00 EUMP2 =    -0.30023889268121D+03
 CCSD(T)
 CCSD(T)= -0.30024966646D+03

 The electronic state is 5-A'.
 Alpha  occ. eigenvalues --  -20.74038 -20.74020 -20.73961 -20.73943  -1.74537
 Alpha  occ. eigenvalues --   -1.74519  -1.17081  -1.17063  -0.83817  -0.83817
 Alpha  occ. eigenvalues --   -0.83799  -0.83798  -0.78164  -0.78142  -0.51012
 Alpha  occ. eigenvalues --   -0.51012  -0.50994  -0.50993
 Alpha virt. eigenvalues --    0.40863   0.41953   0.67976   0.67980   0.68001
 Alpha virt. eigenvalues --    0.68017   0.71646   0.72412   0.77611   0.78332
 Alpha virt. eigenvalues --    0.79725   0.79768   0.79836   0.79951   0.87048

 Mulliken charges and spin densities:
               1          2
     1  O   -0.000380   0.999582
     2  O    0.000385   1.000415
     3  O    0.000195   1.000229
     4  O   -0.000200   0.999774
 Sum of Mulliken charges =  -0.00000   4.00000

 Dipole moment (field-independent basis, Debye):
    X=             -0.0019    Y=              0.0006    Z=             -0.0000  Tot=              0.0020
 Quadrupole moment (field-independent basis, Debye-Ang):
   XX=            -19.9387   YY=            -20.5594   ZZ=            -19.6382
   XY=              0.3035   XZ=             -0.0000   YZ=              0.0000

 Normal termination of Gaussian 16 at Tue Feb 13 20:24:47 2024.
