 Gaussian 16, Revision A.03,
 Gaussian 16:  ES64L-G16RevA.03 25-Dec-2016

 --------------------
 #p ROCCSD(T)/cc-pVTZ
 --------------------

 --------
 O2_O2_14
 --------
 Symbolic Z-matrix:
 Charge =  0 Multiplicity = 5

                         Standard orientation:
 ---------------------------------------------------------------------
 Center     Atomic      Atomic             Coordinates (Angstroms)
 Number     Number       Type             X           Y           Z
 ---------------------------------------------------------------------
      1          8           0       -0.870000   -0.870000    0.000000
      2          8           0        0.290000   -0.870000    0.000000
      3          8           0        0.290000    0.290000    0.000000
      4          8           0        0.290000    1.450000    0.000000
 ---------------------------------------------------------------------

 SCF Done:  E(ROHF) =  -298.759034611     A.U. after   20 cycles
 E2 =    -0.9217711876D+00 EUMP2 =    -0.29968080579881D+03
 CCSD(T)
 CCSD(T)= -0.29970314890D+03

 The electronic state is 5-A'.
 Alpha  occ. eigenvalues --  -20.79386 -20.73312 -20.70355 -20.67302  -1.97716
 Alpha  occ. eigenvalues --   -1.73035  -1.41814  -1.11194  -0.98914  -0.96454
 Alpha  occ. eigenvalues --   -0.90224  -0.79008  -0.75809  -0.59113  -0.58587
 Alpha  occ. eigenvalues --   -0.49176  -0.45269  -0.28388
 Alpha virt. eigenvalues --    0.39982   0.46832   0.59305   0.63050   0.67042
 Alpha virt. eigenvalues --    0.68979   0.70722   0.73353   0.77575   0.79571
 Alpha virt. eigenvalues --    0.86391   0.86502   0.87904   0.98672   1.04140

 Mulliken charges and spin densities:
               1          2
     1  O   -0.150064   0.855729
     2  O    0.087926   0.542284
     3  O    0.108009   1.276479
     4  O   -0.045871   1.325508
 Sum of Mulliken charges =  -0.00000   4.00000

 Dipole moment (field-independent basis, Debye):
    X=              0.7078    Y=             -0.0374    Z=              0.0000  Tot=              0.7088
 Quadrupole moment (field-independent basis, Debye-Ang):
   XX=            -20.5724   YY=            -23.0194   ZZ=            -18.8913
   XY=             -0.6564   XZ=              0.0000   YZ=              0.0000

 058\MP4SDQ=-299.6683119\CCSD=-299.6657238\CCSD(T)=-299.7031489\RMSD=8.
 Normal termination of Gaussian 16 at Tue Feb 13 12:23:08 2024.
