 Gaussian 16, Revision A.03,
 Gaussian 16:  ES64L-G16RevA.03 25-Dec-2016

 --------------------
 #p ROCCSD(T)/cc-pVTZ
 --------------------

 --------
 O2_O2_16
 --------
 Symbolic Z-matrix:
 Charge =  0 Multiplicity = 5

                         Standard orientation:
 ---------------------------------------------------------------------
 Center     Atomic      Atomic             Coordinates (Angstroms)
 Number     Number       Type             X           Y           Z
 ---------------------------------------------------------------------
      1          8           0        0.615183   -1.505183    0.000000
      2          8           0       -0.205061   -0.684939    0.000000
      3          8           0       -0.205061    0.515061   -0.000000
      4          8           0       -0.205061    1.675061   -0.000000
 ---------------------------------------------------------------------

 SCF Done:  E(ROHF) =  -298.845538885     A.U. after   22 cycles
 E2 =    -0.9238156519D+00 EUMP2 =    -0.29976935453674D+03
 CCSD(T)
 CCSD(T)= -0.29979002821D+03

 The electronic state is 5-A'.
 Alpha  occ. eigenvalues --  -20.80022 -20.75079 -20.69095 -20.65994  -1.88365
 Alpha  occ. eigenvalues --   -1.72879  -1.47237  -1.06900  -0.95219  -0.94251
 Alpha  occ. eigenvalues --   -0.90450  -0.80000  -0.76451  -0.60621  -0.58025
 Alpha  occ. eigenvalues --   -0.50692  -0.42745  -0.30740
 Alpha virt. eigenvalues --    0.44738   0.51541   0.63132   0.63344   0.63874
 Alpha virt. eigenvalues --    0.67217   0.71425   0.74673   0.78596   0.81537
 Alpha virt. eigenvalues --    0.81829   0.86600   0.92350   0.97131   1.05978

 Mulliken charges and spin densities:
               1          2
     1  O   -0.145844   0.879792
     2  O   -0.003796   0.646878
     3  O    0.130213   1.155983
     4  O    0.019427   1.317346
 Sum of Mulliken charges =   0.00000   4.00000

 Dipole moment (field-independent basis, Debye):
    X=             -0.2945    Y=              1.4100    Z=             -0.0000  Tot=              1.4404
 Quadrupole moment (field-independent basis, Debye-Ang):
   XX=            -20.5330   YY=            -23.2437   ZZ=            -18.9851
   XY=              0.6960   XZ=             -0.0000   YZ=              0.0000

 389\PMP2-0=-299.7693545\MP4SDQ=-299.7558572\CCSD=-299.7520122\CCSD(T)=
 Normal termination of Gaussian 16 at Tue Feb 13 12:27:22 2024.
