 Gaussian 16, Revision A.03,
 Gaussian 16:  ES64L-G16RevA.03 25-Dec-2016

 --------------------
 #p ROCCSD(T)/cc-pVTZ
 --------------------

 --------
 O2_O2_38
 --------
 Symbolic Z-matrix:
 Charge =  0 Multiplicity = 5

                         Standard orientation:
 ---------------------------------------------------------------------
 Center     Atomic      Atomic             Coordinates (Angstroms)
 Number     Number       Type             X           Y           Z
 ---------------------------------------------------------------------
      1          8           0       -0.870000   -1.030000    0.000000
      2          8           0        0.290000   -1.030000    0.000000
      3          8           0        0.290000    0.450000    0.000000
      4          8           0        0.290000    1.610000    0.000000
 ---------------------------------------------------------------------

 SCF Done:  E(ROHF) =  -299.092924825     A.U. after   21 cycles
 E2 =    -0.9086409726D+00 EUMP2 =    -0.30000156579715D+03
 CCSD(T)
 CCSD(T)= -0.30003091851D+03

 The electronic state is 5-A'.
 Alpha  occ. eigenvalues --  -20.74871 -20.74182 -20.72407 -20.67335  -1.81127
 Alpha  occ. eigenvalues --   -1.72774  -1.29180  -1.12846  -0.92763  -0.89014
 Alpha  occ. eigenvalues --   -0.86615  -0.80834  -0.76371  -0.63860  -0.54577
 Alpha  occ. eigenvalues --   -0.53843  -0.47704  -0.44103
 Alpha virt. eigenvalues --    0.41353   0.46485   0.62013   0.64561   0.67742
 Alpha virt. eigenvalues --    0.70026   0.72542   0.73936   0.78894   0.79650
 Alpha virt. eigenvalues --    0.81928   0.85838   0.87201   0.98675   0.99862

 Mulliken charges and spin densities:
               1          2
     1  O   -0.114720   0.845965
     2  O    0.069219   1.044690
     3  O    0.079138   1.059141
     4  O   -0.033637   1.050204
 Sum of Mulliken charges =  -0.00000   4.00000

 Dipole moment (field-independent basis, Debye):
    X=              0.6277    Y=              0.4714    Z=              0.0000  Tot=              0.7850
 Quadrupole moment (field-independent basis, Debye-Ang):
   XX=            -20.6744   YY=            -21.5098   ZZ=            -19.3276
   XY=             -0.5643   XZ=              0.0000   YZ=              0.0000

 658\MP4SDQ=-299.9958195\CCSD=-299.994397\CCSD(T)=-300.0309185\RMSD=3.6
 Normal termination of Gaussian 16 at Tue Feb 13 13:13:45 2024.
