 Gaussian 16, Revision A.03,
 Gaussian 16:  ES64L-G16RevA.03 25-Dec-2016

 --------------------
 #p ROCCSD(T)/cc-pVTZ
 --------------------

 ---------
 O2_O2_236
 ---------
 Symbolic Z-matrix:
 Charge =  0 Multiplicity = 5

                         Standard orientation:
 ---------------------------------------------------------------------
 Center     Atomic      Atomic             Coordinates (Angstroms)
 Number     Number       Type             X           Y           Z
 ---------------------------------------------------------------------
      1          8           0       -0.870000   -2.350000    0.000000
      2          8           0        0.290000   -2.350000    0.000000
      3          8           0        0.290000    1.770000    0.000000
      4          8           0        0.290000    2.930000    0.000000
 ---------------------------------------------------------------------

 SCF Done:  E(ROHF) =  -299.316634887     A.U. after   16 cycles
 E2 =    -0.9224006175D+00 EUMP2 =    -0.30023903550443D+03
 CCSD(T)
 CCSD(T)= -0.30024979431D+03

 The electronic state is 5-A'.
 Alpha  occ. eigenvalues --  -20.74087 -20.74010 -20.74003 -20.73927  -1.74584
 Alpha  occ. eigenvalues --   -1.74500  -1.17131  -1.17045  -0.83864  -0.83864
 Alpha  occ. eigenvalues --   -0.83780  -0.83776  -0.78217  -0.78123  -0.51067
 Alpha  occ. eigenvalues --   -0.51061  -0.50976  -0.50966
 Alpha virt. eigenvalues --    0.40832   0.41591   0.66316   0.67785   0.67943
 Alpha virt. eigenvalues --    0.68176   0.72066   0.73170   0.77647   0.78203
 Alpha virt. eigenvalues --    0.79477   0.79611   0.79928   0.81100   0.86985

 Mulliken charges and spin densities:
               1          2
     1  O   -0.000138   0.999871
     2  O    0.000250   1.000118
     3  O   -0.000725   0.999395
     4  O    0.000614   1.000616
 Sum of Mulliken charges =  -0.00000   4.00000

 Dipole moment (field-independent basis, Debye):
    X=              0.0015    Y=              0.0044    Z=              0.0000  Tot=              0.0046
 Quadrupole moment (field-independent basis, Debye-Ang):
   XX=            -20.2386   YY=            -20.2214   ZZ=            -19.6382
   XY=             -0.0003   XZ=              0.0000   YZ=              0.0000

 355\MP4SDQ=-300.2209912\CCSD=-300.2145193\CCSD(T)=-300.2497943\RMSD=2.
 Normal termination of Gaussian 16 at Tue Feb 13 18:46:03 2024.
