 Gaussian 16, Revision A.03,
 Gaussian 16:  ES64L-G16RevA.03 25-Dec-2016

 --------------------
 #p ROCCSD(T)/cc-pVTZ
 --------------------

 -------
 O2_O2_9
 -------
 Symbolic Z-matrix:
 Charge =  0 Multiplicity = 5

                         Standard orientation:
 ---------------------------------------------------------------------
 Center     Atomic      Atomic             Coordinates (Angstroms)
 Number     Number       Type             X           Y           Z
 ---------------------------------------------------------------------
      1          8           0        0.000000    0.000000    1.720000
      2          8           0        0.000000    0.000000    0.560000
      3          8           0        0.000000    0.000000   -0.560000
      4          8           0        0.000000    0.000000   -1.720000
 ---------------------------------------------------------------------

 SCF Done:  E(ROHF) =  -298.716190852     A.U. after   13 cycles
 E2 =    -0.9223927237D+00 EUMP2 =    -0.29963858357539D+03
 CCSD(T)
 CCSD(T)= -0.29966682845D+03

 Unable to determine electronic state:  an orbital has unidentified symmetry.
 Alpha  occ. eigenvalues --  -20.77222 -20.77169 -20.68131 -20.68129  -1.92392
 Alpha  occ. eigenvalues --   -1.72652  -1.53250  -1.03312  -0.98144  -0.98143
 Alpha  occ. eigenvalues --   -0.90360  -0.80127  -0.77729  -0.60769  -0.55938
 Alpha  occ. eigenvalues --   -0.42127  -0.40098  -0.34479
 Alpha virt. eigenvalues --    0.38864   0.49827   0.57421   0.62895   0.63650
 Alpha virt. eigenvalues --    0.67053   0.71225   0.73646   0.81806   0.82910
 Alpha virt. eigenvalues --    0.83513   0.98554   0.98990   1.10324   1.10793

 Mulliken charges and spin densities:
               1          2
     1  O   -0.103694   0.987870
     2  O    0.103694   1.012130
     3  O    0.103694   1.012130
     4  O   -0.103694   0.987870
 Sum of Mulliken charges =  -0.00000   4.00000

 Dipole moment (field-independent basis, Debye):
    X=             -0.0000    Y=             -0.0000    Z=             -0.0000  Tot=              0.0000
 Quadrupole moment (field-independent basis, Debye-Ang):
   XX=            -19.8020   YY=            -18.7198   ZZ=            -25.6999
   XY=              0.0000   XZ=              0.0000   YZ=             -0.0000

 299.6290033\CCSD=-299.627088\CCSD(T)=-299.6668284\RMSD=2.987e-09\PG=D*
 Normal termination of Gaussian 16 at Tue Feb 13 12:13:00 2024.
