 Gaussian 16, Revision A.03,
 Gaussian 16:  ES64L-G16RevA.03 25-Dec-2016

 --------------------
 #p ROCCSD(T)/cc-pVTZ
 --------------------

 ---------
 O2_O2_241
 ---------
 Symbolic Z-matrix:
 Charge =  0 Multiplicity = 5

                         Standard orientation:
 ---------------------------------------------------------------------
 Center     Atomic      Atomic             Coordinates (Angstroms)
 Number     Number       Type             X           Y           Z
 ---------------------------------------------------------------------
      1          8           0        0.615183   -3.005183    0.000000
      2          8           0       -0.205061   -2.184939   -0.000000
      3          8           0       -0.205061    2.015061   -0.000000
      4          8           0       -0.205061    3.175061   -0.000000
 ---------------------------------------------------------------------

 SCF Done:  E(ROHF) =  -299.316612889     A.U. after   13 cycles
 E2 =    -0.9223735715D+00 EUMP2 =    -0.30023898646008D+03
 CCSD(T)
 CCSD(T)= -0.30024974630D+03

 The electronic state is 5-A'.
 Alpha  occ. eigenvalues --  -20.74032 -20.74013 -20.73955 -20.73936  -1.74531
 Alpha  occ. eigenvalues --   -1.74511  -1.17078  -1.17050  -0.83811  -0.83811
 Alpha  occ. eigenvalues --   -0.83791  -0.83789  -0.78177  -0.78112  -0.51010
 Alpha  occ. eigenvalues --   -0.51007  -0.50982  -0.50982
 Alpha virt. eigenvalues --    0.39440   0.43085   0.67561   0.67902   0.67997
 Alpha virt. eigenvalues --    0.68103   0.70335   0.73329   0.76853   0.78589
 Alpha virt. eigenvalues --    0.79465   0.79848   0.80118   0.81871   0.87051

 Mulliken charges and spin densities:
               1          2
     1  O   -0.000430   0.999448
     2  O    0.000485   1.000517
     3  O    0.000173   1.000395
     4  O   -0.000228   0.999641
 Sum of Mulliken charges =  -0.00000   4.00000

 Dipole moment (field-independent basis, Debye):
    X=             -0.0026    Y=             -0.0004    Z=             -0.0000  Tot=              0.0027
 Quadrupole moment (field-independent basis, Debye-Ang):
   XX=            -19.9390   YY=            -20.5632   ZZ=            -19.6383
   XY=              0.3043   XZ=             -0.0000   YZ=              0.0000

 6129\PMP2-0=-300.2389865\MP4SDQ=-300.2209507\CCSD=-300.214474\CCSD(T)=
 Normal termination of Gaussian 16 at Tue Feb 13 18:55:14 2024.
