 Gaussian 16, Revision A.03,
 Gaussian 16:  ES64L-G16RevA.03 25-Dec-2016

 --------------------
 #p ROCCSD(T)/cc-pVTZ
 --------------------

 ---------
 O2_O2_292
 ---------
 Symbolic Z-matrix:
 Charge =  0 Multiplicity = 5

                         Standard orientation:
 ---------------------------------------------------------------------
 Center     Atomic      Atomic             Coordinates (Angstroms)
 Number     Number       Type             X           Y           Z
 ---------------------------------------------------------------------
      1          8           0        0.615183   -3.345183    0.000000
      2          8           0       -0.205061   -2.524939   -0.000000
      3          8           0       -0.205061    2.355061   -0.000000
      4          8           0       -0.205061    3.515061   -0.000000
 ---------------------------------------------------------------------

 SCF Done:  E(ROHF) =  -299.316590748     A.U. after   16 cycles
 E2 =    -0.9222964151D+00 EUMP2 =    -0.30023888716315D+03
 CCSD(T)
 CCSD(T)= -0.30024966189D+03

 The electronic state is 5-A'.
 Alpha  occ. eigenvalues --  -20.74038 -20.74021 -20.73962 -20.73944  -1.74538
 Alpha  occ. eigenvalues --   -1.74520  -1.17082  -1.17064  -0.83818  -0.83818
 Alpha  occ. eigenvalues --   -0.83800  -0.83799  -0.78164  -0.78143  -0.51013
 Alpha  occ. eigenvalues --   -0.51012  -0.50995  -0.50994
 Alpha virt. eigenvalues --    0.40964   0.41861   0.67982   0.67982   0.68002
 Alpha virt. eigenvalues --    0.68013   0.71729   0.72342   0.77682   0.78279
 Alpha virt. eigenvalues --    0.79736   0.79767   0.79823   0.79896   0.87047

 Mulliken charges and spin densities:
               1          2
     1  O   -0.000365   0.999600
     2  O    0.000368   1.000398
     3  O    0.000187   1.000216
     4  O   -0.000190   0.999786
 Sum of Mulliken charges =  -0.00000   4.00000

 Dipole moment (field-independent basis, Debye):
    X=             -0.0018    Y=              0.0006    Z=             -0.0000  Tot=              0.0019
 Quadrupole moment (field-independent basis, Debye-Ang):
   XX=            -19.9387   YY=            -20.5587   ZZ=            -19.6382
   XY=              0.3034   XZ=             -0.0000   YZ=              0.0000

 Normal termination of Gaussian 16 at Tue Feb 13 20:36:30 2024.
