 Gaussian 16, Revision A.03,
 Gaussian 16:  ES64L-G16RevA.03 25-Dec-2016

 --------------------
 #p ROCCSD(T)/cc-pVTZ
 --------------------

 --------
 O2_O2_76
 --------
 Symbolic Z-matrix:
 Charge =  0 Multiplicity = 5

                         Standard orientation:
 ---------------------------------------------------------------------
 Center     Atomic      Atomic             Coordinates (Angstroms)
 Number     Number       Type             X           Y           Z
 ---------------------------------------------------------------------
      1          8           0        0.615183   -1.905183    0.000000
      2          8           0       -0.205061   -1.084939    0.000000
      3          8           0       -0.205061    0.915062    0.000000
      4          8           0       -0.205061    2.075060    0.000000
 ---------------------------------------------------------------------

 SCF Done:  E(ROHF) =  -299.285289010     A.U. after   22 cycles
 E2 =    -0.9261715114D+00 EUMP2 =    -0.30021146052187D+03
 CCSD(T)
 CCSD(T)= -0.30022323092D+03

 The electronic state is 5-A'.
 Alpha  occ. eigenvalues --  -20.73903 -20.73228 -20.73026 -20.72828  -1.74784
 Alpha  occ. eigenvalues --   -1.73804  -1.20433  -1.14425  -0.85068  -0.84281
 Alpha  occ. eigenvalues --   -0.83710  -0.82828  -0.80460  -0.73498  -0.52201
 Alpha  occ. eigenvalues --   -0.51409  -0.49491  -0.49237
 Alpha virt. eigenvalues --    0.42920   0.47378   0.63946   0.64175   0.70471
 Alpha virt. eigenvalues --    0.70865   0.72440   0.75198   0.76780   0.78427
 Alpha virt. eigenvalues --    0.79133   0.85737   0.91832   0.92633   0.94214

 Mulliken charges and spin densities:
               1          2
     1  O   -0.021418   0.978910
     2  O    0.017707   1.018119
     3  O    0.018589   0.984866
     4  O   -0.014877   1.018105
 Sum of Mulliken charges =   0.00000   4.00000

 Dipole moment (field-independent basis, Debye):
    X=             -0.0777    Y=              0.1551    Z=             -0.0000  Tot=              0.1735
 Quadrupole moment (field-independent basis, Debye-Ang):
   XX=            -20.0070   YY=            -21.0993   ZZ=            -19.6103
   XY=              0.4267   XZ=              0.0000   YZ=             -0.0000

 9\PMP2-0=-300.2114605\MP4SDQ=-300.1935547\CCSD=-300.1873018\CCSD(T)=-3
 Normal termination of Gaussian 16 at Tue Feb 13 14:26:34 2024.
