 Gaussian 16, Revision A.03,
 Gaussian 16:  ES64L-G16RevA.03 25-Dec-2016

 --------------------
 #p ROCCSD(T)/cc-pVTZ
 --------------------

 ---------
 O2_O2_240
 ---------
 Symbolic Z-matrix:
 Charge =  0 Multiplicity = 5

                         Standard orientation:
 ---------------------------------------------------------------------
 Center     Atomic      Atomic             Coordinates (Angstroms)
 Number     Number       Type             X           Y           Z
 ---------------------------------------------------------------------
      1          8           0        0.000000    0.000000    3.260000
      2          8           0        0.000000    0.000000    2.100000
      3          8           0        0.000000    0.000000   -2.100000
      4          8           0        0.000000    0.000000   -3.260000
 ---------------------------------------------------------------------

 SCF Done:  E(ROHF) =  -299.316603542     A.U. after   11 cycles
 E2 =    -0.9223778420D+00 EUMP2 =    -0.30023898138394D+03
 CCSD(T)
 CCSD(T)= -0.30024973778D+03

 The electronic state is 5-SGG.
 Alpha  occ. eigenvalues --  -20.74012 -20.74012 -20.73934 -20.73934  -1.74512
 Alpha  occ. eigenvalues --   -1.74511  -1.17063  -1.17044  -0.83793  -0.83793
 Alpha  occ. eigenvalues --   -0.83789  -0.83789  -0.78172  -0.78094  -0.50995
 Alpha  occ. eigenvalues --   -0.50995  -0.50975  -0.50975
 Alpha virt. eigenvalues --    0.38419   0.43991   0.67915   0.67915   0.68109
 Alpha virt. eigenvalues --    0.68109   0.69354   0.73812   0.76848   0.79463
 Alpha virt. eigenvalues --    0.79463   0.80142   0.80142   0.81013   0.87068

 Mulliken charges and spin densities:
               1          2
     1  O   -0.000425   0.999350
     2  O    0.000425   1.000650
     3  O    0.000425   1.000650
     4  O   -0.000425   0.999350
 Sum of Mulliken charges =  -0.00000   4.00000

 Dipole moment (field-independent basis, Debye):
    X=             -0.0000    Y=             -0.0000    Z=             -0.0000  Tot=              0.0000
 Quadrupole moment (field-independent basis, Debye-Ang):
   XX=            -19.6384   YY=            -19.6384   ZZ=            -20.8813
   XY=              0.0000   XZ=              0.0000   YZ=              0.0000

 9814\MP4SDQ=-300.2209448\CCSD=-300.2144652\CCSD(T)=-300.2497378\RMSD=6
 Normal termination of Gaussian 16 at Tue Feb 13 18:53:03 2024.
