 Gaussian 16, Revision A.03,
 Gaussian 16:  ES64L-G16RevA.03 25-Dec-2016

 --------------------
 #p ROCCSD(T)/cc-pVTZ
 --------------------

 ---------
 O2_O2_244
 ---------
 Symbolic Z-matrix:
 Charge =  0 Multiplicity = 5

                         Standard orientation:
 ---------------------------------------------------------------------
 Center     Atomic      Atomic             Coordinates (Angstroms)
 Number     Number       Type             X           Y           Z
 ---------------------------------------------------------------------
      1          8           0        0.615183   -3.025183    0.000000
      2          8           0       -0.205061   -2.204939   -0.000000
      3          8           0       -0.205061    2.035061   -0.000000
      4          8           0       -0.205061    3.195061   -0.000000
 ---------------------------------------------------------------------

 SCF Done:  E(ROHF) =  -299.316610631     A.U. after   13 cycles
 E2 =    -0.9223658245D+00 EUMP2 =    -0.30023897645515D+03
 CCSD(T)
 CCSD(T)= -0.30024973766D+03

 The electronic state is 5-A'.
 Alpha  occ. eigenvalues --  -20.74032 -20.74013 -20.73956 -20.73936  -1.74532
 Alpha  occ. eigenvalues --   -1.74511  -1.17078  -1.17052  -0.83812  -0.83812
 Alpha  occ. eigenvalues --   -0.83791  -0.83789  -0.78175  -0.78115  -0.51009
 Alpha  occ. eigenvalues --   -0.51007  -0.50983  -0.50983
 Alpha virt. eigenvalues --    0.39575   0.42988   0.67636   0.67912   0.67999
 Alpha virt. eigenvalues --    0.68093   0.70451   0.73251   0.76902   0.78592
 Alpha virt. eigenvalues --    0.79497   0.79833   0.80083   0.81612   0.87051

 Mulliken charges and spin densities:
               1          2
     1  O   -0.000434   0.999457
     2  O    0.000482   1.000512
     3  O    0.000186   1.000379
     4  O   -0.000234   0.999652
 Sum of Mulliken charges =  -0.00000   4.00000

 Dipole moment (field-independent basis, Debye):
    X=             -0.0026    Y=             -0.0003    Z=             -0.0000  Tot=              0.0026
 Quadrupole moment (field-independent basis, Debye-Ang):
   XX=            -19.9390   YY=            -20.5631   ZZ=            -19.6383
   XY=              0.3042   XZ=             -0.0000   YZ=              0.0000

 Normal termination of Gaussian 16 at Tue Feb 13 19:01:09 2024.
