 Gaussian 16, Revision A.03,
 Gaussian 16:  ES64L-G16RevA.03 25-Dec-2016

 --------------------
 #p ROCCSD(T)/cc-pVTZ
 --------------------

 ---------
 O2_O2_273
 ---------
 Symbolic Z-matrix:
 Charge =  0 Multiplicity = 5

                         Standard orientation:
 ---------------------------------------------------------------------
 Center     Atomic      Atomic             Coordinates (Angstroms)
 Number     Number       Type             X           Y           Z
 ---------------------------------------------------------------------
      1          8           0        0.000000    0.000000    3.480000
      2          8           0        0.000000    0.000000    2.320000
      3          8           0        0.000000    0.000000   -2.320000
      4          8           0        0.000000    0.000000   -3.480000
 ---------------------------------------------------------------------

 SCF Done:  E(ROHF) =  -299.316590840     A.U. after   11 cycles
 E2 =    -0.9223172735D+00 EUMP2 =    -0.30023890811371D+03
 CCSD(T)
 CCSD(T)= -0.30024967700D+03

 The electronic state is 5-SGG.
 Alpha  occ. eigenvalues --  -20.74019 -20.74019 -20.73942 -20.73942  -1.74518
 Alpha  occ. eigenvalues --   -1.74518  -1.17064  -1.17059  -0.83799  -0.83799
 Alpha  occ. eigenvalues --   -0.83797  -0.83797  -0.78155  -0.78128  -0.50995
 Alpha  occ. eigenvalues --   -0.50995  -0.50990  -0.50990
 Alpha virt. eigenvalues --    0.40184   0.42588   0.67981   0.67981   0.68034
 Alpha virt. eigenvalues --    0.68034   0.71137   0.72817   0.77327   0.78972
 Alpha virt. eigenvalues --    0.79697   0.79697   0.79886   0.79886   0.87066

 Mulliken charges and spin densities:
               1          2
     1  O   -0.000437   0.999500
     2  O    0.000437   1.000500
     3  O    0.000437   1.000500
     4  O   -0.000437   0.999500
 Sum of Mulliken charges =  -0.00000   4.00000

 Dipole moment (field-independent basis, Debye):
    X=             -0.0000    Y=             -0.0000    Z=              0.0000  Tot=              0.0000
 Quadrupole moment (field-independent basis, Debye-Ang):
   XX=            -19.6383   YY=            -19.6383   ZZ=            -20.8751
   XY=              0.0000   XZ=              0.0000   YZ=              0.0000

 9081\MP4SDQ=-300.2208854\CCSD=-300.2144106\CCSD(T)=-300.249677\RMSD=5.
 Normal termination of Gaussian 16 at Tue Feb 13 19:58:19 2024.
