 Gaussian 16, Revision A.03,
 Gaussian 16:  ES64L-G16RevA.03 25-Dec-2016

 --------------------
 #p ROCCSD(T)/cc-pVTZ
 --------------------

 ---------
 O2_O2_138
 ---------
 Symbolic Z-matrix:
 Charge =  0 Multiplicity = 5

                         Standard orientation:
 ---------------------------------------------------------------------
 Center     Atomic      Atomic             Coordinates (Angstroms)
 Number     Number       Type             X           Y           Z
 ---------------------------------------------------------------------
      1          8           0        0.000000    0.000000    2.580000
      2          8           0        0.000000    0.000000    1.420000
      3          8           0        0.000000    0.000000   -1.420000
      4          8           0        0.000000    0.000000   -2.580000
 ---------------------------------------------------------------------

 SCF Done:  E(ROHF) =  -299.315769838     A.U. after   12 cycles
 E2 =    -0.9233715612D+00 EUMP2 =    -0.30023914139942D+03
 CCSD(T)
 CCSD(T)= -0.30024977155D+03

 The electronic state is 5-SGG.
 Alpha  occ. eigenvalues --  -20.73924 -20.73924 -20.73847 -20.73847  -1.74470
 Alpha  occ. eigenvalues --   -1.74418  -1.17376  -1.16630  -0.83799  -0.83799
 Alpha  occ. eigenvalues --   -0.83646  -0.83646  -0.78887  -0.77243  -0.51161
 Alpha  occ. eigenvalues --   -0.51161  -0.50667  -0.50667
 Alpha virt. eigenvalues --    0.38072   0.47875   0.65776   0.65776   0.66035
 Alpha virt. eigenvalues --    0.69256   0.69256   0.75557   0.75993   0.75993
 Alpha virt. eigenvalues --    0.79332   0.85958   0.85958   0.86055   0.87003

 Mulliken charges and spin densities:
               1          2
     1  O   -0.004297   0.998716
     2  O    0.004297   1.001284
     3  O    0.004297   1.001284
     4  O   -0.004297   0.998716
 Sum of Mulliken charges =  -0.00000   4.00000

 Dipole moment (field-independent basis, Debye):
    X=             -0.0000    Y=              0.0000    Z=             -0.0000  Tot=              0.0000
 Quadrupole moment (field-independent basis, Debye-Ang):
   XX=            -19.6387   YY=            -19.6387   ZZ=            -20.9616
   XY=              0.0000   XZ=              0.0000   YZ=              0.0000

 414\MP4SDQ=-300.2209322\CCSD=-300.2143831\CCSD(T)=-300.2497715\RMSD=9.
 Normal termination of Gaussian 16 at Tue Feb 13 16:09:56 2024.
