 Gaussian 16, Revision A.03,
 Gaussian 16:  ES64L-G16RevA.03 25-Dec-2016

 --------------------
 #p ROCCSD(T)/cc-pVTZ
 --------------------

 ---------
 O2_O2_113
 ---------
 Symbolic Z-matrix:
 Charge =  0 Multiplicity = 5

                         Standard orientation:
 ---------------------------------------------------------------------
 Center     Atomic      Atomic             Coordinates (Angstroms)
 Number     Number       Type             X           Y           Z
 ---------------------------------------------------------------------
      1          8           0       -0.870000   -1.530000    0.000000
      2          8           0        0.290000   -1.530000    0.000000
      3          8           0        0.290000    0.950000    0.000000
      4          8           0        0.290000    2.110000    0.000000
 ---------------------------------------------------------------------

 SCF Done:  E(ROHF) =  -299.311230530     A.U. after   22 cycles
 E2 =    -0.9245399780D+00 EUMP2 =    -0.30023577050755D+03
 CCSD(T)
 CCSD(T)= -0.30024654301D+03

 The electronic state is 5-A'.
 Alpha  occ. eigenvalues --  -20.74137 -20.73892 -20.73795 -20.73554  -1.74731
 Alpha  occ. eigenvalues --   -1.74240  -1.17641  -1.16625  -0.84498  -0.84096
 Alpha  occ. eigenvalues --   -0.83789  -0.83413  -0.78478  -0.77097  -0.51734
 Alpha  occ. eigenvalues --   -0.51258  -0.50639  -0.50189
 Alpha virt. eigenvalues --    0.40908   0.43914   0.63656   0.64555   0.67914
 Alpha virt. eigenvalues --    0.70407   0.71623   0.73872   0.74291   0.77657
 Alpha virt. eigenvalues --    0.78886   0.81119   0.84084   0.86660   0.94000

 Mulliken charges and spin densities:
               1          2
     1  O   -0.004140   0.990719
     2  O    0.004571   1.009237
     3  O    0.002144   0.994304
     4  O   -0.002575   1.005740
 Sum of Mulliken charges =  -0.00000   4.00000

 Dipole moment (field-independent basis, Debye):
    X=              0.0450    Y=              0.0517    Z=              0.0000  Tot=              0.0685
 Quadrupole moment (field-independent basis, Debye-Ang):
   XX=            -20.2618   YY=            -20.3605   ZZ=            -19.6359
   XY=             -0.0557   XZ=              0.0000   YZ=              0.0000

 7705\MP4SDQ=-300.2173953\CCSD=-300.2109522\CCSD(T)=-300.246543\RMSD=4.
 Normal termination of Gaussian 16 at Tue Feb 13 15:30:57 2024.
