 Gaussian 16, Revision A.03,
 Gaussian 16:  ES64L-G16RevA.03 25-Dec-2016

 --------------------
 #p ROCCSD(T)/cc-pVTZ
 --------------------

 ---------
 O2_O2_206
 ---------
 Symbolic Z-matrix:
 Charge =  0 Multiplicity = 5

                         Standard orientation:
 ---------------------------------------------------------------------
 Center     Atomic      Atomic             Coordinates (Angstroms)
 Number     Number       Type             X           Y           Z
 ---------------------------------------------------------------------
      1          8           0       -0.870000   -2.150000    0.000000
      2          8           0        0.290000   -2.150000    0.000000
      3          8           0        0.290000    1.570000    0.000000
      4          8           0        0.290000    2.730000    0.000000
 ---------------------------------------------------------------------

 SCF Done:  E(ROHF) =  -299.316668305     A.U. after   16 cycles
 E2 =    -0.9225541039D+00 EUMP2 =    -0.30023922240930D+03
 CCSD(T)
 CCSD(T)= -0.30024996116D+03

 The electronic state is 5-A'.
 Alpha  occ. eigenvalues --  -20.74098 -20.74020 -20.73995 -20.73919  -1.74594
 Alpha  occ. eigenvalues --   -1.74489  -1.17144  -1.17033  -0.83876  -0.83875
 Alpha  occ. eigenvalues --   -0.83769  -0.83764  -0.78245  -0.78094  -0.51099
 Alpha  occ. eigenvalues --   -0.51072  -0.50966  -0.50932
 Alpha virt. eigenvalues --    0.40018   0.41676   0.64030   0.67435   0.67804
 Alpha virt. eigenvalues --    0.68468   0.72062   0.74361   0.76992   0.78232
 Alpha virt. eigenvalues --    0.79409   0.80034   0.80206   0.82947   0.86945

 Mulliken charges and spin densities:
               1          2
     1  O   -0.000188   0.999832
     2  O    0.000478   1.000143
     3  O   -0.001402   0.999171
     4  O    0.001112   1.000854
 Sum of Mulliken charges =  -0.00000   4.00000

 Dipole moment (field-independent basis, Debye):
    X=              0.0022    Y=              0.0047    Z=              0.0000  Tot=              0.0052
 Quadrupole moment (field-independent basis, Debye-Ang):
   XX=            -20.2387   YY=            -20.2138   ZZ=            -19.6382
   XY=             -0.0001   XZ=              0.0000   YZ=              0.0000

 2224\MP4SDQ=-300.2211444\CCSD=-300.2146676\CCSD(T)=-300.2499612\RMSD=3
 Normal termination of Gaussian 16 at Tue Feb 13 17:53:53 2024.
