 Gaussian 16, Revision A.03,
 Gaussian 16:  ES64L-G16RevA.03 25-Dec-2016

 --------------------
 #p ROCCSD(T)/cc-pVTZ
 --------------------

 ---------
 O2_O2_112
 ---------
 Symbolic Z-matrix:
 Charge =  0 Multiplicity = 5

                         Standard orientation:
 ---------------------------------------------------------------------
 Center     Atomic      Atomic             Coordinates (Angstroms)
 Number     Number       Type             X           Y           Z
 ---------------------------------------------------------------------
      1          8           0        0.615183   -2.145183    0.000000
      2          8           0       -0.205061   -1.324939    0.000000
      3          8           0       -0.205061    1.155061   -0.000000
      4          8           0       -0.205061    2.315061   -0.000000
 ---------------------------------------------------------------------

 SCF Done:  E(ROHF) =  -299.312178343     A.U. after   22 cycles
 E2 =    -0.9243478761D+00 EUMP2 =    -0.30023652621892D+03
 CCSD(T)
 CCSD(T)= -0.30024706671D+03

 The electronic state is 5-A'.
 Alpha  occ. eigenvalues --  -20.73906 -20.73782 -20.73752 -20.73648  -1.74520
 Alpha  occ. eigenvalues --   -1.74284  -1.17921  -1.16163  -0.83963  -0.83889
 Alpha  occ. eigenvalues --   -0.83616  -0.83463  -0.79380  -0.76530  -0.51381
 Alpha  occ. eigenvalues --   -0.51137  -0.50537  -0.50356
 Alpha virt. eigenvalues --    0.40763   0.46313   0.64379   0.64449   0.68423
 Alpha virt. eigenvalues --    0.69853   0.71167   0.74930   0.75876   0.77833
 Alpha virt. eigenvalues --    0.79825   0.84408   0.86318   0.88398   0.88599

 Mulliken charges and spin densities:
               1          2
     1  O   -0.005719   0.993895
     2  O    0.005835   1.006192
     3  O    0.007573   0.998150
     4  O   -0.007690   1.001763
 Sum of Mulliken charges =  -0.00000   4.00000

 Dipole moment (field-independent basis, Debye):
    X=             -0.0254    Y=              0.0322    Z=             -0.0000  Tot=              0.0411
 Quadrupole moment (field-independent basis, Debye-Ang):
   XX=            -19.9580   YY=            -20.7649   ZZ=            -19.6376
   XY=              0.3424   XZ=              0.0000   YZ=              0.0000

 Normal termination of Gaussian 16 at Tue Feb 13 15:29:13 2024.
