 Gaussian 16, Revision A.03,
 Gaussian 16:  ES64L-G16RevA.03 25-Dec-2016

 --------------------
 #p ROCCSD(T)/cc-pVTZ
 --------------------

 ---------
 O2_O2_163
 ---------
 Symbolic Z-matrix:
 Charge =  0 Multiplicity = 5

                         Standard orientation:
 ---------------------------------------------------------------------
 Center     Atomic      Atomic             Coordinates (Angstroms)
 Number     Number       Type             X           Y           Z
 ---------------------------------------------------------------------
      1          8           0        0.615183   -2.485183   -0.000000
      2          8           0       -0.205061   -1.664939    0.000000
      3          8           0       -0.205061    1.495061    0.000000
      4          8           0       -0.205061    2.655061    0.000000
 ---------------------------------------------------------------------

 SCF Done:  E(ROHF) =  -299.316417597     A.U. after   16 cycles
 E2 =    -0.9229292892D+00 EUMP2 =    -0.30023934688645D+03
 CCSD(T)
 CCSD(T)= -0.30025004048D+03

 The electronic state is 5-A'.
 Alpha  occ. eigenvalues --  -20.74001 -20.73975 -20.73923 -20.73890  -1.74510
 Alpha  occ. eigenvalues --   -1.74469  -1.17188  -1.16881  -0.83808  -0.83806
 Alpha  occ. eigenvalues --   -0.83742  -0.83729  -0.78443  -0.77770  -0.51079
 Alpha  occ. eigenvalues --   -0.51025  -0.50890  -0.50846
 Alpha virt. eigenvalues --    0.37385   0.45223   0.63927   0.66698   0.67135
 Alpha virt. eigenvalues --    0.68899   0.69883   0.74693   0.77153   0.77239
 Alpha virt. eigenvalues --    0.77509   0.82129   0.83188   0.85893   0.87047

 Mulliken charges and spin densities:
               1          2
     1  O   -0.000803   0.998347
     2  O    0.001046   1.001492
     3  O   -0.000540   1.000825
     4  O    0.000298   0.999336
 Sum of Mulliken charges =  -0.00000   4.00000

 Dipole moment (field-independent basis, Debye):
    X=             -0.0076    Y=             -0.0004    Z=              0.0000  Tot=              0.0076
 Quadrupole moment (field-independent basis, Debye-Ang):
   XX=            -19.9411   YY=            -20.6032   ZZ=            -19.6386
   XY=              0.3122   XZ=              0.0000   YZ=             -0.0000

 4176\PMP2-0=-300.2393469\MP4SDQ=-300.2212068\CCSD=-300.2147\CCSD(T)=-3
 Normal termination of Gaussian 16 at Tue Feb 13 16:48:39 2024.
