 Gaussian 16, Revision A.03,
 Gaussian 16:  ES64L-G16RevA.03 25-Dec-2016

 --------------------
 #p ROCCSD(T)/cc-pVTZ
 --------------------

 ---------
 O2_O2_296
 ---------
 Symbolic Z-matrix:
 Charge =  0 Multiplicity = 5

                         Standard orientation:
 ---------------------------------------------------------------------
 Center     Atomic      Atomic             Coordinates (Angstroms)
 Number     Number       Type             X           Y           Z
 ---------------------------------------------------------------------
      1          8           0       -0.870000   -2.750000    0.000000
      2          8           0        0.290000   -2.750000    0.000000
      3          8           0        0.290000    2.170000    0.000000
      4          8           0        0.290000    3.330000    0.000000
 ---------------------------------------------------------------------

 SCF Done:  E(ROHF) =  -299.316597149     A.U. after   16 cycles
 E2 =    -0.9222946303D+00 EUMP2 =    -0.30023889177960D+03
 CCSD(T)
 CCSD(T)= -0.30024966883D+03

 The electronic state is 5-A'.
 Alpha  occ. eigenvalues --  -20.74073 -20.74016 -20.73996 -20.73940  -1.74571
 Alpha  occ. eigenvalues --   -1.74514  -1.17117  -1.17060  -0.83851  -0.83851
 Alpha  occ. eigenvalues --   -0.83795  -0.83794  -0.78199  -0.78141  -0.51047
 Alpha  occ. eigenvalues --   -0.51047  -0.50990  -0.50989
 Alpha virt. eigenvalues --    0.41333   0.41454   0.67936   0.67952   0.67988
 Alpha virt. eigenvalues --    0.68016   0.72027   0.72068   0.77932   0.78028
 Alpha virt. eigenvalues --    0.79675   0.79733   0.79794   0.79883   0.87015

 Mulliken charges and spin densities:
               1          2
     1  O   -0.000119   0.999873
     2  O    0.000123   1.000127
     3  O   -0.000318   0.999651
     4  O    0.000314   1.000349
 Sum of Mulliken charges =  -0.00000   4.00000

 Dipole moment (field-independent basis, Debye):
    X=              0.0010    Y=              0.0034    Z=              0.0000  Tot=              0.0035
 Quadrupole moment (field-independent basis, Debye-Ang):
   XX=            -20.2386   YY=            -20.2309   ZZ=            -19.6381
   XY=             -0.0010   XZ=              0.0000   YZ=              0.0000

 8918\MP4SDQ=-300.2208737\CCSD=-300.2144049\CCSD(T)=-300.2496688\RMSD=2
 Normal termination of Gaussian 16 at Tue Feb 13 20:44:12 2024.
