 Gaussian 16, Revision A.03,
 Gaussian 16:  ES64L-G16RevA.03 25-Dec-2016

 --------------------
 #p ROCCSD(T)/cc-pVTZ
 --------------------

 ---------
 O2_O2_259
 ---------
 Symbolic Z-matrix:
 Charge =  0 Multiplicity = 5

                         Standard orientation:
 ---------------------------------------------------------------------
 Center     Atomic      Atomic             Coordinates (Angstroms)
 Number     Number       Type             X           Y           Z
 ---------------------------------------------------------------------
      1          8           0        0.615183   -3.125183    0.000000
      2          8           0       -0.205061   -2.304939    0.000000
      3          8           0       -0.205061    2.135061   -0.000000
      4          8           0       -0.205061    3.295061   -0.000000
 ---------------------------------------------------------------------

 SCF Done:  E(ROHF) =  -299.316600880     A.U. after   16 cycles
 E2 =    -0.9223348171D+00 EUMP2 =    -0.30023893569754D+03
 CCSD(T)
 CCSD(T)= -0.30024970267D+03

 The electronic state is 5-A'.
 Alpha  occ. eigenvalues --  -20.74035 -20.74015 -20.73958 -20.73938  -1.74534
 Alpha  occ. eigenvalues --   -1.74514  -1.17078  -1.17056  -0.83814  -0.83814
 Alpha  occ. eigenvalues --   -0.83794  -0.83793  -0.78168  -0.78128  -0.51010
 Alpha  occ. eigenvalues --   -0.51009  -0.50988  -0.50987
 Alpha virt. eigenvalues --    0.40164   0.42544   0.67863   0.67950   0.68002
 Alpha virt. eigenvalues --    0.68053   0.71001   0.72886   0.77173   0.78554
 Alpha virt. eigenvalues --    0.79619   0.79788   0.79953   0.80652   0.87051

 Mulliken charges and spin densities:
               1          2
     1  O   -0.000433   0.999501
     2  O    0.000456   1.000484
     3  O    0.000215   1.000312
     4  O   -0.000238   0.999703
 Sum of Mulliken charges =   0.00000   4.00000

 Dipole moment (field-independent basis, Debye):
    X=             -0.0023    Y=              0.0003    Z=             -0.0000  Tot=              0.0023
 Quadrupole moment (field-independent basis, Debye-Ang):
   XX=            -19.9389   YY=            -20.5620   ZZ=            -19.6383
   XY=              0.3040   XZ=             -0.0000   YZ=              0.0000

 Normal termination of Gaussian 16 at Tue Feb 13 19:31:38 2024.
