 Gaussian 16, Revision A.03,
 Gaussian 16:  ES64L-G16RevA.03 25-Dec-2016

 --------------------
 #p ROCCSD(T)/cc-pVTZ
 --------------------

 --------
 O2_O2_96
 --------
 Symbolic Z-matrix:
 Charge =  0 Multiplicity = 5

                         Standard orientation:
 ---------------------------------------------------------------------
 Center     Atomic      Atomic             Coordinates (Angstroms)
 Number     Number       Type             X           Y           Z
 ---------------------------------------------------------------------
      1          8           0        0.000000    0.000000    2.300000
      2          8           0        0.000000    0.000000    1.140000
      3          8           0        0.000000    0.000000   -1.140000
      4          8           0        0.000000    0.000000   -2.300000
 ---------------------------------------------------------------------

 SCF Done:  E(ROHF) =  -299.307008418     A.U. after   11 cycles
 E2 =    -0.9254205047D+00 EUMP2 =    -0.30023242892283D+03
 CCSD(T)
 CCSD(T)= -0.30024266555D+03

 The electronic state is 5-SGG.
 Alpha  occ. eigenvalues --  -20.73713 -20.73713 -20.73478 -20.73477  -1.74452
 Alpha  occ. eigenvalues --   -1.74156  -1.18612  -1.15500  -0.83896  -0.83896
 Alpha  occ. eigenvalues --   -0.83267  -0.83267  -0.80604  -0.75169  -0.51601
 Alpha  occ. eigenvalues --   -0.51601  -0.49942  -0.49942
 Alpha virt. eigenvalues --    0.42299   0.48360   0.64225   0.64225   0.69957
 Alpha virt. eigenvalues --    0.69957   0.70625   0.75342   0.75342   0.76133
 Alpha virt. eigenvalues --    0.85094   0.85276   0.87095   0.91614   0.91614

 Mulliken charges and spin densities:
               1          2
     1  O   -0.019578   1.001981
     2  O    0.019578   0.998019
     3  O    0.019578   0.998019
     4  O   -0.019578   1.001981
 Sum of Mulliken charges =  -0.00000   4.00000

 Dipole moment (field-independent basis, Debye):
    X=             -0.0000    Y=             -0.0000    Z=              0.0000  Tot=              0.0000
 Quadrupole moment (field-independent basis, Debye-Ang):
   XX=            -19.6340   YY=            -19.6340   ZZ=            -21.1257
   XY=              0.0000   XZ=              0.0000   YZ=              0.0000

 4289\MP4SDQ=-300.2137418\CCSD=-300.207042\CCSD(T)=-300.2426655\RMSD=8.
 Normal termination of Gaussian 16 at Tue Feb 13 15:03:15 2024.
