 Gaussian 16, Revision A.03,
 Gaussian 16:  ES64L-G16RevA.03 25-Dec-2016

 --------------------
 #p ROCCSD(T)/cc-pVTZ
 --------------------

 ---------
 O2_O2_219
 ---------
 Symbolic Z-matrix:
 Charge =  0 Multiplicity = 5

                         Standard orientation:
 ---------------------------------------------------------------------
 Center     Atomic      Atomic             Coordinates (Angstroms)
 Number     Number       Type             X           Y           Z
 ---------------------------------------------------------------------
      1          8           0        0.000000    0.000000    3.120000
      2          8           0        0.000000    0.000000    1.960000
      3          8           0        0.000000    0.000000   -1.960000
      4          8           0        0.000000    0.000000   -3.120000
 ---------------------------------------------------------------------

 SCF Done:  E(ROHF) =  -299.316612130     A.U. after   11 cycles
 E2 =    -0.9224511932D+00 EUMP2 =    -0.30023906332284D+03
 CCSD(T)
 CCSD(T)= -0.30024980683D+03

 The electronic state is 5-SGG.
 Alpha  occ. eigenvalues --  -20.74007 -20.74007 -20.73929 -20.73929  -1.74507
 Alpha  occ. eigenvalues --   -1.74505  -1.17068  -1.17026  -0.83790  -0.83790
 Alpha  occ. eigenvalues --   -0.83781  -0.83781  -0.78201  -0.78051  -0.51000
 Alpha  occ. eigenvalues --   -0.51000  -0.50959  -0.50959
 Alpha virt. eigenvalues --    0.36936   0.45103   0.67664   0.67806   0.67806
 Alpha virt. eigenvalues --    0.68212   0.68212   0.74497   0.76766   0.79126
 Alpha virt. eigenvalues --    0.79126   0.80516   0.80516   0.83719   0.87065

 Mulliken charges and spin densities:
               1          2
     1  O   -0.000200   0.999235
     2  O    0.000200   1.000765
     3  O    0.000200   1.000765
     4  O   -0.000200   0.999235
 Sum of Mulliken charges =   0.00000   4.00000

 Dipole moment (field-independent basis, Debye):
    X=             -0.0000    Y=             -0.0000    Z=              0.0000  Tot=              0.0000
 Quadrupole moment (field-independent basis, Debye-Ang):
   XX=            -19.6384   YY=            -19.6384   ZZ=            -20.8867
   XY=              0.0000   XZ=              0.0000   YZ=              0.0000

 90633\MP4SDQ=-300.2210113\CCSD=-300.2145263\CCSD(T)=-300.2498068\RMSD=
 Normal termination of Gaussian 16 at Tue Feb 13 18:15:25 2024.
