 Gaussian 16, Revision A.03,
 Gaussian 16:  ES64L-G16RevA.03 25-Dec-2016

 --------------------
 #p ROCCSD(T)/cc-pVTZ
 --------------------

 --------
 O2_O2_66
 --------
 Symbolic Z-matrix:
 Charge =  0 Multiplicity = 5

                         Standard orientation:
 ---------------------------------------------------------------------
 Center     Atomic      Atomic             Coordinates (Angstroms)
 Number     Number       Type             X           Y           Z
 ---------------------------------------------------------------------
      1          8           0        0.000000    0.000000    2.100000
      2          8           0        0.000000    0.000000    0.940000
      3          8           0        0.000000    0.000000   -0.940000
      4          8           0        0.000000    0.000000   -2.100000
 ---------------------------------------------------------------------

 SCF Done:  E(ROHF) =  -299.266920667     A.U. after   11 cycles
 E2 =    -0.9305609825D+00 EUMP2 =    -0.30019748164930D+03
 CCSD(T)
 CCSD(T)= -0.30020661574D+03

 The electronic state is 5-SGG.
 Alpha  occ. eigenvalues --  -20.73385 -20.73384 -20.72303 -20.72300  -1.74555
 Alpha  occ. eigenvalues --   -1.73538  -1.21811  -1.13302  -0.84215  -0.84215
 Alpha  occ. eigenvalues --   -0.83339  -0.82475  -0.82475  -0.70798  -0.52496
 Alpha  occ. eigenvalues --   -0.52496  -0.48509  -0.48509
 Alpha virt. eigenvalues --    0.44466   0.48614   0.64774   0.64774   0.70448
 Alpha virt. eigenvalues --    0.70448   0.71869   0.76517   0.76517   0.76936
 Alpha virt. eigenvalues --    0.84943   0.85667   0.94810   0.95472   0.95472

 Mulliken charges and spin densities:
               1          2
     1  O   -0.028095   1.019494
     2  O    0.028095   0.980506
     3  O    0.028095   0.980506
     4  O   -0.028095   1.019494
 Sum of Mulliken charges =  -0.00000   4.00000

 Dipole moment (field-independent basis, Debye):
    X=             -0.0000    Y=              0.0000    Z=              0.0000  Tot=              0.0000
 Quadrupole moment (field-independent basis, Debye-Ang):
   XX=            -19.5986   YY=            -19.5986   ZZ=            -21.3856
   XY=              0.0000   XZ=              0.0000   YZ=              0.0000

 4816\MP4SDQ=-300.1775234\CCSD=-300.1704362\CCSD(T)=-300.2066157\RMSD=4
 Normal termination of Gaussian 16 at Tue Feb 13 14:07:58 2024.
