 Gaussian 16, Revision A.03,
 Gaussian 16:  ES64L-G16RevA.03 25-Dec-2016

 --------------------
 #p ROCCSD(T)/cc-pVTZ
 --------------------

 ---------
 O2_O2_189
 ---------
 Symbolic Z-matrix:
 Charge =  0 Multiplicity = 5

                         Standard orientation:
 ---------------------------------------------------------------------
 Center     Atomic      Atomic             Coordinates (Angstroms)
 Number     Number       Type             X           Y           Z
 ---------------------------------------------------------------------
      1          8           0        0.000000    0.000000    2.920000
      2          8           0        0.000000    0.000000    1.760000
      3          8           0        0.000000    0.000000   -1.760000
      4          8           0        0.000000    0.000000   -2.920000
 ---------------------------------------------------------------------

 SCF Done:  E(ROHF) =  -299.316589120     A.U. after   12 cycles
 E2 =    -0.9226337146D+00 EUMP2 =    -0.30023922283477D+03
 CCSD(T)
 CCSD(T)= -0.30024994168D+03

 The electronic state is 5-SGG.
 Alpha  occ. eigenvalues --  -20.73996 -20.73996 -20.73916 -20.73916  -1.74498
 Alpha  occ. eigenvalues --   -1.74491  -1.17097  -1.16972  -0.83787  -0.83787
 Alpha  occ. eigenvalues --   -0.83760  -0.83760  -0.78295  -0.77928  -0.51021
 Alpha  occ. eigenvalues --   -0.51021  -0.50913  -0.50913
 Alpha virt. eigenvalues --    0.35489   0.46567   0.65569   0.67451   0.67451
 Alpha virt. eigenvalues --    0.68480   0.68480   0.75194   0.77120   0.78236
 Alpha virt. eigenvalues --    0.78236   0.81606   0.81606   0.86346   0.87054

 Mulliken charges and spin densities:
               1          2
     1  O    0.000328   0.999033
     2  O   -0.000328   1.000967
     3  O   -0.000328   1.000967
     4  O    0.000328   0.999033
 Sum of Mulliken charges =  -0.00000   4.00000

 Dipole moment (field-independent basis, Debye):
    X=              0.0000    Y=             -0.0000    Z=              0.0000  Tot=              0.0000
 Quadrupole moment (field-independent basis, Debye-Ang):
   XX=            -19.6386   YY=            -19.6386   ZZ=            -20.9008
   XY=              0.0000   XZ=              0.0000   YZ=              0.0000

 92228\MP4SDQ=-300.2211384\CCSD=-300.2146405\CCSD(T)=-300.2499417\RMSD=
 Normal termination of Gaussian 16 at Tue Feb 13 17:28:26 2024.
