 Gaussian 16, Revision A.03,
 Gaussian 16:  ES64L-G16RevA.03 25-Dec-2016

 --------------------
 #p ROCCSD(T)/cc-pVTZ
 --------------------

 ---------
 O2_O2_250
 ---------
 Symbolic Z-matrix:
 Charge =  0 Multiplicity = 5

                         Standard orientation:
 ---------------------------------------------------------------------
 Center     Atomic      Atomic             Coordinates (Angstroms)
 Number     Number       Type             X           Y           Z
 ---------------------------------------------------------------------
      1          8           0        0.615183   -3.065183    0.000000
      2          8           0       -0.205061   -2.244939   -0.000000
      3          8           0       -0.205061    2.075061   -0.000000
      4          8           0       -0.205061    3.235061   -0.000000
 ---------------------------------------------------------------------

 SCF Done:  E(ROHF) =  -299.316606370     A.U. after   13 cycles
 E2 =    -0.9223519863D+00 EUMP2 =    -0.30023895835633D+03
 CCSD(T)
 CCSD(T)= -0.30024972208D+03

 The electronic state is 5-A'.
 Alpha  occ. eigenvalues --  -20.74033 -20.74014 -20.73957 -20.73937  -1.74533
 Alpha  occ. eigenvalues --   -1.74512  -1.17078  -1.17054  -0.83813  -0.83813
 Alpha  occ. eigenvalues --   -0.83792  -0.83791  -0.78172  -0.78121  -0.51009
 Alpha  occ. eigenvalues --   -0.51008  -0.50985  -0.50985
 Alpha virt. eigenvalues --    0.39828   0.42802   0.67752   0.67930   0.68001
 Alpha virt. eigenvalues --    0.68074   0.70680   0.73099   0.77006   0.78588
 Alpha virt. eigenvalues --    0.79553   0.79810   0.80023   0.81163   0.87051

 Mulliken charges and spin densities:
               1          2
     1  O   -0.000437   0.999475
     2  O    0.000473   1.000502
     3  O    0.000204   1.000350
     4  O   -0.000240   0.999674
 Sum of Mulliken charges =  -0.00000   4.00000

 Dipole moment (field-independent basis, Debye):
    X=             -0.0025    Y=             -0.0000    Z=             -0.0000  Tot=              0.0025
 Quadrupole moment (field-independent basis, Debye-Ang):
   XX=            -19.9389   YY=            -20.5627   ZZ=            -19.6383
   XY=              0.3041   XZ=              0.0000   YZ=              0.0000

 064\PMP2-0=-300.2389584\MP4SDQ=-300.2209275\CCSD=-300.2144522\CCSD(T)=
 Normal termination of Gaussian 16 at Tue Feb 13 19:14:04 2024.
