 Gaussian 16, Revision A.03,
 Gaussian 16:  ES64L-G16RevA.03 25-Dec-2016

 --------------------
 #p ROCCSD(T)/cc-pVTZ
 --------------------

 ---------
 O2_O2_225
 ---------
 Symbolic Z-matrix:
 Charge =  0 Multiplicity = 5

                         Standard orientation:
 ---------------------------------------------------------------------
 Center     Atomic      Atomic             Coordinates (Angstroms)
 Number     Number       Type             X           Y           Z
 ---------------------------------------------------------------------
      1          8           0        0.000000    0.000000    3.160000
      2          8           0        0.000000    0.000000    2.000000
      3          8           0        0.000000    0.000000   -2.000000
      4          8           0        0.000000    0.000000   -3.160000
 ---------------------------------------------------------------------

 SCF Done:  E(ROHF) =  -299.316610438     A.U. after   11 cycles
 E2 =    -0.9224264751D+00 EUMP2 =    -0.30023903691275D+03
 CCSD(T)
 CCSD(T)= -0.30024978451D+03

 The electronic state is 5-SGG.
 Alpha  occ. eigenvalues --  -20.74009 -20.74009 -20.73931 -20.73931  -1.74508
 Alpha  occ. eigenvalues --   -1.74507  -1.17066  -1.17032  -0.83791  -0.83791
 Alpha  occ. eigenvalues --   -0.83783  -0.83783  -0.78190  -0.78065  -0.50998
 Alpha  occ. eigenvalues --   -0.50998  -0.50964  -0.50964
 Alpha virt. eigenvalues --    0.37360   0.44781   0.67845   0.67845   0.68162
 Alpha virt. eigenvalues --    0.68176   0.68176   0.74312   0.76763   0.79243
 Alpha virt. eigenvalues --    0.79243   0.80385   0.80385   0.82821   0.87066

 Mulliken charges and spin densities:
               1          2
     1  O   -0.000290   0.999270
     2  O    0.000290   1.000730
     3  O    0.000290   1.000730
     4  O   -0.000290   0.999270
 Sum of Mulliken charges =  -0.00000   4.00000

 Dipole moment (field-independent basis, Debye):
    X=             -0.0000    Y=             -0.0000    Z=             -0.0000  Tot=              0.0000
 Quadrupole moment (field-independent basis, Debye-Ang):
   XX=            -19.6384   YY=            -19.6384   ZZ=            -20.8849
   XY=              0.0000   XZ=              0.0000   YZ=              0.0000

 369\MP4SDQ=-300.2209899\CCSD=-300.2145067\CCSD(T)=-300.2497845\RMSD=8.
 Normal termination of Gaussian 16 at Tue Feb 13 18:25:55 2024.
