 Gaussian 16, Revision A.03,
 Gaussian 16:  ES64L-G16RevA.03 25-Dec-2016

 --------------------
 #p ROCCSD(T)/cc-pVTZ
 --------------------

 ---------
 O2_O2_128
 ---------
 Symbolic Z-matrix:
 Charge =  0 Multiplicity = 5

                         Standard orientation:
 ---------------------------------------------------------------------
 Center     Atomic      Atomic             Coordinates (Angstroms)
 Number     Number       Type             X           Y           Z
 ---------------------------------------------------------------------
      1          8           0       -0.870000   -1.630000    0.000000
      2          8           0        0.290000   -1.630000    0.000000
      3          8           0        0.290000    1.050000    0.000000
      4          8           0        0.290000    2.210000    0.000000
 ---------------------------------------------------------------------

 SCF Done:  E(ROHF) =  -299.314414253     A.U. after   16 cycles
 E2 =    -0.9239624727D+00 EUMP2 =    -0.30023837672552D+03
 CCSD(T)
 CCSD(T)= -0.30024905111D+03

 The electronic state is 5-A'.
 Alpha  occ. eigenvalues --  -20.74135 -20.73981 -20.73865 -20.73725  -1.74670
 Alpha  occ. eigenvalues --   -1.74339  -1.17409  -1.16793  -0.84157  -0.84006
 Alpha  occ. eigenvalues --   -0.83772  -0.83557  -0.78472  -0.77517  -0.51519
 Alpha  occ. eigenvalues --   -0.51186  -0.50772  -0.50453
 Alpha virt. eigenvalues --    0.40561   0.42948   0.63575   0.64326   0.66507
 Alpha virt. eigenvalues --    0.70090   0.71809   0.73806   0.75747   0.77699
 Alpha virt. eigenvalues --    0.78858   0.79643   0.83181   0.86709   0.91890

 Mulliken charges and spin densities:
               1          2
     1  O   -0.002071   0.995198
     2  O    0.002483   1.004815
     3  O   -0.001004   0.996362
     4  O    0.000592   1.003625
 Sum of Mulliken charges =  -0.00000   4.00000

 Dipole moment (field-independent basis, Debye):
    X=              0.0260    Y=              0.0358    Z=              0.0000  Tot=              0.0442
 Quadrupole moment (field-independent basis, Debye-Ang):
   XX=            -20.2510   YY=            -20.3025   ZZ=            -19.6377
   XY=             -0.0291   XZ=              0.0000   YZ=              0.0000

 3767\MP4SDQ=-300.2200439\CCSD=-300.213559\CCSD(T)=-300.2490511\RMSD=6.
 Normal termination of Gaussian 16 at Tue Feb 13 15:53:53 2024.
