 Gaussian 16, Revision A.03,
 Gaussian 16:  ES64L-G16RevA.03 25-Dec-2016

 --------------------
 #p ROCCSD(T)/cc-pVTZ
 --------------------

 --------
 O2_O2_78
 --------
 Symbolic Z-matrix:
 Charge =  0 Multiplicity = 5

                         Standard orientation:
 ---------------------------------------------------------------------
 Center     Atomic      Atomic             Coordinates (Angstroms)
 Number     Number       Type             X           Y           Z
 ---------------------------------------------------------------------
      1          8           0        0.000000    0.000000    2.180000
      2          8           0        0.000000    0.000000    1.020000
      3          8           0        0.000000    0.000000   -1.020000
      4          8           0        0.000000    0.000000   -2.180000
 ---------------------------------------------------------------------

 SCF Done:  E(ROHF) =  -299.290607519     A.U. after   11 cycles
 E2 =    -0.9277886964D+00 EUMP2 =    -0.30021839621513D+03
 CCSD(T)
 CCSD(T)= -0.30022812379D+03

 The electronic state is 5-SGG.
 Alpha  occ. eigenvalues --  -20.73545 -20.73545 -20.72936 -20.72934  -1.74480
 Alpha  occ. eigenvalues --   -1.73859  -1.20097  -1.14394  -0.84032  -0.84032
 Alpha  occ. eigenvalues --   -0.82877  -0.82877  -0.82058  -0.73066  -0.52035
 Alpha  occ. eigenvalues --   -0.52035  -0.49236  -0.49236
 Alpha virt. eigenvalues --    0.43693   0.48506   0.64355   0.64355   0.70249
 Alpha virt. eigenvalues --    0.70249   0.71846   0.75827   0.75827   0.76659
 Alpha virt. eigenvalues --    0.84925   0.86054   0.90937   0.94005   0.94005

 Mulliken charges and spin densities:
               1          2
     1  O   -0.026101   1.009085
     2  O    0.026101   0.990915
     3  O    0.026101   0.990915
     4  O   -0.026101   1.009085
 Sum of Mulliken charges =  -0.00000   4.00000

 Dipole moment (field-independent basis, Debye):
    X=             -0.0000    Y=             -0.0000    Z=             -0.0000  Tot=              0.0000
 Quadrupole moment (field-independent basis, Debye-Ang):
   XX=            -19.6197   YY=            -19.6197   ZZ=            -21.2692
   XY=              0.0000   XZ=              0.0000   YZ=              0.0000

 962\MP4SDQ=-300.1991179\CCSD=-300.1922424\CCSD(T)=-300.2281238\RMSD=2.
 Normal termination of Gaussian 16 at Tue Feb 13 14:29:54 2024.
