 Gaussian 16, Revision A.03,
 Gaussian 16:  ES64L-G16RevA.03 25-Dec-2016

 --------------------
 #p ROCCSD(T)/cc-pVTZ
 --------------------

 ---------
 O2_O2_159
 ---------
 Symbolic Z-matrix:
 Charge =  0 Multiplicity = 5

                         Standard orientation:
 ---------------------------------------------------------------------
 Center     Atomic      Atomic             Coordinates (Angstroms)
 Number     Number       Type             X           Y           Z
 ---------------------------------------------------------------------
      1          8           0        0.000000    0.000000    2.720000
      2          8           0        0.000000    0.000000    1.560000
      3          8           0        0.000000    0.000000   -1.560000
      4          8           0        0.000000    0.000000   -2.720000
 ---------------------------------------------------------------------

 SCF Done:  E(ROHF) =  -299.316381294     A.U. after   12 cycles
 E2 =    -0.9229663658D+00 EUMP2 =    -0.30023934765967D+03
 CCSD(T)
 CCSD(T)= -0.30025003019D+03

 The electronic state is 5-SGG.
 Alpha  occ. eigenvalues --  -20.73968 -20.73968 -20.73888 -20.73888  -1.74483
 Alpha  occ. eigenvalues --   -1.74461  -1.17197  -1.16836  -0.83788  -0.83788
 Alpha  occ. eigenvalues --   -0.83714  -0.83714  -0.78535  -0.77645  -0.51077
 Alpha  occ. eigenvalues --   -0.51077  -0.50810  -0.50810
 Alpha virt. eigenvalues --    0.36255   0.47511   0.65061   0.66661   0.66661
 Alpha virt. eigenvalues --    0.68904   0.68904   0.75496   0.76906   0.76906
 Alpha virt. eigenvalues --    0.78104   0.83724   0.83724   0.86295   0.87032

 Mulliken charges and spin densities:
               1          2
     1  O   -0.000845   0.998783
     2  O    0.000845   1.001217
     3  O    0.000845   1.001217
     4  O   -0.000845   0.998783
 Sum of Mulliken charges =  -0.00000   4.00000

 Dipole moment (field-independent basis, Debye):
    X=             -0.0000    Y=             -0.0000    Z=              0.0000  Tot=              0.0000
 Quadrupole moment (field-independent basis, Debye-Ang):
   XX=            -19.6387   YY=            -19.6387   ZZ=            -20.9277
   XY=              0.0000   XZ=              0.0000   YZ=              0.0000

 93477\MP4SDQ=-300.2212107\CCSD=-300.2146899\CCSD(T)=-300.2500302\RMSD=
 Normal termination of Gaussian 16 at Tue Feb 13 16:42:28 2024.
