 Gaussian 16, Revision A.03,
 Gaussian 16:  ES64L-G16RevA.03 25-Dec-2016

 --------------------
 #p ROCCSD(T)/cc-pVTZ
 --------------------

 --------
 O2_O2_52
 --------
 Symbolic Z-matrix:
 Charge =  0 Multiplicity = 5

                         Standard orientation:
 ---------------------------------------------------------------------
 Center     Atomic      Atomic             Coordinates (Angstroms)
 Number     Number       Type             X           Y           Z
 ---------------------------------------------------------------------
      1          8           0        0.615183   -1.745183    0.000000
      2          8           0       -0.205061   -0.924939    0.000000
      3          8           0       -0.205061    0.755061   -0.000000
      4          8           0       -0.205061    1.915061   -0.000000
 ---------------------------------------------------------------------

 SCF Done:  E(ROHF) =  -299.211230541     A.U. after   23 cycles
 E2 =    -0.9242337472D+00 EUMP2 =    -0.30013546428796D+03
 CCSD(T)
 CCSD(T)= -0.30015361250D+03

 The electronic state is 5-A'.
 Alpha  occ. eigenvalues --  -20.74326 -20.72798 -20.71705 -20.71046  -1.75892
 Alpha  occ. eigenvalues --   -1.73094  -1.25739  -1.11897  -0.87625  -0.85451
 Alpha  occ. eigenvalues --   -0.84746  -0.81925  -0.80029  -0.68485  -0.53792
 Alpha  occ. eigenvalues --   -0.52109  -0.47574  -0.47195
 Alpha virt. eigenvalues --    0.44376   0.48191   0.64395   0.64900   0.70713
 Alpha virt. eigenvalues --    0.70834   0.71562   0.75511   0.76890   0.78746
 Alpha virt. eigenvalues --    0.79763   0.84983   0.93071   0.95794   0.99024

 Mulliken charges and spin densities:
               1          2
     1  O   -0.052899   0.951674
     2  O    0.036239   1.022704
     3  O    0.021576   0.966467
     4  O   -0.004915   1.059156
 Sum of Mulliken charges =   0.00000   4.00000

 Dipole moment (field-independent basis, Debye):
    X=             -0.1612    Y=              0.4755    Z=             -0.0000  Tot=              0.5020
 Quadrupole moment (field-independent basis, Debye-Ang):
   XX=            -20.1164   YY=            -21.5028   ZZ=            -19.5185
   XY=              0.5412   XZ=              0.0000   YZ=              0.0000

 305\PMP2-0=-300.1354643\MP4SDQ=-300.1216466\CCSD=-300.1170347\CCSD(T)=
 Normal termination of Gaussian 16 at Tue Feb 13 13:40:47 2024.
