 Gaussian 16, Revision A.03,
 Gaussian 16:  ES64L-G16RevA.03 25-Dec-2016

 --------------------
 #p ROCCSD(T)/cc-pVTZ
 --------------------

 ---------
 O2_O2_210
 ---------
 Symbolic Z-matrix:
 Charge =  0 Multiplicity = 5

                         Standard orientation:
 ---------------------------------------------------------------------
 Center     Atomic      Atomic             Coordinates (Angstroms)
 Number     Number       Type             X           Y           Z
 ---------------------------------------------------------------------
      1          8           0        0.000000    0.000000    3.060000
      2          8           0        0.000000    0.000000    1.900000
      3          8           0        0.000000    0.000000   -1.900000
      4          8           0        0.000000    0.000000   -3.060000
 ---------------------------------------------------------------------

 SCF Done:  E(ROHF) =  -299.316612173     A.U. after   12 cycles
 E2 =    -0.9224948753D+00 EUMP2 =    -0.30023910704792D+03
 CCSD(T)
 CCSD(T)= -0.30024984385D+03

 The electronic state is 5-SGG.
 Alpha  occ. eigenvalues --  -20.74005 -20.74005 -20.73926 -20.73926  -1.74504
 Alpha  occ. eigenvalues --   -1.74502  -1.17073  -1.17014  -0.83789  -0.83789
 Alpha  occ. eigenvalues --   -0.83776  -0.83776  -0.78220  -0.78024  -0.51005
 Alpha  occ. eigenvalues --   -0.51005  -0.50949  -0.50949
 Alpha virt. eigenvalues --    0.36348   0.45578   0.66937   0.67731   0.67731
 Alpha virt. eigenvalues --    0.68275   0.68275   0.74748   0.76812   0.78914
 Alpha virt. eigenvalues --    0.78914   0.80760   0.80760   0.85094   0.87063

 Mulliken charges and spin densities:
               1          2
     1  O   -0.000034   0.999181
     2  O    0.000034   1.000819
     3  O    0.000034   1.000819
     4  O   -0.000034   0.999181
 Sum of Mulliken charges =  -0.00000   4.00000

 Dipole moment (field-independent basis, Debye):
    X=              0.0000    Y=              0.0000    Z=              0.0000  Tot=              0.0000
 Quadrupole moment (field-independent basis, Debye-Ang):
   XX=            -19.6385   YY=            -19.6385   ZZ=            -20.8899
   XY=              0.0000   XZ=              0.0000   YZ=              0.0000

 07\MP4SDQ=-300.2210466\CCSD=-300.2145585\CCSD(T)=-300.2498438\RMSD=1.1
 Normal termination of Gaussian 16 at Tue Feb 13 17:59:33 2024.
