 Gaussian 16, Revision A.03,
 Gaussian 16:  ES64L-G16RevA.03 25-Dec-2016

 --------------------
 #p ROCCSD(T)/cc-pVTZ
 --------------------

 ---------
 O2_O2_277
 ---------
 Symbolic Z-matrix:
 Charge =  0 Multiplicity = 5

                         Standard orientation:
 ---------------------------------------------------------------------
 Center     Atomic      Atomic             Coordinates (Angstroms)
 Number     Number       Type             X           Y           Z
 ---------------------------------------------------------------------
      1          8           0        0.615183   -3.245183    0.000000
      2          8           0       -0.205061   -2.424939    0.000000
      3          8           0       -0.205061    2.255061   -0.000000
      4          8           0       -0.205061    3.415061   -0.000000
 ---------------------------------------------------------------------

 SCF Done:  E(ROHF) =  -299.316593632     A.U. after   16 cycles
 E2 =    -0.9223102191D+00 EUMP2 =    -0.30023890385089D+03
 CCSD(T)
 CCSD(T)= -0.30024967571D+03

 The electronic state is 5-A'.
 Alpha  occ. eigenvalues --  -20.74037 -20.74018 -20.73960 -20.73941  -1.74536
 Alpha  occ. eigenvalues --   -1.74517  -1.17080  -1.17061  -0.83816  -0.83816
 Alpha  occ. eigenvalues --   -0.83797  -0.83796  -0.78164  -0.78138  -0.51011
 Alpha  occ. eigenvalues --   -0.51011  -0.50992  -0.50991
 Alpha virt. eigenvalues --    0.40678   0.42118   0.67959   0.67974   0.68001
 Alpha virt. eigenvalues --    0.68025   0.71484   0.72540   0.77485   0.78415
 Alpha virt. eigenvalues --    0.79701   0.79771   0.79863   0.80084   0.87049

 Mulliken charges and spin densities:
               1          2
     1  O   -0.000402   0.999555
     2  O    0.000410   1.000440
     3  O    0.000207   1.000253
     4  O   -0.000215   0.999753
 Sum of Mulliken charges =  -0.00000   4.00000

 Dipole moment (field-independent basis, Debye):
    X=             -0.0021    Y=              0.0006    Z=              0.0000  Tot=              0.0021
 Quadrupole moment (field-independent basis, Debye-Ang):
   XX=            -19.9388   YY=            -20.5604   ZZ=            -19.6382
   XY=              0.3037   XZ=              0.0000   YZ=             -0.0000

 36\PMP2-0=-300.2389039\MP4SDQ=-300.2208827\CCSD=-300.2144101\CCSD(T)=-
 Normal termination of Gaussian 16 at Tue Feb 13 20:07:27 2024.
