 Gaussian 16, Revision A.03,
 Gaussian 16:  ES64L-G16RevA.03 25-Dec-2016

 --------------------
 #p ROCCSD(T)/cc-pVTZ
 --------------------

 ---------
 O2_O2_116
 ---------
 Symbolic Z-matrix:
 Charge =  0 Multiplicity = 5

                         Standard orientation:
 ---------------------------------------------------------------------
 Center     Atomic      Atomic             Coordinates (Angstroms)
 Number     Number       Type             X           Y           Z
 ---------------------------------------------------------------------
      1          8           0       -0.870000   -1.550000    0.000000
      2          8           0        0.290000   -1.550000    0.000000
      3          8           0        0.290000    0.970000    0.000000
      4          8           0        0.290000    2.130000    0.000000
 ---------------------------------------------------------------------

 SCF Done:  E(ROHF) =  -299.312086904     A.U. after   22 cycles
 E2 =    -0.9244237039D+00 EUMP2 =    -0.30023651060797D+03
 CCSD(T)
 CCSD(T)= -0.30024724228D+03

 The electronic state is 5-A'.
 Alpha  occ. eigenvalues --  -20.74137 -20.73915 -20.73811 -20.73598  -1.74715
 Alpha  occ. eigenvalues --   -1.74264  -1.17582  -1.16665  -0.84408  -0.84074
 Alpha  occ. eigenvalues --   -0.83785  -0.83447  -0.78482  -0.77201  -0.51685
 Alpha  occ. eigenvalues --   -0.51241  -0.50671  -0.50251
 Alpha virt. eigenvalues --    0.40854   0.43711   0.63771   0.64379   0.67519
 Alpha virt. eigenvalues --    0.70345   0.71678   0.73845   0.74582   0.77656
 Alpha virt. eigenvalues --    0.78877   0.80748   0.83909   0.86668   0.93599

 Mulliken charges and spin densities:
               1          2
     1  O   -0.003562   0.991878
     2  O    0.004016   1.008098
     3  O    0.001348   0.994813
     4  O   -0.001803   1.005211
 Sum of Mulliken charges =  -0.00000   4.00000

 Dipole moment (field-independent basis, Debye):
    X=              0.0402    Y=              0.0481    Z=              0.0000  Tot=              0.0627
 Quadrupole moment (field-independent basis, Debye-Ang):
   XX=            -20.2591   YY=            -20.3472   ZZ=            -19.6365
   XY=             -0.0490   XZ=              0.0000   YZ=              0.0000

 5106\MP4SDQ=-300.2181322\CCSD=-300.2116741\CCSD(T)=-300.2472423\RMSD=4
 Normal termination of Gaussian 16 at Tue Feb 13 15:35:35 2024.
