 Gaussian 16, Revision A.03,
 Gaussian 16:  ES64L-G16RevA.03 25-Dec-2016

 --------------------
 #p ROCCSD(T)/cc-pVTZ
 --------------------

 --------
 O2_O2_55
 --------
 Symbolic Z-matrix:
 Charge =  0 Multiplicity = 5

                         Standard orientation:
 ---------------------------------------------------------------------
 Center     Atomic      Atomic             Coordinates (Angstroms)
 Number     Number       Type             X           Y           Z
 ---------------------------------------------------------------------
      1          8           0        0.615183   -1.765183    0.000000
      2          8           0       -0.205061   -0.944939    0.000000
      3          8           0       -0.205061    0.775061   -0.000000
      4          8           0       -0.205061    1.935061   -0.000000
 ---------------------------------------------------------------------

 SCF Done:  E(ROHF) =  -299.225586248     A.U. after   23 cycles
 E2 =    -0.9247812671D+00 EUMP2 =    -0.30015036751485D+03
 CCSD(T)
 CCSD(T)= -0.30016733208D+03

 The electronic state is 5-A'.
 Alpha  occ. eigenvalues --  -20.74216 -20.72791 -20.71927 -20.71378  -1.75638
 Alpha  occ. eigenvalues --   -1.73206  -1.24758  -1.12295  -0.87218  -0.85202
 Alpha  occ. eigenvalues --   -0.84514  -0.82069  -0.80175  -0.69333  -0.53498
 Alpha  occ. eigenvalues --   -0.51956  -0.47843  -0.47639
 Alpha virt. eigenvalues --    0.44197   0.48077   0.64334   0.64821   0.70790
 Alpha virt. eigenvalues --    0.71124   0.71500   0.75523   0.76975   0.78435
 Alpha virt. eigenvalues --    0.79684   0.85073   0.92980   0.95491   0.98576

 Mulliken charges and spin densities:
               1          2
     1  O   -0.047350   0.956322
     2  O    0.033905   1.023852
     3  O    0.020162   0.968372
     4  O   -0.006718   1.051454
 Sum of Mulliken charges =  -0.00000   4.00000

 Dipole moment (field-independent basis, Debye):
    X=             -0.1480    Y=              0.4096    Z=              0.0000  Tot=              0.4355
 Quadrupole moment (field-independent basis, Debye-Ang):
   XX=            -20.0945   YY=            -21.4405   ZZ=            -19.5367
   XY=              0.5250   XZ=              0.0000   YZ=              0.0000

 862\PMP2-0=-300.1503675\MP4SDQ=-300.1357821\CCSD=-300.1308657\CCSD(T)=
 Normal termination of Gaussian 16 at Tue Feb 13 13:46:13 2024.
