 Gaussian 16, Revision A.03,
 Gaussian 16:  ES64L-G16RevA.03 25-Dec-2016

 --------------------
 #p ROCCSD(T)/cc-pVTZ
 --------------------

 ---------
 O2_O2_243
 ---------
 Symbolic Z-matrix:
 Charge =  0 Multiplicity = 5

                         Standard orientation:
 ---------------------------------------------------------------------
 Center     Atomic      Atomic             Coordinates (Angstroms)
 Number     Number       Type             X           Y           Z
 ---------------------------------------------------------------------
      1          8           0        0.000000    0.000000    3.280000
      2          8           0        0.000000    0.000000    2.120000
      3          8           0        0.000000    0.000000   -2.120000
      4          8           0        0.000000    0.000000   -3.280000
 ---------------------------------------------------------------------

 SCF Done:  E(ROHF) =  -299.316602036     A.U. after   11 cycles
 E2 =    -0.9223700622D+00 EUMP2 =    -0.30023897209798D+03
 CCSD(T)
 CCSD(T)= -0.30024972999D+03

 The electronic state is 5-SGG.
 Alpha  occ. eigenvalues --  -20.74013 -20.74013 -20.73935 -20.73935  -1.74512
 Alpha  occ. eigenvalues --   -1.74512  -1.17063  -1.17045  -0.83794  -0.83794
 Alpha  occ. eigenvalues --   -0.83790  -0.83790  -0.78170  -0.78098  -0.50995
 Alpha  occ. eigenvalues --   -0.50995  -0.50977  -0.50977
 Alpha virt. eigenvalues --    0.38618   0.43841   0.67925   0.67925   0.68098
 Alpha virt. eigenvalues --    0.68098   0.69571   0.73710   0.76879   0.79497
 Alpha virt. eigenvalues --    0.79497   0.80105   0.80105   0.80730   0.87068

 Mulliken charges and spin densities:
               1          2
     1  O   -0.000439   0.999365
     2  O    0.000439   1.000635
     3  O    0.000439   1.000635
     4  O   -0.000439   0.999365
 Sum of Mulliken charges =  -0.00000   4.00000

 Dipole moment (field-independent basis, Debye):
    X=             -0.0000    Y=             -0.0000    Z=             -0.0000  Tot=              0.0000
 Quadrupole moment (field-independent basis, Debye-Ang):
   XX=            -19.6383   YY=            -19.6383   ZZ=            -20.8807
   XY=              0.0000   XZ=              0.0000   YZ=              0.0000

 21\MP4SDQ=-300.2209373\CCSD=-300.2144582\CCSD(T)=-300.24973\RMSD=6.203
 Normal termination of Gaussian 16 at Tue Feb 13 18:58:51 2024.
