 Gaussian 16, Revision A.03,
 Gaussian 16:  ES64L-G16RevA.03 25-Dec-2016

 --------------------
 #p ROCCSD(T)/cc-pVTZ
 --------------------

 --------
 O2_O2_64
 --------
 Symbolic Z-matrix:
 Charge =  0 Multiplicity = 5

                         Standard orientation:
 ---------------------------------------------------------------------
 Center     Atomic      Atomic             Coordinates (Angstroms)
 Number     Number       Type             X           Y           Z
 ---------------------------------------------------------------------
      1          8           0        0.615183   -1.825183   -0.000000
      2          8           0       -0.205061   -1.004939    0.000000
      3          8           0       -0.205061    0.835061    0.000000
      4          8           0       -0.205061    1.995061    0.000000
 ---------------------------------------------------------------------

 SCF Done:  E(ROHF) =  -299.258535251     A.U. after   22 cycles
 E2 =    -0.9258499112D+00 EUMP2 =    -0.30018438516221D+03
 CCSD(T)
 CCSD(T)= -0.30019845604D+03

 The electronic state is 5-A'.
 Alpha  occ. eigenvalues --  -20.74011 -20.72932 -20.72488 -20.72155  -1.75127
 Alpha  occ. eigenvalues --   -1.73500  -1.22447  -1.13343  -0.86130  -0.84673
 Alpha  occ. eigenvalues --   -0.84030  -0.82442  -0.80445  -0.71456  -0.52809
 Alpha  occ. eigenvalues --   -0.51640  -0.48646  -0.48536
 Alpha virt. eigenvalues --    0.43645   0.47764   0.64134   0.64531   0.70656
 Alpha virt. eigenvalues --    0.71242   0.72060   0.75330   0.77571   0.77609
 Alpha virt. eigenvalues --    0.79412   0.85376   0.92590   0.94437   0.96991

 Mulliken charges and spin densities:
               1          2
     1  O   -0.033843   0.967866
     2  O    0.026275   1.023035
     3  O    0.018858   0.975766
     4  O   -0.011289   1.033332
 Sum of Mulliken charges =  -0.00000   4.00000

 Dipole moment (field-independent basis, Debye):
    X=             -0.1134    Y=              0.2664    Z=             -0.0000  Tot=              0.2895
 Quadrupole moment (field-independent basis, Debye-Ang):
   XX=            -20.0460   YY=            -21.2777   ZZ=            -19.5778
   XY=              0.4788   XZ=             -0.0000   YZ=              0.0000

 3\PMP2-0=-300.1843852\MP4SDQ=-300.1679261\CCSD=-300.1622641\CCSD(T)=-3
 Normal termination of Gaussian 16 at Tue Feb 13 14:04:19 2024.
