 Gaussian 16, Revision A.03,
 Gaussian 16:  ES64L-G16RevA.03 25-Dec-2016

 --------------------
 #p ROCCSD(T)/cc-pVTZ
 --------------------

 --------
 O2_O2_32
 --------
 Symbolic Z-matrix:
 Charge =  0 Multiplicity = 5

                         Standard orientation:
 ---------------------------------------------------------------------
 Center     Atomic      Atomic             Coordinates (Angstroms)
 Number     Number       Type             X           Y           Z
 ---------------------------------------------------------------------
      1          8           0       -0.870000   -0.990000    0.000000
      2          8           0        0.290000   -0.990000    0.000000
      3          8           0        0.290000    0.410000    0.000000
      4          8           0        0.290000    1.570000    0.000000
 ---------------------------------------------------------------------

 SCF Done:  E(ROHF) =  -299.030449741     A.U. after   20 cycles
 E2 =    -0.9106495576D+00 EUMP2 =    -0.29994109929829D+03
 CCSD(T)
 CCSD(T)= -0.29996895045D+03

 The electronic state is 5-A'.
 Alpha  occ. eigenvalues --  -20.76337 -20.74077 -20.72010 -20.66597  -1.83786
 Alpha  occ. eigenvalues --   -1.72814  -1.32145  -1.12259  -0.93651  -0.90794
 Alpha  occ. eigenvalues --   -0.87710  -0.80468  -0.76046  -0.61690  -0.55524
 Alpha  occ. eigenvalues --   -0.53398  -0.47217  -0.42132
 Alpha virt. eigenvalues --    0.41212   0.46409   0.61188   0.64339   0.67663
 Alpha virt. eigenvalues --    0.69840   0.72788   0.73200   0.79214   0.79520
 Alpha virt. eigenvalues --    0.82559   0.85801   0.87130   0.98528   1.00793

 Mulliken charges and spin densities:
               1          2
     1  O   -0.132570   0.831742
     2  O    0.062970   0.991483
     3  O    0.113805   1.115837
     4  O   -0.044205   1.060937
 Sum of Mulliken charges =  -0.00000   4.00000

 Dipole moment (field-independent basis, Debye):
    X=              0.7085    Y=              0.5643    Z=              0.0000  Tot=              0.9058
 Quadrupole moment (field-independent basis, Debye-Ang):
   XX=            -20.7249   YY=            -21.8474   ZZ=            -19.2402
   XY=             -0.5678   XZ=              0.0000   YZ=              0.0000

 93\MP4SDQ=-299.9343473\CCSD=-299.9322848\CCSD(T)=-299.9689504\RMSD=8.6
 Normal termination of Gaussian 16 at Tue Feb 13 13:00:20 2024.
