 Gaussian 16, Revision A.03,
 Gaussian 16:  ES64L-G16RevA.03 25-Dec-2016

 --------------------
 #p ROCCSD(T)/cc-pVTZ
 --------------------

 ---------
 O2_O2_247
 ---------
 Symbolic Z-matrix:
 Charge =  0 Multiplicity = 5

                         Standard orientation:
 ---------------------------------------------------------------------
 Center     Atomic      Atomic             Coordinates (Angstroms)
 Number     Number       Type             X           Y           Z
 ---------------------------------------------------------------------
      1          8           0        0.615183   -3.045183    0.000000
      2          8           0       -0.205061   -2.224939   -0.000000
      3          8           0       -0.205061    2.055061   -0.000000
      4          8           0       -0.205061    3.215061   -0.000000
 ---------------------------------------------------------------------

 SCF Done:  E(ROHF) =  -299.316608450     A.U. after   13 cycles
 E2 =    -0.9223586421D+00 EUMP2 =    -0.30023896709234D+03
 CCSD(T)
 CCSD(T)= -0.30024972960D+03

 The electronic state is 5-A'.
 Alpha  occ. eigenvalues --  -20.74033 -20.74014 -20.73956 -20.73936  -1.74532
 Alpha  occ. eigenvalues --   -1.74512  -1.17078  -1.17053  -0.83812  -0.83812
 Alpha  occ. eigenvalues --   -0.83792  -0.83790  -0.78173  -0.78118  -0.51009
 Alpha  occ. eigenvalues --   -0.51008  -0.50984  -0.50984
 Alpha virt. eigenvalues --    0.39704   0.42894   0.67699   0.67922   0.68000
 Alpha virt. eigenvalues --    0.68083   0.70566   0.73174   0.76953   0.78592
 Alpha virt. eigenvalues --    0.79527   0.79821   0.80052   0.81376   0.87051

 Mulliken charges and spin densities:
               1          2
     1  O   -0.000436   0.999466
     2  O    0.000478   1.000507
     3  O    0.000196   1.000364
     4  O   -0.000238   0.999663
 Sum of Mulliken charges =  -0.00000   4.00000

 Dipole moment (field-independent basis, Debye):
    X=             -0.0025    Y=             -0.0001    Z=              0.0000  Tot=              0.0025
 Quadrupole moment (field-independent basis, Debye-Ang):
   XX=            -19.9389   YY=            -20.5629   ZZ=            -19.6383
   XY=              0.3042   XZ=             -0.0000   YZ=             -0.0000

 6085\PMP2-0=-300.2389671\MP4SDQ=-300.2209347\CCSD=-300.214459\CCSD(T)=
 Normal termination of Gaussian 16 at Tue Feb 13 19:08:12 2024.
