 Gaussian 16, Revision A.03,
 Gaussian 16:  ES64L-G16RevA.03 25-Dec-2016

 --------------------
 #p ROCCSD(T)/cc-pVTZ
 --------------------

 --------
 O2_O2_92
 --------
 Symbolic Z-matrix:
 Charge =  0 Multiplicity = 5

                         Standard orientation:
 ---------------------------------------------------------------------
 Center     Atomic      Atomic             Coordinates (Angstroms)
 Number     Number       Type             X           Y           Z
 ---------------------------------------------------------------------
      1          8           0       -0.870000   -1.390000    0.000000
      2          8           0        0.290000   -1.390000    0.000000
      3          8           0        0.290000    0.810000    0.000000
      4          8           0        0.290000    1.970000    0.000000
 ---------------------------------------------------------------------

 SCF Done:  E(ROHF) =  -299.299583389     A.U. after   23 cycles
 E2 =    -0.9246266864D+00 EUMP2 =    -0.30022421007528D+03
 CCSD(T)
 CCSD(T)= -0.30023639993D+03

 The electronic state is 5-A'.
 Alpha  occ. eigenvalues --  -20.74134 -20.73659 -20.73633 -20.73004  -1.74952
 Alpha  occ. eigenvalues --   -1.73995  -1.18348  -1.16201  -0.85576  -0.84355
 Alpha  occ. eigenvalues --   -0.83845  -0.83068  -0.78336  -0.75910  -0.52183
 Alpha  occ. eigenvalues --   -0.51463  -0.50304  -0.49580
 Alpha virt. eigenvalues --    0.41170   0.45215   0.63263   0.65818   0.70140
 Alpha virt. eigenvalues --    0.70840   0.71231   0.72979   0.74593   0.77761
 Alpha virt. eigenvalues --    0.79005   0.85118   0.85172   0.86717   0.96392

 Mulliken charges and spin densities:
               1          2
     1  O   -0.013300   0.976055
     2  O    0.012633   1.023224
     3  O    0.009666   0.989102
     4  O   -0.008999   1.011618
 Sum of Mulliken charges =  -0.00000   4.00000

 Dipole moment (field-independent basis, Debye):
    X=              0.1024    Y=              0.0830    Z=              0.0000  Tot=              0.1318
 Quadrupole moment (field-independent basis, Debye-Ang):
   XX=            -20.2961   YY=            -20.4811   ZZ=            -19.6241
   XY=             -0.1353   XZ=              0.0000   YZ=              0.0000

 01\MP4SDQ=-300.2066199\CCSD=-300.200606\CCSD(T)=-300.2363999\RMSD=1.73
 Normal termination of Gaussian 16 at Tue Feb 13 14:55:36 2024.
