 Gaussian 16, Revision A.03,
 Gaussian 16:  ES64L-G16RevA.03 25-Dec-2016

 --------------------
 #p ROCCSD(T)/cc-pVTZ
 --------------------

 ---------
 O2_O2_133
 ---------
 Symbolic Z-matrix:
 Charge =  0 Multiplicity = 5

                         Standard orientation:
 ---------------------------------------------------------------------
 Center     Atomic      Atomic             Coordinates (Angstroms)
 Number     Number       Type             X           Y           Z
 ---------------------------------------------------------------------
      1          8           0        0.615183   -2.285183    0.000000
      2          8           0       -0.205061   -1.464939    0.000000
      3          8           0       -0.205061    1.295061    0.000000
      4          8           0       -0.205061    2.455061    0.000000
 ---------------------------------------------------------------------

 SCF Done:  E(ROHF) =  -299.315286425     A.U. after   18 cycles
 E2 =    -0.9235514687D+00 EUMP2 =    -0.30023883789394D+03
 CCSD(T)
 CCSD(T)= -0.30024945881D+03

 The electronic state is 5-A'.
 Alpha  occ. eigenvalues --  -20.73955 -20.73892 -20.73878 -20.73799  -1.74504
 Alpha  occ. eigenvalues --   -1.74396  -1.17452  -1.16591  -0.83847  -0.83833
 Alpha  occ. eigenvalues --   -0.83679  -0.83621  -0.78853  -0.77258  -0.51199
 Alpha  occ. eigenvalues --   -0.51071  -0.50749  -0.50641
 Alpha virt. eigenvalues --    0.39234   0.45770   0.64690   0.65387   0.66648
 Alpha virt. eigenvalues --    0.69456   0.70537   0.74764   0.76171   0.77406
 Alpha virt. eigenvalues --    0.78441   0.83806   0.85810   0.86055   0.87260

 Mulliken charges and spin densities:
               1          2
     1  O   -0.002708   0.996639
     2  O    0.002875   1.003363
     3  O    0.002254   1.000167
     4  O   -0.002421   0.999831
 Sum of Mulliken charges =   0.00000   4.00000

 Dipole moment (field-independent basis, Debye):
    X=             -0.0147    Y=              0.0110    Z=             -0.0000  Tot=              0.0184
 Quadrupole moment (field-independent basis, Debye-Ang):
   XX=            -19.9472   YY=            -20.6723   ZZ=            -19.6386
   XY=              0.3242   XZ=              0.0000   YZ=             -0.0000

 Normal termination of Gaussian 16 at Tue Feb 13 16:02:01 2024.
