 Gaussian 16, Revision A.03,
 Gaussian 16:  ES64L-G16RevA.03 25-Dec-2016

 --------------------
 #p ROCCSD(T)/cc-pVTZ
 --------------------

 ---------
 O2_O2_105
 ---------
 Symbolic Z-matrix:
 Charge =  0 Multiplicity = 5

                         Standard orientation:
 ---------------------------------------------------------------------
 Center     Atomic      Atomic             Coordinates (Angstroms)
 Number     Number       Type             X           Y           Z
 ---------------------------------------------------------------------
      1          8           0        0.000000    0.000000    2.360000
      2          8           0        0.000000    0.000000    1.200000
      3          8           0        0.000000    0.000000   -1.200000
      4          8           0        0.000000    0.000000   -2.360000
 ---------------------------------------------------------------------

 SCF Done:  E(ROHF) =  -299.310843383     A.U. after   12 cycles
 E2 =    -0.9247151876D+00 EUMP2 =    -0.30023555857037D+03
 CCSD(T)
 CCSD(T)= -0.30024594258D+03

 The electronic state is 5-SGG.
 Alpha  occ. eigenvalues --  -20.73773 -20.73773 -20.73629 -20.73628  -1.74452
 Alpha  occ. eigenvalues --   -1.74248  -1.18169  -1.15873  -0.83859  -0.83859
 Alpha  occ. eigenvalues --   -0.83394  -0.83394  -0.80069  -0.75851  -0.51457
 Alpha  occ. eigenvalues --   -0.51457  -0.50178  -0.50178
 Alpha virt. eigenvalues --    0.41494   0.48272   0.64396   0.64396   0.69620
 Alpha virt. eigenvalues --    0.69812   0.69812   0.75297   0.75297   0.75917
 Alpha virt. eigenvalues --    0.83353   0.85471   0.86940   0.90364   0.90364

 Mulliken charges and spin densities:
               1          2
     1  O   -0.015518   1.000374
     2  O    0.015518   0.999626
     3  O    0.015518   0.999626
     4  O   -0.015518   1.000374
 Sum of Mulliken charges =  -0.00000   4.00000

 Dipole moment (field-independent basis, Debye):
    X=             -0.0000    Y=              0.0000    Z=              0.0000  Tot=              0.0000
 Quadrupole moment (field-independent basis, Debye-Ang):
   XX=            -19.6367   YY=            -19.6367   ZZ=            -21.0731
   XY=              0.0000   XZ=              0.0000   YZ=              0.0000

 5586\MP4SDQ=-300.2170458\CCSD=-300.210398\CCSD(T)=-300.2459426\RMSD=1.
 Normal termination of Gaussian 16 at Tue Feb 13 15:18:35 2024.
