 Gaussian 16, Revision A.03,
 Gaussian 16:  ES64L-G16RevA.03 25-Dec-2016

 --------------------
 #p ROCCSD(T)/cc-pVTZ
 --------------------

 ---------
 O2_O2_169
 ---------
 Symbolic Z-matrix:
 Charge =  0 Multiplicity = 5

                         Standard orientation:
 ---------------------------------------------------------------------
 Center     Atomic      Atomic             Coordinates (Angstroms)
 Number     Number       Type             X           Y           Z
 ---------------------------------------------------------------------
      1          8           0        0.615183   -2.525183    0.000000
      2          8           0       -0.205061   -1.704939    0.000000
      3          8           0       -0.205061    1.535061   -0.000000
      4          8           0       -0.205061    2.695061   -0.000000
 ---------------------------------------------------------------------

 SCF Done:  E(ROHF) =  -299.316490202     A.U. after   17 cycles
 E2 =    -0.9228478873D+00 EUMP2 =    -0.30023933808957D+03
 CCSD(T)
 CCSD(T)= -0.30025004023D+03

 The electronic state is 5-A'.
 Alpha  occ. eigenvalues --  -20.74006 -20.73983 -20.73928 -20.73899  -1.74512
 Alpha  occ. eigenvalues --   -1.74477  -1.17163  -1.16913  -0.83807  -0.83804
 Alpha  occ. eigenvalues --   -0.83750  -0.83742  -0.78394  -0.77830  -0.51065
 Alpha  occ. eigenvalues --   -0.51020  -0.50906  -0.50870
 Alpha virt. eigenvalues --    0.37198   0.45118   0.63958   0.66898   0.67302
 Alpha virt. eigenvalues --    0.68797   0.69783   0.74663   0.77047   0.77490
 Alpha virt. eigenvalues --    0.77556   0.81780   0.82736   0.85968   0.87042

 Mulliken charges and spin densities:
               1          2
     1  O   -0.000616   0.998545
     2  O    0.000874   1.001281
     3  O   -0.000673   1.000838
     4  O    0.000415   0.999336
 Sum of Mulliken charges =   0.00000   4.00000

 Dipole moment (field-independent basis, Debye):
    X=             -0.0068    Y=             -0.0014    Z=             -0.0000  Tot=              0.0069
 Quadrupole moment (field-independent basis, Debye-Ang):
   XX=            -19.9406   YY=            -20.5948   ZZ=            -19.6386
   XY=              0.3108   XZ=             -0.0000   YZ=              0.0000

 02\PMP2-0=-300.2393381\MP4SDQ=-300.2212126\CCSD=-300.2147101\CCSD(T)=-
 Normal termination of Gaussian 16 at Tue Feb 13 16:57:24 2024.
