 Gaussian 16, Revision A.03,
 Gaussian 16:  ES64L-G16RevA.03 25-Dec-2016

 --------------------
 #p ROCCSD(T)/cc-pVTZ
 --------------------

 ---------
 O2_O2_280
 ---------
 Symbolic Z-matrix:
 Charge =  0 Multiplicity = 5

                         Standard orientation:
 ---------------------------------------------------------------------
 Center     Atomic      Atomic             Coordinates (Angstroms)
 Number     Number       Type             X           Y           Z
 ---------------------------------------------------------------------
      1          8           0        0.615183   -3.265183    0.000000
      2          8           0       -0.205061   -2.444939   -0.000000
      3          8           0       -0.205061    2.275061   -0.000000
      4          8           0       -0.205061    3.435061   -0.000000
 ---------------------------------------------------------------------

 SCF Done:  E(ROHF) =  -299.316592864     A.U. after   16 cycles
 E2 =    -0.9223070678D+00 EUMP2 =    -0.30023889993232D+03
 CCSD(T)
 CCSD(T)= -0.30024967244D+03

 The electronic state is 5-A'.
 Alpha  occ. eigenvalues --  -20.74037 -20.74019 -20.73961 -20.73942  -1.74537
 Alpha  occ. eigenvalues --   -1.74518  -1.17080  -1.17061  -0.83816  -0.83816
 Alpha  occ. eigenvalues --   -0.83798  -0.83797  -0.78164  -0.78139  -0.51011
 Alpha  occ. eigenvalues --   -0.51011  -0.50992  -0.50992
 Alpha virt. eigenvalues --    0.40744   0.42059   0.67966   0.67976   0.68001
 Alpha virt. eigenvalues --    0.68022   0.71543   0.72495   0.77530   0.78388
 Alpha virt. eigenvalues --    0.79710   0.79770   0.79853   0.80032   0.87048

 Mulliken charges and spin densities:
               1          2
     1  O   -0.000395   0.999564
     2  O    0.000402   1.000432
     3  O    0.000203   1.000244
     4  O   -0.000210   0.999760
 Sum of Mulliken charges =  -0.00000   4.00000

 Dipole moment (field-independent basis, Debye):
    X=             -0.0020    Y=              0.0006    Z=             -0.0000  Tot=              0.0021
 Quadrupole moment (field-independent basis, Debye-Ang):
   XX=            -19.9388   YY=            -20.5601   ZZ=            -19.6382
   XY=              0.3036   XZ=              0.0000   YZ=              0.0000

 Normal termination of Gaussian 16 at Tue Feb 13 20:13:21 2024.
