 Gaussian 16, Revision A.03,
 Gaussian 16:  ES64L-G16RevA.03 25-Dec-2016

 --------------------
 #p ROCCSD(T)/cc-pVTZ
 --------------------

 -------
 O2_O2_4
 -------
 Symbolic Z-matrix:
 Charge =  0 Multiplicity = 5

                         Standard orientation:
 ---------------------------------------------------------------------
 Center     Atomic      Atomic             Coordinates (Angstroms)
 Number     Number       Type             X           Y           Z
 ---------------------------------------------------------------------
      1          8           0        0.615183   -1.425183    0.000000
      2          8           0       -0.205061   -0.604939   -0.000000
      3          8           0       -0.205061    0.435061   -0.000000
      4          8           0       -0.205061    1.595061   -0.000000
 ---------------------------------------------------------------------

 SCF Done:  E(ROHF) =  -298.628721417     A.U. after   20 cycles
 E2 =    -0.9038223397D+00 EUMP2 =    -0.29953254375665D+03
 CCSD(T)
 CCSD(T)= -0.29956199938D+03

 The electronic state is 5-A'.
 Alpha  occ. eigenvalues --  -20.77454 -20.73619 -20.70804 -20.67371  -1.99784
 Alpha  occ. eigenvalues --   -1.73688  -1.54593  -1.05620  -1.01865  -0.99251
 Alpha  occ. eigenvalues --   -0.92186  -0.79379  -0.75380  -0.62454  -0.57661
 Alpha  occ. eigenvalues --   -0.46277  -0.39058  -0.24376
 Alpha virt. eigenvalues --    0.45192   0.51510   0.62010   0.62133   0.63389
 Alpha virt. eigenvalues --    0.66431   0.71441   0.75229   0.78898   0.81351
 Alpha virt. eigenvalues --    0.82909   0.90113   0.91852   0.97599   1.17737

 Mulliken charges and spin densities:
               1          2
     1  O   -0.171493   0.810732
     2  O    0.109706   0.446668
     3  O   -0.011654   1.095735
     4  O    0.073440   1.646866
 Sum of Mulliken charges =  -0.00000   4.00000

 Dipole moment (field-independent basis, Debye):
    X=             -0.3436    Y=              0.4628    Z=             -0.0000  Tot=              0.5764
 Quadrupole moment (field-independent basis, Debye-Ang):
   XX=            -20.3787   YY=            -24.2600   ZZ=            -18.6885
   XY=              0.8279   XZ=             -0.0000   YZ=              0.0000

 14\PMP2-0=-299.5325438\MP4SDQ=-299.5270109\CCSD=-299.5251053\CCSD(T)=-
 Normal termination of Gaussian 16 at Tue Feb 13 12:04:40 2024.
