 Gaussian 16, Revision A.03,
 Gaussian 16:  ES64L-G16RevA.03 25-Dec-2016

 --------------------
 #p ROCCSD(T)/cc-pVTZ
 --------------------

 ---------
 O2_O2_182
 ---------
 Symbolic Z-matrix:
 Charge =  0 Multiplicity = 5

                         Standard orientation:
 ---------------------------------------------------------------------
 Center     Atomic      Atomic             Coordinates (Angstroms)
 Number     Number       Type             X           Y           Z
 ---------------------------------------------------------------------
      1          8           0       -0.870000   -1.990000    0.000000
      2          8           0        0.290000   -1.990000    0.000000
      3          8           0        0.290000    1.410000    0.000000
      4          8           0        0.290000    2.570000    0.000000
 ---------------------------------------------------------------------

 SCF Done:  E(ROHF) =  -299.316649170     A.U. after   16 cycles
 E2 =    -0.9227758620D+00 EUMP2 =    -0.30023942503180D+03
 CCSD(T)
 CCSD(T)= -0.30025014503D+03

 The electronic state is 5-A'.
 Alpha  occ. eigenvalues --  -20.74111 -20.74029 -20.73981 -20.73903  -1.74606
 Alpha  occ. eigenvalues --   -1.74471  -1.17165  -1.17011  -0.83892  -0.83891
 Alpha  occ. eigenvalues --   -0.83754  -0.83749  -0.78292  -0.78035  -0.51154
 Alpha  occ. eigenvalues --   -0.51088  -0.50947  -0.50872
 Alpha virt. eigenvalues --    0.39368   0.41772   0.62489   0.66852   0.67441
 Alpha virt. eigenvalues --    0.68872   0.72031   0.74628   0.76521   0.78267
 Alpha virt. eigenvalues --    0.79176   0.80235   0.80682   0.84759   0.86901

 Mulliken charges and spin densities:
               1          2
     1  O   -0.000323   0.999547
     2  O    0.000723   1.000427
     3  O   -0.002285   0.998842
     4  O    0.001885   1.001184
 Sum of Mulliken charges =   0.00000   4.00000

 Dipole moment (field-independent basis, Debye):
    X=              0.0043    Y=              0.0076    Z=              0.0000  Tot=              0.0087
 Quadrupole moment (field-independent basis, Debye-Ang):
   XX=            -20.2395   YY=            -20.2163   ZZ=            -19.6382
   XY=             -0.0017   XZ=              0.0000   YZ=              0.0000

 5\MP4SDQ=-300.2213045\CCSD=-300.2148223\CCSD(T)=-300.250145\RMSD=2.624
 Normal termination of Gaussian 16 at Tue Feb 13 17:18:17 2024.
