 Gaussian 16, Revision A.03,
 Gaussian 16:  ES64L-G16RevA.03 25-Dec-2016

 --------------------
 #p ROCCSD(T)/cc-pVTZ
 --------------------

 ---------
 O2_O2_289
 ---------
 Symbolic Z-matrix:
 Charge =  0 Multiplicity = 5

                         Standard orientation:
 ---------------------------------------------------------------------
 Center     Atomic      Atomic             Coordinates (Angstroms)
 Number     Number       Type             X           Y           Z
 ---------------------------------------------------------------------
      1          8           0        0.615183   -3.325183    0.000000
      2          8           0       -0.205061   -2.504939    0.000000
      3          8           0       -0.205061    2.335061   -0.000000
      4          8           0       -0.205061    3.495061   -0.000000
 ---------------------------------------------------------------------

 SCF Done:  E(ROHF) =  -299.316591153     A.U. after   16 cycles
 E2 =    -0.9222988183D+00 EUMP2 =    -0.30023888997111D+03
 CCSD(T)
 CCSD(T)= -0.30024966419D+03

 The electronic state is 5-A'.
 Alpha  occ. eigenvalues --  -20.74038 -20.74020 -20.73962 -20.73943  -1.74538
 Alpha  occ. eigenvalues --   -1.74519  -1.17081  -1.17063  -0.83817  -0.83817
 Alpha  occ. eigenvalues --   -0.83799  -0.83799  -0.78164  -0.78143  -0.51012
 Alpha  occ. eigenvalues --   -0.51012  -0.50994  -0.50994
 Alpha virt. eigenvalues --    0.40915   0.41906   0.67979   0.67981   0.68002
 Alpha virt. eigenvalues --    0.68014   0.71690   0.72376   0.77648   0.78305
 Alpha virt. eigenvalues --    0.79731   0.79768   0.79829   0.79921   0.87047

 Mulliken charges and spin densities:
               1          2
     1  O   -0.000373   0.999591
     2  O    0.000376   1.000406
     3  O    0.000191   1.000222
     4  O   -0.000195   0.999780
 Sum of Mulliken charges =  -0.00000   4.00000

 Dipole moment (field-independent basis, Debye):
    X=             -0.0019    Y=              0.0006    Z=             -0.0000  Tot=              0.0020
 Quadrupole moment (field-independent basis, Debye-Ang):
   XX=            -19.9387   YY=            -20.5591   ZZ=            -19.6382
   XY=              0.3035   XZ=             -0.0000   YZ=              0.0000

 12\PMP2-0=-300.23889\MP4SDQ=-300.2208715\CCSD=-300.2143997\CCSD(T)=-30
 Normal termination of Gaussian 16 at Tue Feb 13 20:30:44 2024.
