 Gaussian 16, Revision A.03,
 Gaussian 16:  ES64L-G16RevA.03 25-Dec-2016

 --------------------
 #p ROCCSD(T)/cc-pVTZ
 --------------------

 --------
 O2_O2_18
 --------
 Symbolic Z-matrix:
 Charge =  0 Multiplicity = 5

                         Standard orientation:
 ---------------------------------------------------------------------
 Center     Atomic      Atomic             Coordinates (Angstroms)
 Number     Number       Type             X           Y           Z
 ---------------------------------------------------------------------
      1          8           0        0.000000    0.000000    1.780000
      2          8           0        0.000000    0.000000    0.620000
      3          8           0        0.000000    0.000000   -0.620000
      4          8           0        0.000000    0.000000   -1.780000
 ---------------------------------------------------------------------

 SCF Done:  E(ROHF) =  -298.843741785     A.U. after   13 cycles
 E2 =    -0.9235105672D+00 EUMP2 =    -0.29976725235201D+03
 CCSD(T)
 CCSD(T)= -0.29979558511D+03

 Unable to determine electronic state:  an orbital has unidentified symmetry.
 Alpha  occ. eigenvalues --  -20.76852 -20.76839 -20.69590 -20.69589  -1.85120
 Alpha  occ. eigenvalues --   -1.73135  -1.47707  -1.05544  -0.93559  -0.93023
 Alpha  occ. eigenvalues --   -0.89924  -0.81321  -0.79076  -0.59549  -0.55181
 Alpha  occ. eigenvalues --   -0.46633  -0.44754  -0.42453
 Alpha virt. eigenvalues --    0.42069   0.49790   0.60407   0.63844   0.64630
 Alpha virt. eigenvalues --    0.69078   0.70944   0.73222   0.81127   0.82781
 Alpha virt. eigenvalues --    0.83147   0.97857   0.98044   0.98555   1.08103

 Mulliken charges and spin densities:
               1          2
     1  O   -0.108457   0.959895
     2  O    0.108457   1.040105
     3  O    0.108457   1.040105
     4  O   -0.108457   0.959895
 Sum of Mulliken charges =  -0.00000   4.00000

 Dipole moment (field-independent basis, Debye):
    X=             -0.0000    Y=              0.0000    Z=              0.0000  Tot=              0.0000
 Quadrupole moment (field-independent basis, Debye-Ang):
   XX=            -20.0144   YY=            -18.9235   ZZ=            -24.5885
   XY=              0.0000   XZ=              0.0000   YZ=              0.0000

 299.7578736\CCSD=-299.7559593\CCSD(T)=-299.7955851\RMSD=9.770e-09\PG=D
 Normal termination of Gaussian 16 at Tue Feb 13 12:31:23 2024.
