 Gaussian 16, Revision A.03,
 Gaussian 16:  ES64L-G16RevA.03 25-Dec-2016

 --------------------
 #p ROCCSD(T)/cc-pVTZ
 --------------------

 --------
 O2_O2_26
 --------
 Symbolic Z-matrix:
 Charge =  0 Multiplicity = 5

                         Standard orientation:
 ---------------------------------------------------------------------
 Center     Atomic      Atomic             Coordinates (Angstroms)
 Number     Number       Type             X           Y           Z
 ---------------------------------------------------------------------
      1          8           0       -0.870000   -0.950000    0.000000
      2          8           0        0.290000   -0.950000    0.000000
      3          8           0        0.290000    0.370000    0.000000
      4          8           0        0.290000    1.530000    0.000000
 ---------------------------------------------------------------------

 SCF Done:  E(ROHF) =  -298.954690048     A.U. after   20 cycles
 E2 =    -0.9154991106D+00 EUMP2 =    -0.29987018915873D+03
 CCSD(T)
 CCSD(T)= -0.29989557770D+03

 The electronic state is 5-A'.
 Alpha  occ. eigenvalues --  -20.78157 -20.73625 -20.71690 -20.66241  -1.87406
 Alpha  occ. eigenvalues --   -1.72973  -1.35334  -1.11750  -0.94571  -0.93090
 Alpha  occ. eigenvalues --   -0.88837  -0.80094  -0.75850  -0.60158  -0.56552
 Alpha  occ. eigenvalues --   -0.52277  -0.46724  -0.38908
 Alpha virt. eigenvalues --    0.40933   0.46423   0.60402   0.63980   0.67594
 Alpha virt. eigenvalues --    0.69657   0.72235   0.73007   0.79193   0.79438
 Alpha virt. eigenvalues --    0.83364   0.85782   0.87000   0.98323   1.01622

 Mulliken charges and spin densities:
               1          2
     1  O   -0.146887   0.826491
     2  O    0.053695   0.894995
     3  O    0.148455   1.189830
     4  O   -0.055263   1.088684
 Sum of Mulliken charges =  -0.00000   4.00000

 Dipole moment (field-independent basis, Debye):
    X=              0.7636    Y=              0.5831    Z=              0.0000  Tot=              0.9608
 Quadrupole moment (field-independent basis, Debye-Ang):
   XX=            -20.7393   YY=            -22.2480   ZZ=            -19.1375
   XY=             -0.5569   XZ=              0.0000   YZ=              0.0000

 MP4SDQ=-299.861191\CCSD=-299.8585919\CCSD(T)=-299.8955777\RMSD=9.713e-
 Normal termination of Gaussian 16 at Tue Feb 13 12:48:03 2024.
