 Gaussian 16, Revision A.03,
 Gaussian 16:  ES64L-G16RevA.03 25-Dec-2016

 --------------------
 #p ROCCSD(T)/cc-pVTZ
 --------------------

 ---------
 O2_O2_104
 ---------
 Symbolic Z-matrix:
 Charge =  0 Multiplicity = 5

                         Standard orientation:
 ---------------------------------------------------------------------
 Center     Atomic      Atomic             Coordinates (Angstroms)
 Number     Number       Type             X           Y           Z
 ---------------------------------------------------------------------
      1          8           0       -0.870000   -1.470000    0.000000
      2          8           0        0.290000   -1.470000    0.000000
      3          8           0        0.290000    0.890000    0.000000
      4          8           0        0.290000    2.050000    0.000000
 ---------------------------------------------------------------------

 SCF Done:  E(ROHF) =  -299.307686357     A.U. after   21 cycles
 E2 =    -0.9248189350D+00 EUMP2 =    -0.30023250529239D+03
 CCSD(T)
 CCSD(T)= -0.30024355168D+03

 The electronic state is 5-A'.
 Alpha  occ. eigenvalues --  -20.74137 -20.73803 -20.73743 -20.73381  -1.74797
 Alpha  occ. eigenvalues --   -1.74154  -1.17870  -1.16477  -0.84851  -0.84181
 Alpha  occ. eigenvalues --   -0.83804  -0.83290  -0.78444  -0.76702  -0.51902
 Alpha  occ. eigenvalues --   -0.51326  -0.50523  -0.49971
 Alpha virt. eigenvalues --    0.41038   0.44509   0.63390   0.65072   0.69267
 Alpha virt. eigenvalues --    0.70591   0.71367   0.73451   0.74071   0.77680
 Alpha virt. eigenvalues --    0.78925   0.82523   0.84575   0.86651   0.95121

 Mulliken charges and spin densities:
               1          2
     1  O   -0.006732   0.986087
     2  O    0.006925   1.013745
     3  O    0.005039   0.992425
     4  O   -0.005232   1.007743
 Sum of Mulliken charges =  -0.00000   4.00000

 Dipole moment (field-independent basis, Debye):
    X=              0.0636    Y=              0.0636    Z=              0.0000  Tot=              0.0900
 Quadrupole moment (field-independent basis, Debye-Ang):
   XX=            -20.2725   YY=            -20.4062   ZZ=            -19.6330
   XY=             -0.0819   XZ=              0.0000   YZ=              0.0000

 5053\MP4SDQ=-300.2142374\CCSD=-300.2078833\CCSD(T)=-300.2435517\RMSD=6
 Normal termination of Gaussian 16 at Tue Feb 13 15:17:20 2024.
