 Gaussian 16, Revision A.03,
 Gaussian 16:  ES64L-G16RevA.03 25-Dec-2016

 --------------------
 #p ROCCSD(T)/cc-pVTZ
 --------------------

 ---------
 O2_O2_201
 ---------
 Symbolic Z-matrix:
 Charge =  0 Multiplicity = 5

                         Standard orientation:
 ---------------------------------------------------------------------
 Center     Atomic      Atomic             Coordinates (Angstroms)
 Number     Number       Type             X           Y           Z
 ---------------------------------------------------------------------
      1          8           0        0.000000    0.000000    3.000000
      2          8           0        0.000000    0.000000    1.840000
      3          8           0        0.000000    0.000000   -1.840000
      4          8           0        0.000000    0.000000   -3.000000
 ---------------------------------------------------------------------

 SCF Done:  E(ROHF) =  -299.316607492     A.U. after   12 cycles
 E2 =    -0.9225474536D+00 EUMP2 =    -0.30023915494600D+03
 CCSD(T)
 CCSD(T)= -0.30024988445D+03

 The electronic state is 5-SGG.
 Alpha  occ. eigenvalues --  -20.74002 -20.74002 -20.73922 -20.73922  -1.74502
 Alpha  occ. eigenvalues --   -1.74498  -1.17081  -1.16999  -0.83788  -0.83788
 Alpha  occ. eigenvalues --   -0.83771  -0.83771  -0.78246  -0.77990  -0.51010
 Alpha  occ. eigenvalues --   -0.51010  -0.50936  -0.50936
 Alpha virt. eigenvalues --    0.35868   0.46028   0.66276   0.67632   0.67632
 Alpha virt. eigenvalues --    0.68353   0.68353   0.74964   0.76909   0.78655
 Alpha virt. eigenvalues --    0.78655   0.81070   0.81070   0.85996   0.87059

 Mulliken charges and spin densities:
               1          2
     1  O    0.000148   0.999122
     2  O   -0.000148   1.000878
     3  O   -0.000148   1.000878
     4  O    0.000148   0.999122
 Sum of Mulliken charges =   0.00000   4.00000

 Dipole moment (field-independent basis, Debye):
    X=              0.0000    Y=              0.0000    Z=             -0.0000  Tot=              0.0000
 Quadrupole moment (field-independent basis, Debye-Ang):
   XX=            -19.6385   YY=            -19.6385   ZZ=            -20.8939
   XY=              0.0000   XZ=              0.0000   YZ=              0.0000

 91549\MP4SDQ=-300.221085\CCSD=-300.2145932\CCSD(T)=-300.2498844\RMSD=1
 Normal termination of Gaussian 16 at Tue Feb 13 17:46:13 2024.
