 Gaussian 16, Revision A.03,
 Gaussian 16:  ES64L-G16RevA.03 25-Dec-2016

 --------------------
 #p ROCCSD(T)/cc-pVTZ
 --------------------

 --------
 O2_O2_49
 --------
 Symbolic Z-matrix:
 Charge =  0 Multiplicity = 5

                         Standard orientation:
 ---------------------------------------------------------------------
 Center     Atomic      Atomic             Coordinates (Angstroms)
 Number     Number       Type             X           Y           Z
 ---------------------------------------------------------------------
      1          8           0        0.615183   -1.725183    0.000000
      2          8           0       -0.205061   -0.904939    0.000000
      3          8           0       -0.205061    0.735061   -0.000000
      4          8           0       -0.205061    1.895061   -0.000000
 ---------------------------------------------------------------------

 SCF Done:  E(ROHF) =  -299.194860657     A.U. after   22 cycles
 E2 =    -0.9235854333D+00 EUMP2 =    -0.30011844609042D+03
 CCSD(T)
 CCSD(T)= -0.30013786466D+03

 The electronic state is 5-A'.
 Alpha  occ. eigenvalues --  -20.74463 -20.72854 -20.71463 -20.70668  -1.76205
 Alpha  occ. eigenvalues --   -1.72975  -1.26848  -1.11476  -0.88048  -0.85752
 Alpha  occ. eigenvalues --   -0.85025  -0.81769  -0.79852  -0.67559  -0.54127
 Alpha  occ. eigenvalues --   -0.52294  -0.47285  -0.46680
 Alpha virt. eigenvalues --    0.44546   0.48316   0.64445   0.64960   0.70247
 Alpha virt. eigenvalues --    0.70879   0.71622   0.75393   0.76929   0.79072
 Alpha virt. eigenvalues --    0.79829   0.84907   0.93141   0.96070   0.99446

 Mulliken charges and spin densities:
               1          2
     1  O   -0.059088   0.946560
     2  O    0.038183   1.020316
     3  O    0.023878   0.965347
     4  O   -0.002973   1.067777
 Sum of Mulliken charges =  -0.00000   4.00000

 Dipole moment (field-independent basis, Debye):
    X=             -0.1751    Y=              0.5534    Z=             -0.0000  Tot=              0.5804
 Quadrupole moment (field-independent basis, Debye-Ang):
   XX=            -20.1422   YY=            -21.5709   ZZ=            -19.4975
   XY=              0.5575   XZ=             -0.0000   YZ=              0.0000

 607\PMP2-0=-300.1184461\MP4SDQ=-300.1054505\CCSD=-300.101164\CCSD(T)=-
 Normal termination of Gaussian 16 at Tue Feb 13 13:35:13 2024.
