 Gaussian 16, Revision A.03,
 Gaussian 16:  ES64L-G16RevA.03 25-Dec-2016

 --------------------
 #p ROCCSD(T)/cc-pVTZ
 --------------------

 -------
 O2_O2_3
 -------
 Symbolic Z-matrix:
 Charge =  0 Multiplicity = 5

                         Standard orientation:
 ---------------------------------------------------------------------
 Center     Atomic      Atomic             Coordinates (Angstroms)
 Number     Number       Type             X           Y           Z
 ---------------------------------------------------------------------
      1          8           0        0.000000    0.000000    1.680000
      2          8           0        0.000000    0.000000    0.520000
      3          8           0        0.000000    0.000000   -0.520000
      4          8           0        0.000000    0.000000   -1.680000
 ---------------------------------------------------------------------

 SCF Done:  E(ROHF) =  -298.584067169     A.U. after   13 cycles
 E2 =    -0.9245746249D+00 EUMP2 =    -0.29950864179383D+03
 CCSD(T)
 CCSD(T)= -0.29953578566D+03

 Unable to determine electronic state:  an orbital has unidentified symmetry.
 Alpha  occ. eigenvalues --  -20.77845 -20.77729 -20.67099 -20.67097  -1.99791
 Alpha  occ. eigenvalues --   -1.72420  -1.56523  -1.02991  -1.02650  -1.01974
 Alpha  occ. eigenvalues --   -0.90723  -0.79188  -0.76655  -0.61492  -0.56390
 Alpha  occ. eigenvalues --   -0.39843  -0.38031  -0.26161
 Alpha virt. eigenvalues --    0.35519   0.49142   0.55721   0.61825   0.62546
 Alpha virt. eigenvalues --    0.66250   0.71398   0.73893   0.81996   0.82618
 Alpha virt. eigenvalues --    0.83761   0.98868   0.99270   1.11592   1.24122

 Mulliken charges and spin densities:
               1          2
     1  O   -0.098473   1.002250
     2  O    0.098473   0.997750
     3  O    0.098473   0.997750
     4  O   -0.098473   1.002250
 Sum of Mulliken charges =  -0.00000   4.00000

 Dipole moment (field-independent basis, Debye):
    X=             -0.0000    Y=              0.0000    Z=              0.0000  Tot=              0.0000
 Quadrupole moment (field-independent basis, Debye-Ang):
   XX=            -19.6500   YY=            -18.5754   ZZ=            -26.6567
   XY=             -0.0000   XZ=              0.0000   YZ=             -0.0000

 99.4975203\CCSD=-299.4954176\CCSD(T)=-299.5357857\RMSD=2.303e-09\PG=D*
 Normal termination of Gaussian 16 at Tue Feb 13 12:02:16 2024.
