 Gaussian 16, Revision A.03,
 Gaussian 16:  ES64L-G16RevA.03 25-Dec-2016

 --------------------
 #p ROCCSD(T)/cc-pVTZ
 --------------------

 ---------
 O2_O2_168
 ---------
 Symbolic Z-matrix:
 Charge =  0 Multiplicity = 5

                         Standard orientation:
 ---------------------------------------------------------------------
 Center     Atomic      Atomic             Coordinates (Angstroms)
 Number     Number       Type             X           Y           Z
 ---------------------------------------------------------------------
      1          8           0        0.000000    0.000000    2.780000
      2          8           0        0.000000    0.000000    1.620000
      3          8           0        0.000000    0.000000   -1.620000
      4          8           0        0.000000    0.000000   -2.780000
 ---------------------------------------------------------------------

 SCF Done:  E(ROHF) =  -299.316485443     A.U. after   12 cycles
 E2 =    -0.9228438547D+00 EUMP2 =    -0.30023932929794D+03
 CCSD(T)
 CCSD(T)= -0.30025002531D+03

 The electronic state is 5-SGG.
 Alpha  occ. eigenvalues --  -20.73979 -20.73979 -20.73899 -20.73899  -1.74488
 Alpha  occ. eigenvalues --   -1.74473  -1.17154  -1.16891  -0.83787  -0.83787
 Alpha  occ. eigenvalues --   -0.83732  -0.83732  -0.78439  -0.77756  -0.51055
 Alpha  occ. eigenvalues --   -0.51055  -0.50850  -0.50850
 Alpha virt. eigenvalues --    0.35763   0.47290   0.64997   0.66957   0.66957
 Alpha virt. eigenvalues --    0.68763   0.68763   0.75443   0.77328   0.77328
 Alpha virt. eigenvalues --    0.77733   0.82959   0.82959   0.86358   0.87040

 Mulliken charges and spin densities:
               1          2
     1  O   -0.000109   0.998857
     2  O    0.000109   1.001143
     3  O    0.000109   1.001143
     4  O   -0.000109   0.998857
 Sum of Mulliken charges =  -0.00000   4.00000

 Dipole moment (field-independent basis, Debye):
    X=              0.0000    Y=             -0.0000    Z=             -0.0000  Tot=              0.0000
 Quadrupole moment (field-independent basis, Debye-Ang):
   XX=            -19.6387   YY=            -19.6387   ZZ=            -20.9178
   XY=              0.0000   XZ=              0.0000   YZ=              0.0000

 3293\MP4SDQ=-300.2212119\CCSD=-300.2146995\CCSD(T)=-300.2500253\RMSD=1
 Normal termination of Gaussian 16 at Tue Feb 13 16:55:52 2024.
