 Gaussian 16, Revision A.03,
 Gaussian 16:  ES64L-G16RevA.03 25-Dec-2016

 --------------------
 #p ROCCSD(T)/cc-pVTZ
 --------------------

 ---------
 O2_O2_193
 ---------
 Symbolic Z-matrix:
 Charge =  0 Multiplicity = 5

                         Standard orientation:
 ---------------------------------------------------------------------
 Center     Atomic      Atomic             Coordinates (Angstroms)
 Number     Number       Type             X           Y           Z
 ---------------------------------------------------------------------
      1          8           0        0.615183   -2.685183   -0.000000
      2          8           0       -0.205061   -1.864939   -0.000000
      3          8           0       -0.205061    1.695061    0.000000
      4          8           0       -0.205061    2.855061    0.000000
 ---------------------------------------------------------------------

 SCF Done:  E(ROHF) =  -299.316615319     A.U. after   17 cycles
 E2 =    -0.9226078809D+00 EUMP2 =    -0.30023922320002D+03
 CCSD(T)
 CCSD(T)= -0.30024995061D+03

 The electronic state is 5-A'.
 Alpha  occ. eigenvalues --  -20.74020 -20.74003 -20.73942 -20.73923  -1.74520
 Alpha  occ. eigenvalues --   -1.74498  -1.17104  -1.16996  -0.83805  -0.83803
 Alpha  occ. eigenvalues --   -0.83773  -0.83772  -0.78266  -0.77990  -0.51031
 Alpha  occ. eigenvalues --   -0.51009  -0.50949  -0.50935
 Alpha virt. eigenvalues --    0.37251   0.44601   0.64857   0.67467   0.67770
 Alpha virt. eigenvalues --    0.68456   0.69531   0.74408   0.76688   0.78005
 Alpha virt. eigenvalues --    0.78418   0.80698   0.81354   0.86060   0.87039

 Mulliken charges and spin densities:
               1          2
     1  O   -0.000299   0.999085
     2  O    0.000535   1.000759
     3  O   -0.000510   1.000737
     4  O    0.000273   0.999419
 Sum of Mulliken charges =  -0.00000   4.00000

 Dipole moment (field-independent basis, Debye):
    X=             -0.0045    Y=             -0.0029    Z=              0.0000  Tot=              0.0053
 Quadrupole moment (field-independent basis, Debye-Ang):
   XX=            -19.9394   YY=            -20.5733   ZZ=            -19.6385
   XY=              0.3070   XZ=             -0.0000   YZ=             -0.0000

 \PMP2-0=-300.2392232\MP4SDQ=-300.2211406\CCSD=-300.2146506\CCSD(T)=-30
 Normal termination of Gaussian 16 at Tue Feb 13 17:34:31 2024.
