 Gaussian 16, Revision A.03,
 Gaussian 16:  ES64L-G16RevA.03 25-Dec-2016

 ------------------
 #p CCSD(T)/CEP-31G
 ------------------

 ------------
 H2O_H2O_3611
 ------------
 Symbolic Z-matrix:
 Charge =  0 Multiplicity = 1

                         Standard orientation:
 ---------------------------------------------------------------------
 Center     Atomic      Atomic             Coordinates (Angstroms)
 Number     Number       Type             X           Y           Z
 ---------------------------------------------------------------------
      1          8           0        0.059632    2.547095   -0.000000
      2          1           0        0.058482    1.564495   -0.000000
      3          1           0       -0.869487    2.866850    0.000000
      4          8           0        0.059632   -2.369638   -0.000000
      5          1           0        0.706641   -3.109155   -0.000000
      6          1           0       -0.849746   -2.741846    0.000000
 ---------------------------------------------------------------------

 SCF Done:  E(RHF) =  -33.6539106465     A.U. after   11 cycles
 E2 =    -0.2283042610D+00 EUMP2 =    -0.33882214907508D+02
 CCSD(T)
 CCSD(T)= -0.33899154861D+02

 The electronic state is 1-A'.
 Alpha  occ. eigenvalues --   -1.36489  -1.34388  -0.72134  -0.70007  -0.56348
 Alpha  occ. eigenvalues --   -0.54180  -0.51090  -0.48990
 Alpha virt. eigenvalues --    0.19238   0.21659   0.29632   0.31886   0.79474
 Alpha virt. eigenvalues --    0.81512   0.82257   0.84552   0.85453   0.87707
 Alpha virt. eigenvalues --    1.16503   1.18676   1.20918   1.23601   2.56476

 Mulliken charges:
               1
     1  O   -0.749402
     2  H    0.383079
     3  H    0.366124
     4  O   -0.748591
     5  H    0.376712
     6  H    0.372078
 Sum of Mulliken charges =   0.00000

 Dipole moment (field-independent basis, Debye):
    X=             -2.7301    Y=             -4.1977    Z=              0.0000  Tot=              5.0074
 Quadrupole moment (field-independent basis, Debye-Ang):
   XX=             -9.6724   YY=             -6.1221   ZZ=            -14.9928
   XY=             -5.5771   XZ=             -0.0000   YZ=              0.0000

 5\MP4DQ=-33.8935209\MP4SDQ=-33.8955476\CCSD=-33.8965955\CCSD(T)=-33.89
 Normal termination of Gaussian 16 at Sun Dec 10 06:37:58 2023.
