 Gaussian 16, Revision A.03,
 Gaussian 16:  ES64L-G16RevA.03 25-Dec-2016

 ------------------
 #p CCSD(T)/CEP-31G
 ------------------

 ------------
 H2O_H2O_2361
 ------------
 Symbolic Z-matrix:
 Charge =  0 Multiplicity = 1

                         Standard orientation:
 ---------------------------------------------------------------------
 Center     Atomic      Atomic             Coordinates (Angstroms)
 Number     Number       Type             X           Y           Z
 ---------------------------------------------------------------------
      1          8           0        0.059658    2.048482    0.000000
      2          1           0        0.058216    1.065881    0.000000
      3          1           0       -0.869366    2.368512    0.000000
      4          8           0        0.059658   -1.871060   -0.000000
      5          1           0        0.706448   -2.610769   -0.000000
      6          1           0       -0.849830   -2.242996   -0.000000
 ---------------------------------------------------------------------

 SCF Done:  E(RHF) =  -33.6564954087     A.U. after   11 cycles
 E2 =    -0.2284826284D+00 EUMP2 =    -0.33884978037099D+02
 CCSD(T)
 CCSD(T)= -0.33901882447D+02

 The electronic state is 1-A'.
 Alpha  occ. eigenvalues --   -1.37109  -1.33578  -0.72766  -0.69187  -0.57153
 Alpha  occ. eigenvalues --   -0.53398  -0.51744  -0.48205
 Alpha virt. eigenvalues --    0.18246   0.23176   0.29150   0.33594   0.78755
 Alpha virt. eigenvalues --    0.82349   0.83808   0.85268   0.86413   0.88569
 Alpha virt. eigenvalues --    1.15937   1.19874   1.20415   1.30322   2.53765

 Mulliken charges:
               1
     1  O   -0.760724
     2  H    0.397380
     3  H    0.361430
     4  O   -0.756412
     5  H    0.383290
     6  H    0.375036
 Sum of Mulliken charges =   0.00000

 Dipole moment (field-independent basis, Debye):
    X=             -2.7050    Y=             -4.3158    Z=             -0.0000  Tot=              5.0934
 Quadrupole moment (field-independent basis, Debye-Ang):
   XX=             -9.6721   YY=             -7.2082   ZZ=            -14.9977
   XY=             -4.8005   XZ=             -0.0000   YZ=              0.0000

 7\MP4DQ=-33.8961999\MP4SDQ=-33.8982622\CCSD=-33.8992919\CCSD(T)=-33.90
 Normal termination of Gaussian 16 at Sun Dec 10 07:04:53 2023.
