 Gaussian 16, Revision A.03,
 Gaussian 16:  ES64L-G16RevA.03 25-Dec-2016

 ------------------
 #p CCSD(T)/CEP-31G
 ------------------

 ------------
 H2O_H2O_1897
 ------------
 Symbolic Z-matrix:
 Charge =  0 Multiplicity = 1

                         Standard orientation:
 ---------------------------------------------------------------------
 Center     Atomic      Atomic             Coordinates (Angstroms)
 Number     Number       Type             X           Y           Z
 ---------------------------------------------------------------------
      1          8           0       -0.019926    1.853402    0.000000
      2          1           0       -0.016422    0.870807    0.000000
      3          1           0        0.908424    2.175382    0.000000
      4          8           0       -0.019926   -1.686330    0.000000
      5          1           0       -0.993658   -1.818058    0.000000
      6          1           0        0.420473   -2.564712    0.000000
 ---------------------------------------------------------------------

 SCF Done:  E(RHF) =  -33.6590109915     A.U. after   11 cycles
 E2 =    -0.2285741235D+00 EUMP2 =    -0.33887585114945D+02
 CCSD(T)
 CCSD(T)= -0.33904466801D+02

 The electronic state is 1-A'.
 Alpha  occ. eigenvalues --   -1.37449  -1.33214  -0.73135  -0.68907  -0.57701
 Alpha  occ. eigenvalues --   -0.53079  -0.52112  -0.47889
 Alpha virt. eigenvalues --    0.17894   0.24210   0.28978   0.35575   0.78078
 Alpha virt. eigenvalues --    0.82046   0.82972   0.86104   0.88129   0.94195
 Alpha virt. eigenvalues --    1.15676   1.19617   1.20831   1.35208   2.52184

 Mulliken charges:
               1
     1  O   -0.772297
     2  H    0.404213
     3  H    0.365494
     4  O   -0.768298
     5  H    0.383381
     6  H    0.387507
 Sum of Mulliken charges =   0.00000

 Dipole moment (field-independent basis, Debye):
    X=              0.8956    Y=             -4.1307    Z=              0.0000  Tot=              4.2267
 Quadrupole moment (field-independent basis, Debye-Ang):
   XX=             -9.6599   YY=             -8.0117   ZZ=            -15.0025
   XY=              6.2681   XZ=              0.0000   YZ=              0.0000

 915\MP4DQ=-33.8987366\MP4SDQ=-33.9008226\CCSD=-33.9018429\CCSD(T)=-33.
 Normal termination of Gaussian 16 at Sun Dec 10 06:54:42 2023.
