 Gaussian 16, Revision A.03,
 Gaussian 16:  ES64L-G16RevA.03 25-Dec-2016

 ------------------
 #p CCSD(T)/CEP-31G
 ------------------

 ------------
 H2O_H2O_2137
 ------------
 Symbolic Z-matrix:
 Charge =  0 Multiplicity = 1

                         Standard orientation:
 ---------------------------------------------------------------------
 Center     Atomic      Atomic             Coordinates (Angstroms)
 Number     Number       Type             X           Y           Z
 ---------------------------------------------------------------------
      1          8           0        0.056016    1.959524    0.000000
      2          1           0        0.054339    0.976924    0.000000
      3          1           0       -0.872931    2.279777   -0.000000
      4          8           0        0.056016   -1.780649    0.000000
      5          1           0        0.749634   -2.476639    0.000000
      6          1           0       -0.827302   -2.211062   -0.000000
 ---------------------------------------------------------------------

 SCF Done:  E(RHF) =  -33.6575192876     A.U. after   11 cycles
 E2 =    -0.2285531069D+00 EUMP2 =    -0.33886072394429D+02
 CCSD(T)
 CCSD(T)= -0.33902961692D+02

 The electronic state is 1-A'.
 Alpha  occ. eigenvalues --   -1.37275  -1.33302  -0.72930  -0.68927  -0.57411
 Alpha  occ. eigenvalues --   -0.53129  -0.51923  -0.47941
 Alpha virt. eigenvalues --    0.18161   0.23642   0.29047   0.34506   0.78483
 Alpha virt. eigenvalues --    0.82700   0.83370   0.85632   0.88270   0.89008
 Alpha virt. eigenvalues --    1.15794   1.20147   1.20293   1.31874   2.52510

 Mulliken charges:
               1
     1  O   -0.765279
     2  H    0.402790
     3  H    0.360293
     4  O   -0.760180
     5  H    0.385449
     6  H    0.376928
 Sum of Mulliken charges =  -0.00000

 Dipole moment (field-independent basis, Debye):
    X=             -2.5309    Y=             -4.3844    Z=             -0.0000  Tot=              5.0625
 Quadrupole moment (field-independent basis, Debye-Ang):
   XX=             -9.5811   YY=             -7.3663   ZZ=            -14.9998
   XY=             -4.8410   XZ=              0.0000   YZ=             -0.0000

 137\MP4DQ=-33.8972605\MP4SDQ=-33.8993311\CCSD=-33.9003571\CCSD(T)=-33.
 Normal termination of Gaussian 16 at Sun Dec 10 06:59:18 2023.
