 Gaussian 16, Revision A.03,
 Gaussian 16:  ES64L-G16RevA.03 25-Dec-2016

 ------------------
 #p CCSD(T)/CEP-31G
 ------------------

 ------------
 H2O_H2O_1915
 ------------
 Symbolic Z-matrix:
 Charge =  0 Multiplicity = 1

                         Standard orientation:
 ---------------------------------------------------------------------
 Center     Atomic      Atomic             Coordinates (Angstroms)
 Number     Number       Type             X           Y           Z
 ---------------------------------------------------------------------
      1          8           0        0.044903    1.870584   -0.000000
      2          1           0        0.042610    0.887985   -0.000000
      3          1           0       -0.883844    2.191418   -0.000000
      4          8           0        0.044903   -1.690229    0.000000
      5          1           0        0.860630   -2.238038    0.000000
      6          1           0       -0.737845   -2.284207    0.000000
 ---------------------------------------------------------------------

 SCF Done:  E(RHF) =  -33.6590666075     A.U. after   11 cycles
 E2 =    -0.2286260021D+00 EUMP2 =    -0.33887692609644D+02
 CCSD(T)
 CCSD(T)= -0.33904545636D+02

 The electronic state is 1-A'.
 Alpha  occ. eigenvalues --   -1.37457  -1.32951  -0.73104  -0.68625  -0.57733
 Alpha  occ. eigenvalues --   -0.52791  -0.52129  -0.47610
 Alpha virt. eigenvalues --    0.18133   0.24196   0.28952   0.35803   0.78125
 Alpha virt. eigenvalues --    0.82536   0.83177   0.86123   0.89056   0.91214
 Alpha virt. eigenvalues --    1.15653   1.20050   1.20589   1.32887   2.51199

 Mulliken charges:
               1
     1  O   -0.771822
     2  H    0.409482
     3  H    0.360088
     4  O   -0.766301
     5  H    0.387048
     6  H    0.381504
 Sum of Mulliken charges =   0.00000

 Dipole moment (field-independent basis, Debye):
    X=             -2.0197    Y=             -4.4570    Z=              0.0000  Tot=              4.8933
 Quadrupole moment (field-independent basis, Debye-Ang):
   XX=             -9.4137   YY=             -7.5511   ZZ=            -15.0032
   XY=             -5.1565   XZ=              0.0000   YZ=             -0.0000

 845\MP4DQ=-33.8988265\MP4SDQ=-33.9009021\CCSD=-33.9019226\CCSD(T)=-33.
 Normal termination of Gaussian 16 at Sun Dec 10 06:55:02 2023.
