 Gaussian 16, Revision A.03,
 Gaussian 16:  ES64L-G16RevA.03 25-Dec-2016

 ------------------
 #p CCSD(T)/CEP-31G
 ------------------

 ------------
 H2O_H2O_3671
 ------------
 Symbolic Z-matrix:
 Charge =  0 Multiplicity = 1

                         Standard orientation:
 ---------------------------------------------------------------------
 Center     Atomic      Atomic             Coordinates (Angstroms)
 Number     Number       Type             X           Y           Z
 ---------------------------------------------------------------------
      1          8           0       -0.023190    2.563210    0.000000
      2          1           0       -0.020801    1.580611    0.000000
      3          1           0        0.905526    2.884135    0.000000
      4          8           0       -0.023190   -2.392812    0.000000
      5          1           0       -0.986443   -2.586850    0.000000
      6          1           0        0.472752   -3.241075    0.000000
 ---------------------------------------------------------------------

 SCF Done:  E(RHF) =  -33.6542767214     A.U. after   11 cycles
 E2 =    -0.2282744353D+00 EUMP2 =    -0.33882551156685D+02
 CCSD(T)
 CCSD(T)= -0.33899482681D+02

 The electronic state is 1-A'.
 Alpha  occ. eigenvalues --   -1.36447  -1.34465  -0.72091  -0.70103  -0.56324
 Alpha  occ. eigenvalues --   -0.54281  -0.51055  -0.49078
 Alpha virt. eigenvalues --    0.19283   0.21599   0.29684   0.31826   0.79504
 Alpha virt. eigenvalues --    0.81421   0.82256   0.84390   0.85518   0.87545
 Alpha virt. eigenvalues --    1.16554   1.18622   1.20950   1.23526   2.56512

 Mulliken charges:
               1
     1  O   -0.750822
     2  H    0.381763
     3  H    0.368902
     4  O   -0.749889
     5  H    0.375122
     6  H    0.374925
 Sum of Mulliken charges =  -0.00000

 Dipole moment (field-independent basis, Debye):
    X=              1.0608    Y=             -4.0226    Z=              0.0000  Tot=              4.1601
 Quadrupole moment (field-independent basis, Debye-Ang):
   XX=             -9.5952   YY=             -6.5662   ZZ=            -14.9935
   XY=              8.3985   XZ=              0.0000   YZ=              0.0000

 1005\MP4DQ=-33.8938518\MP4SDQ=-33.8958767\CCSD=-33.8969247\CCSD(T)=-33
 Normal termination of Gaussian 16 at Sun Dec 10 06:39:03 2023.
