 Gaussian 16, Revision A.03,
 Gaussian 16:  ES64L-G16RevA.03 25-Dec-2016

 ------------------
 #p CCSD(T)/CEP-31G
 ------------------

 ------------
 H2O_H2O_4430
 ------------
 Symbolic Z-matrix:
 Charge =  0 Multiplicity = 1

                         Standard orientation:
 ---------------------------------------------------------------------
 Center     Atomic      Atomic             Coordinates (Angstroms)
 Number     Number       Type             X           Y           Z
 ---------------------------------------------------------------------
      1          8           0        0.079844    2.866183    0.000000
      2          1           0        0.079445    1.883582    0.000000
      3          1           0       -0.849519    3.185227   -0.000000
      4          8           0        0.079844   -2.707107    0.000000
      5          1           0        0.395314   -3.637689    0.000000
      6          1           0       -0.902752   -2.703728   -0.000000
 ---------------------------------------------------------------------

 SCF Done:  E(RHF) =  -33.6525848838     A.U. after   11 cycles
 E2 =    -0.2283339092D+00 EUMP2 =    -0.33880918792987D+02
 CCSD(T)
 CCSD(T)= -0.33897897133D+02

 The electronic state is 1-A'.
 Alpha  occ. eigenvalues --   -1.36299  -1.34894  -0.71944  -0.70514  -0.56082
 Alpha  occ. eigenvalues --   -0.54648  -0.50881  -0.49475
 Alpha virt. eigenvalues --    0.19473   0.20989   0.29760   0.31237   0.79679
 Alpha virt. eigenvalues --    0.81055   0.82592   0.84064   0.85700   0.87232
 Alpha virt. eigenvalues --    1.16636   1.18045   1.21081   1.22575   2.56603

 Mulliken charges:
               1
     1  O   -0.744283
     2  H    0.377126
     3  H    0.367147
     4  O   -0.744358
     5  H    0.374807
     6  H    0.369561
 Sum of Mulliken charges =   0.00000

 Dipole moment (field-independent basis, Debye):
    X=             -3.6704    Y=             -3.7353    Z=             -0.0000  Tot=              5.2368
 Quadrupole moment (field-independent basis, Debye-Ang):
   XX=            -10.4750   YY=             -7.0810   ZZ=            -14.9899
   XY=             -4.0269   XZ=              0.0000   YZ=             -0.0000

 4\MP4DQ=-33.8922578\MP4SDQ=-33.8942837\CCSD=-33.8953372\CCSD(T)=-33.89
 Normal termination of Gaussian 16 at Sun Dec 10 06:52:44 2023.
