 Gaussian 16, Revision A.03,
 Gaussian 16:  ES64L-G16RevA.03 25-Dec-2016

 ------------------
 #p CCSD(T)/CEP-31G
 ------------------

 -----------
 H2O_H2O_222
 -----------
 Symbolic Z-matrix:
 Charge =  0 Multiplicity = 1

                         Standard orientation:
 ---------------------------------------------------------------------
 Center     Atomic      Atomic             Coordinates (Angstroms)
 Number     Number       Type             X           Y           Z
 ---------------------------------------------------------------------
      1          8           0        0.020107   -1.185246    0.000000
      2          1           0        0.014477   -0.202661    0.000000
      3          1           0       -0.907545   -1.509233    0.000000
      4          8           0        0.020107    1.018260    0.000000
      5          1           0        0.993551    1.152095    0.000000
      6          1           0       -0.422191    1.895688    0.000000
 ---------------------------------------------------------------------

 SCF Done:  E(RHF) =  -33.6228486812     A.U. after   11 cycles
 E2 =    -0.2274288304D+00 EUMP2 =    -0.33850277511591D+02
 CCSD(T)
 CCSD(T)= -0.33865298611D+02

 The electronic state is 1-A'.
 Alpha  occ. eigenvalues --   -1.44019  -1.27845  -0.80727  -0.73102  -0.57621
 Alpha  occ. eigenvalues --   -0.56880  -0.45565  -0.42110
 Alpha virt. eigenvalues --    0.16934   0.25265   0.29642   0.60278   0.73455
 Alpha virt. eigenvalues --    0.74659   0.89011   0.90889   0.93363   1.02539
 Alpha virt. eigenvalues --    1.14029   1.20358   1.29567   1.39644   2.89507

 Mulliken charges:
               1
     1  O   -0.749776
     2  H    0.324158
     3  H    0.331767
     4  O   -0.819175
     5  H    0.431805
     6  H    0.481221
 Sum of Mulliken charges =   0.00000

 Dipole moment (field-independent basis, Debye):
    X=             -0.8733    Y=              5.2123    Z=              0.0000  Tot=              5.2850
 Quadrupole moment (field-independent basis, Debye-Ang):
   XX=             -9.5442   YY=            -10.2216   ZZ=            -14.9609
   XY=              3.7952   XZ=              0.0000   YZ=              0.0000

 69\MP4DQ=-33.8592013\MP4SDQ=-33.8614855\CCSD=-33.8621805\CCSD(T)=-33.8
 Normal termination of Gaussian 16 at Sun Dec 10 06:22:25 2023.
