 Gaussian 16, Revision A.03,
 Gaussian 16:  ES64L-G16RevA.03 25-Dec-2016

 ------------------
 #p CCSD(T)/CEP-31G
 ------------------

 -----------
 H2O_H2O_301
 -----------
 Symbolic Z-matrix:
 Charge =  0 Multiplicity = 1

                         Standard orientation:
 ---------------------------------------------------------------------
 Center     Atomic      Atomic             Coordinates (Angstroms)
 Number     Number       Type             X           Y           Z
 ---------------------------------------------------------------------
      1          8           0        0.090691   -1.209743    0.000000
      2          1           0        0.090522   -0.227142    0.000000
      3          1           0       -0.838748   -1.528569    0.000000
      4          8           0        0.090691    1.071050    0.000000
      5          1           0        0.154787    2.051559    0.000000
      6          1           0       -0.857611    0.813695    0.000000
 ---------------------------------------------------------------------

 SCF Done:  E(RHF) =  -33.6124711385     A.U. after   11 cycles
 E2 =    -0.2287975341D+00 EUMP2 =    -0.33841268672575D+02
 CCSD(T)
 CCSD(T)= -0.33857228017D+02

 The electronic state is 1-A'.
 Alpha  occ. eigenvalues --   -1.43909  -1.30752  -0.82044  -0.69640  -0.58257
 Alpha  occ. eigenvalues --   -0.56993  -0.49302  -0.44944
 Alpha virt. eigenvalues --    0.16189   0.23852   0.28965   0.56296   0.73120
 Alpha virt. eigenvalues --    0.76642   0.87405   0.89029   0.95401   1.10834
 Alpha virt. eigenvalues --    1.12658   1.24036   1.26671   1.46845   2.79988

 Mulliken charges:
               1
     1  O   -0.680363
     2  H    0.272477
     3  H    0.318149
     4  O   -0.760804
     5  H    0.474758
     6  H    0.375783
 Sum of Mulliken charges =  -0.00000

 Dipole moment (field-independent basis, Debye):
    X=             -3.8362    Y=              4.3627    Z=              0.0000  Tot=              5.8094
 Quadrupole moment (field-independent basis, Debye-Ang):
   XX=            -11.2020   YY=            -10.1527   ZZ=            -14.9368
   XY=              2.2997   XZ=              0.0000   YZ=              0.0000

 978\MP4DQ=-33.8508842\MP4SDQ=-33.8533691\CCSD=-33.8541062\CCSD(T)=-33.
 Normal termination of Gaussian 16 at Sun Dec 10 06:23:59 2023.
