 Gaussian 16, Revision A.03,
 Gaussian 16:  ES64L-G16RevA.03 25-Dec-2016

 ------------------
 #p CCSD(T)/CEP-31G
 ------------------

 ------------
 H2O_H2O_1982
 ------------
 Symbolic Z-matrix:
 Charge =  0 Multiplicity = 1

                         Standard orientation:
 ---------------------------------------------------------------------
 Center     Atomic      Atomic             Coordinates (Angstroms)
 Number     Number       Type             X           Y           Z
 ---------------------------------------------------------------------
      1          8           0        0.073551    1.893193   -0.000000
      2          1           0        0.072641    0.910592   -0.000000
      3          1           0       -0.855646    2.212721   -0.000000
      4          8           0        0.073551   -1.726279    0.000000
      5          1           0        0.507329   -2.607950    0.000000
      6          1           0       -0.901144   -1.850677    0.000000
 ---------------------------------------------------------------------

 SCF Done:  E(RHF) =  -33.6564773275     A.U. after   11 cycles
 E2 =    -0.2286678003D+00 EUMP2 =    -0.33885145127791D+02
 CCSD(T)
 CCSD(T)= -0.33902087328D+02

 The electronic state is 1-A'.
 Alpha  occ. eigenvalues --   -1.37448  -1.33507  -0.73143  -0.69106  -0.57526
 Alpha  occ. eigenvalues --   -0.53280  -0.52072  -0.48119
 Alpha virt. eigenvalues --    0.17684   0.23757   0.28828   0.34813   0.78218
 Alpha virt. eigenvalues --    0.82674   0.82687   0.85249   0.88968   0.92201
 Alpha virt. eigenvalues --    1.15468   1.19585   1.20506   1.34706   2.52342

 Mulliken charges:
               1
     1  O   -0.761832
     2  H    0.401803
     3  H    0.357775
     4  O   -0.759803
     5  H    0.388920
     6  H    0.373138
 Sum of Mulliken charges =  -0.00000

 Dipole moment (field-independent basis, Debye):
    X=             -3.3230    Y=             -4.1217    Z=              0.0000  Tot=              5.2944
 Quadrupole moment (field-independent basis, Debye-Ang):
   XX=            -10.1798   YY=             -7.9730   ZZ=            -14.9970
   XY=             -3.8299   XZ=              0.0000   YZ=             -0.0000

 6136\MP4DQ=-33.8963518\MP4SDQ=-33.8984406\CCSD=-33.8994658\CCSD(T)=-33
 Normal termination of Gaussian 16 at Sun Dec 10 06:56:17 2023.
