 Gaussian 16, Revision A.03,
 Gaussian 16:  ES64L-G16RevA.03 25-Dec-2016

 ------------------
 #p CCSD(T)/CEP-31G
 ------------------

 -----------
 H2O_H2O_491
 -----------
 Symbolic Z-matrix:
 Charge =  0 Multiplicity = 1

                         Standard orientation:
 ---------------------------------------------------------------------
 Center     Atomic      Atomic             Coordinates (Angstroms)
 Number     Number       Type             X           Y           Z
 ---------------------------------------------------------------------
      1          8           0        0.041295    1.301880    0.000000
      2          1           0        0.037666    0.319286    0.000000
      3          1           0       -0.887015    1.623977   -0.000000
      4          8           0        0.041295   -1.122097    0.000000
      5          1           0        0.890433   -1.616537    0.000000
      6          1           0       -0.701805   -1.764990   -0.000000
 ---------------------------------------------------------------------

 SCF Done:  E(RHF) =  -33.6528211543     A.U. after   11 cycles
 E2 =    -0.2287732928D+00 EUMP2 =    -0.33881594447058D+02
 CCSD(T)
 CCSD(T)= -0.33897112505D+02

 The electronic state is 1-A'.
 Alpha  occ. eigenvalues --   -1.41296  -1.29028  -0.76410  -0.71929  -0.58085
 Alpha  occ. eigenvalues --   -0.55834  -0.47722  -0.43472
 Alpha virt. eigenvalues --    0.17060   0.26733   0.28467   0.55500   0.73917
 Alpha virt. eigenvalues --    0.74087   0.85762   0.89497   0.95350   1.00695
 Alpha virt. eigenvalues --    1.14837   1.17716   1.25100   1.36749   2.70737

 Mulliken charges:
               1
     1  O   -0.774541
     2  H    0.415920
     3  H    0.331479
     4  O   -0.834298
     5  H    0.430773
     6  H    0.430667
 Sum of Mulliken charges =   0.00000

 Dipole moment (field-independent basis, Debye):
    X=             -1.7604    Y=             -5.1257    Z=             -0.0000  Tot=              5.4195
 Quadrupole moment (field-independent basis, Debye-Ang):
   XX=             -9.3169   YY=             -9.7842   ZZ=            -15.0076
   XY=             -3.8111   XZ=              0.0000   YZ=             -0.0000

 \MP4DQ=-33.8911302\MP4SDQ=-33.8933177\CCSD=-33.8940922\CCSD(T)=-33.897
 Normal termination of Gaussian 16 at Sun Dec 10 06:27:45 2023.
