 Gaussian 16, Revision A.03,
 Gaussian 16:  ES64L-G16RevA.03 25-Dec-2016

 ------------------
 #p CCSD(T)/CEP-31G
 ------------------

 ------------
 H2O_H2O_4160
 ------------
 Symbolic Z-matrix:
 Charge =  0 Multiplicity = 1

                         Standard orientation:
 ---------------------------------------------------------------------
 Center     Atomic      Atomic             Coordinates (Angstroms)
 Number     Number       Type             X           Y           Z
 ---------------------------------------------------------------------
      1          8           0        0.063221    2.765430   -0.000000
      2          1           0        0.062279    1.782829   -0.000000
      3          1           0       -0.865966    3.084987   -0.000000
      4          8           0        0.063221   -2.589900    0.000000
      5          1           0        0.660644   -3.370023    0.000000
      6          1           0       -0.868487   -2.902032    0.000000
 ---------------------------------------------------------------------

 SCF Done:  E(RHF) =  -33.6532652012     A.U. after   11 cycles
 E2 =    -0.2283078836D+00 EUMP2 =    -0.33881573084892D+02
 CCSD(T)
 CCSD(T)= -0.33898531365D+02

 The electronic state is 1-A'.
 Alpha  occ. eigenvalues --   -1.36340  -1.34623  -0.71983  -0.70245  -0.56162
 Alpha  occ. eigenvalues --   -0.54399  -0.50933  -0.49215
 Alpha virt. eigenvalues --    0.19466   0.21308   0.29754   0.31580   0.79625
 Alpha virt. eigenvalues --    0.81301   0.82457   0.84308   0.85643   0.87454
 Alpha virt. eigenvalues --    1.16626   1.18352   1.21058   1.22934   2.56591

 Mulliken charges:
               1
     1  O   -0.746908
     2  H    0.379831
     3  H    0.367040
     4  O   -0.746516
     5  H    0.375316
     6  H    0.371236
 Sum of Mulliken charges =  -0.00000

 Dipole moment (field-independent basis, Debye):
    X=             -2.9016    Y=             -4.1286    Z=              0.0000  Tot=              5.0463
 Quadrupole moment (field-independent basis, Debye-Ang):
   XX=             -9.7757   YY=             -5.8158   ZZ=            -14.9915
   XY=             -5.5976   XZ=              0.0000   YZ=             -0.0000

 499\MP4DQ=-33.8928968\MP4SDQ=-33.8949215\CCSD=-33.8959731\CCSD(T)=-33.
 Normal termination of Gaussian 16 at Sun Dec 10 06:47:52 2023.
