 Gaussian 16, Revision A.03,
 Gaussian 16:  ES64L-G16RevA.03 25-Dec-2016

 ------------------
 #p CCSD(T)/CEP-31G
 ------------------

 ------------
 H2O_H2O_2813
 ------------
 Symbolic Z-matrix:
 Charge =  0 Multiplicity = 1

                         Standard orientation:
 ---------------------------------------------------------------------
 Center     Atomic      Atomic             Coordinates (Angstroms)
 Number     Number       Type             X           Y           Z
 ---------------------------------------------------------------------
      1          8           0        0.052307    2.229313    0.000000
      2          1           0        0.050694    1.246713    0.000000
      3          1           0       -0.876662    2.549504    0.000000
      4          8           0        0.052307   -2.049432   -0.000000
      5          1           0        0.790001   -2.698517   -0.000000
      6          1           0       -0.800939   -2.536749   -0.000000
 ---------------------------------------------------------------------

 SCF Done:  E(RHF) =  -33.6555790369     A.U. after   11 cycles
 E2 =    -0.2283632348D+00 EUMP2 =    -0.33883942271735D+02
 CCSD(T)
 CCSD(T)= -0.33900846950D+02

 The electronic state is 1-A'.
 Alpha  occ. eigenvalues --   -1.36820  -1.33883  -0.72469  -0.69498  -0.56784
 Alpha  occ. eigenvalues --   -0.53707  -0.51446  -0.48505
 Alpha virt. eigenvalues --    0.18671   0.22520   0.29399   0.32645   0.79119
 Alpha virt. eigenvalues --    0.81981   0.83124   0.84695   0.85312   0.88168
 Alpha virt. eigenvalues --    1.16231   1.19473   1.20657   1.26725   2.55478

 Mulliken charges:
               1
     1  O   -0.756245
     2  H    0.390861
     3  H    0.364234
     4  O   -0.753224
     5  H    0.379787
     6  H    0.374587
 Sum of Mulliken charges =  -0.00000

 Dipole moment (field-independent basis, Debye):
    X=             -2.3812    Y=             -4.3184    Z=             -0.0000  Tot=              4.9314
 Quadrupole moment (field-independent basis, Debye-Ang):
   XX=             -9.5120   YY=             -6.6681   ZZ=            -14.9961
   XY=             -5.5294   XZ=             -0.0000   YZ=              0.0000

 \MP4DQ=-33.8951969\MP4SDQ=-33.8972402\CCSD=-33.8982763\CCSD(T)=-33.900
 Normal termination of Gaussian 16 at Sun Dec 10 06:23:37 2023.
