 Gaussian 16, Revision A.03,
 Gaussian 16:  ES64L-G16RevA.03 25-Dec-2016

 ------------------
 #p CCSD(T)/CEP-31G
 ------------------

 ------------
 H2O_H2O_3156
 ------------
 Symbolic Z-matrix:
 Charge =  0 Multiplicity = 1

                         Standard orientation:
 ---------------------------------------------------------------------
 Center     Atomic      Atomic             Coordinates (Angstroms)
 Number     Number       Type             X           Y           Z
 ---------------------------------------------------------------------
      1          8           0        0.076758    2.359860    0.000000
      2          1           0        0.076155    1.377259    0.000000
      3          1           0       -0.852539    2.679097    0.000000
      4          8           0        0.076758   -2.196651   -0.000000
      5          1           0        0.452226   -3.104687   -0.000000
      6          1           0       -0.903968   -2.257341   -0.000000
 ---------------------------------------------------------------------

 SCF Done:  E(RHF) =  -33.6536962555     A.U. after   11 cycles
 E2 =    -0.2283603753D+00 EUMP2 =    -0.33882056630827D+02
 CCSD(T)
 CCSD(T)= -0.33899007460D+02

 The electronic state is 1-A'.
 Alpha  occ. eigenvalues --   -1.36684  -1.34429  -0.72342  -0.70032  -0.56533
 Alpha  occ. eigenvalues --   -0.54201  -0.51279  -0.49020
 Alpha virt. eigenvalues --    0.18637   0.21878   0.29383   0.31921   0.79296
 Alpha virt. eigenvalues --    0.81489   0.82377   0.84526   0.85307   0.87856
 Alpha virt. eigenvalues --    1.16238   1.18814   1.20674   1.25009   2.56276

 Mulliken charges:
               1
     1  O   -0.748717
     2  H    0.383949
     3  H    0.364291
     4  O   -0.748277
     5  H    0.378568
     6  H    0.370185
 Sum of Mulliken charges =  -0.00000

 Dipole moment (field-independent basis, Debye):
    X=             -3.5095    Y=             -3.8898    Z=             -0.0000  Tot=              5.2390
 Quadrupole moment (field-independent basis, Debye-Ang):
   XX=            -10.3236   YY=             -7.4194   ZZ=            -14.9919
   XY=             -3.9872   XZ=             -0.0000   YZ=              0.0000

 137\MP4DQ=-33.893361\MP4SDQ=-33.895396\CCSD=-33.8964405\CCSD(T)=-33.89
 Normal termination of Gaussian 16 at Sun Dec 10 06:29:52 2023.
