 Gaussian 16, Revision A.03,
 Gaussian 16:  ES64L-G16RevA.03 25-Dec-2016

 ------------------
 #p CCSD(T)/CEP-31G
 ------------------

 ------------
 H2O_H2O_2712
 ------------
 Symbolic Z-matrix:
 Charge =  0 Multiplicity = 1

                         Standard orientation:
 ---------------------------------------------------------------------
 Center     Atomic      Atomic             Coordinates (Angstroms)
 Number     Number       Type             X           Y           Z
 ---------------------------------------------------------------------
      1          8           0        0.056000    2.188889   -0.000000
      2          1           0        0.054505    1.206289   -0.000000
      3          1           0       -0.873008    2.508969    0.000000
      4          8           0        0.056000   -2.009993   -0.000000
      5          1           0        0.749748   -2.705853   -0.000000
      6          1           0       -0.827238   -2.440570    0.000000
 ---------------------------------------------------------------------

 SCF Done:  E(RHF) =  -33.6556854389     A.U. after   11 cycles
 E2 =    -0.2283874219D+00 EUMP2 =    -0.33884072860766D+02
 CCSD(T)
 CCSD(T)= -0.33900978865D+02

 The electronic state is 1-A'.
 Alpha  occ. eigenvalues --   -1.36881  -1.33835  -0.72531  -0.69446  -0.56854
 Alpha  occ. eigenvalues --   -0.53656  -0.51506  -0.48457
 Alpha virt. eigenvalues --    0.18558   0.22636   0.29336   0.32787   0.79053
 Alpha virt. eigenvalues --    0.82037   0.83453   0.84695   0.85328   0.88243
 Alpha virt. eigenvalues --    1.16168   1.19547   1.20599   1.27456   2.55181

 Mulliken charges:
               1
     1  O   -0.756814
     2  H    0.391973
     3  H    0.363522
     4  O   -0.753576
     5  H    0.380508
     6  H    0.374386
 Sum of Mulliken charges =  -0.00000

 Dipole moment (field-independent basis, Debye):
    X=             -2.5477    Y=             -4.3064    Z=              0.0000  Tot=              5.0036
 Quadrupole moment (field-independent basis, Debye-Ang):
   XX=             -9.5835   YY=             -6.8132   ZZ=            -14.9963
   XY=             -5.2376   XZ=             -0.0000   YZ=              0.0000

 5693\MP4DQ=-33.8953226\MP4SDQ=-33.8973699\CCSD=-33.8984046\CCSD(T)=-33
 Normal termination of Gaussian 16 at Sun Dec 10 06:21:49 2023.
