 Gaussian 16, Revision A.03,
 Gaussian 16:  ES64L-G16RevA.03 25-Dec-2016

 ------------------
 #p CCSD(T)/CEP-31G
 ------------------

 ------------
 H2O_H2O_1501
 ------------
 Symbolic Z-matrix:
 Charge =  0 Multiplicity = 1

                         Standard orientation:
 ---------------------------------------------------------------------
 Center     Atomic      Atomic             Coordinates (Angstroms)
 Number     Number       Type             X           Y           Z
 ---------------------------------------------------------------------
      1          8           0        0.090687   -1.688401    0.000000
      2          1           0        0.090568   -0.705799    0.000000
      3          1           0       -0.838767   -2.007179    0.000000
      4          8           0        0.090687    1.549699    0.000000
      5          1           0        0.154834    2.530204    0.000000
      6          1           0       -0.857627    1.292391    0.000000
 ---------------------------------------------------------------------

 SCF Done:  E(RHF) =  -33.6535548373     A.U. after   11 cycles
 E2 =    -0.2290860062D+00 EUMP2 =    -0.33882640843479D+02
 CCSD(T)
 CCSD(T)= -0.33899698267D+02

 The electronic state is 1-A'.
 Alpha  occ. eigenvalues --   -1.38137  -1.33941  -0.74120  -0.69398  -0.58063
 Alpha  occ. eigenvalues --   -0.53585  -0.52683  -0.48482
 Alpha virt. eigenvalues --    0.16677   0.24411   0.28186   0.37297   0.76913
 Alpha virt. eigenvalues --    0.81345   0.83253   0.84683   0.89011   1.05370
 Alpha virt. eigenvalues --    1.15577   1.17234   1.21762   1.39938   2.51292

 Mulliken charges:
               1
     1  O   -0.752182
     2  H    0.393550
     3  H    0.353421
     4  O   -0.758359
     5  H    0.398618
     6  H    0.364952
 Sum of Mulliken charges =  -0.00000

 Dipole moment (field-independent basis, Debye):
    X=             -4.0755    Y=              3.5297    Z=              0.0000  Tot=              5.3915
 Quadrupole moment (field-independent basis, Debye-Ang):
   XX=            -11.1776   YY=             -9.3251   ZZ=            -14.9894
   XY=              2.4792   XZ=              0.0000   YZ=              0.0000

 1331\MP4DQ=-33.8938399\MP4SDQ=-33.896001\CCSD=-33.8970067\CCSD(T)=-33.
 Normal termination of Gaussian 16 at Sun Dec 10 06:47:05 2023.
