 Gaussian 16, Revision A.03,
 Gaussian 16:  ES64L-G16RevA.03 25-Dec-2016

 ------------------
 #p CCSD(T)/CEP-31G
 ------------------

 ------------
 H2O_H2O_4727
 ------------
 Symbolic Z-matrix:
 Charge =  0 Multiplicity = 1

                         Standard orientation:
 ---------------------------------------------------------------------
 Center     Atomic      Atomic             Coordinates (Angstroms)
 Number     Number       Type             X           Y           Z
 ---------------------------------------------------------------------
      1          8           0        0.088229   -2.977834    0.000000
      2          1           0        0.088091   -1.995233    0.000000
      3          1           0       -0.841220   -3.296631    0.000000
      4          8           0        0.088229    2.833508    0.000000
      5          1           0        0.216348    3.807722    0.000000
      6          1           0       -0.874879    2.638756    0.000000
 ---------------------------------------------------------------------

 SCF Done:  E(RHF) =  -33.6521682377     A.U. after   11 cycles
 E2 =    -0.2283522340D+00 EUMP2 =    -0.33880520471677D+02
 CCSD(T)
 CCSD(T)= -0.33897511253D+02

 The electronic state is 1-A'.
 Alpha  occ. eigenvalues --   -1.36253  -1.35105  -0.71899  -0.70725  -0.56014
 Alpha  occ. eigenvalues --   -0.54845  -0.50829  -0.49679
 Alpha virt. eigenvalues --    0.19501   0.20741   0.29783   0.30975   0.79731
 Alpha virt. eigenvalues --    0.80861   0.82696   0.83876   0.85772   0.87038
 Alpha virt. eigenvalues --    1.16663   1.17815   1.21118   1.22307   2.56626

 Mulliken charges:
               1
     1  O   -0.742659
     2  H    0.375066
     3  H    0.367590
     4  O   -0.742874
     5  H    0.374195
     6  H    0.368681
 Sum of Mulliken charges =   0.00000

 Dipole moment (field-independent basis, Debye):
    X=             -4.0605    Y=              3.3834    Z=              0.0000  Tot=              5.2853
 Quadrupole moment (field-independent basis, Debye-Ang):
   XX=            -10.9640   YY=             -8.4258   ZZ=            -14.9889
   XY=              3.0135   XZ=              0.0000   YZ=              0.0000

 27\MP4DQ=-33.8918689\MP4SDQ=-33.8938957\CCSD=-33.8949503\CCSD(T)=-33.8
 Normal termination of Gaussian 16 at Sun Dec 10 06:58:05 2023.
