 Gaussian 16, Revision A.03,
 Gaussian 16:  ES64L-G16RevA.03 25-Dec-2016

 ------------------
 #p CCSD(T)/CEP-31G
 ------------------

 ------------
 H2O_H2O_2175
 ------------
 Symbolic Z-matrix:
 Charge =  0 Multiplicity = 1

                         Standard orientation:
 ---------------------------------------------------------------------
 Center     Atomic      Atomic             Coordinates (Angstroms)
 Number     Number       Type             X           Y           Z
 ---------------------------------------------------------------------
      1          8           0        0.092949   -1.954430    0.000000
      2          1           0        0.092949   -0.971828    0.000000
      3          1           0       -0.836544   -2.273096    0.000000
      4          8           0        0.092949    1.821643    0.000000
      5          1           0        0.092949    2.804244    0.000000
      6          1           0       -0.836544    1.502976    0.000000
 ---------------------------------------------------------------------

 SCF Done:  E(RHF) =  -33.6527425433     A.U. after   11 cycles
 E2 =    -0.2287263819D+00 EUMP2 =    -0.33881468925117D+02
 CCSD(T)
 CCSD(T)= -0.33898504860D+02

 The electronic state is 1-A'.
 Alpha  occ. eigenvalues --   -1.37341  -1.34629  -0.73099  -0.70161  -0.57165
 Alpha  occ. eigenvalues --   -0.54332  -0.51906  -0.49187
 Alpha virt. eigenvalues --    0.16584   0.23216   0.28789   0.33215   0.78467
 Alpha virt. eigenvalues --    0.81623   0.82694   0.84354   0.87722   0.90781
 Alpha virt. eigenvalues --    1.15376   1.18473   1.20656   1.34682   2.55341

 Mulliken charges:
               1
     1  O   -0.747140
     2  H    0.385298
     3  H    0.360236
     4  O   -0.746888
     5  H    0.384557
     6  H    0.363938
 Sum of Mulliken charges =   0.00000

 Dipole moment (field-independent basis, Debye):
    X=             -4.2237    Y=              3.2486    Z=              0.0000  Tot=              5.3285
 Quadrupole moment (field-independent basis, Debye-Ang):
   XX=            -11.3115   YY=             -9.5625   ZZ=            -14.9874
   XY=              2.2829   XZ=              0.0000   YZ=              0.0000

 397\MP4DQ=-33.8927703\MP4SDQ=-33.8948588\CCSD=-33.8958881\CCSD(T)=-33.
 Normal termination of Gaussian 16 at Sun Dec 10 07:00:03 2023.
