 Gaussian 16, Revision A.03,
 Gaussian 16:  ES64L-G16RevA.03 25-Dec-2016

 ------------------
 #p CCSD(T)/CEP-31G
 ------------------

 ------------
 H2O_H2O_2594
 ------------
 Symbolic Z-matrix:
 Charge =  0 Multiplicity = 1

                         Standard orientation:
 ---------------------------------------------------------------------
 Center     Atomic      Atomic             Coordinates (Angstroms)
 Number     Number       Type             X           Y           Z
 ---------------------------------------------------------------------
      1          8           0        0.030211    2.137240    0.000000
      2          1           0        0.027612    1.154642    0.000000
      3          1           0       -0.898436    2.458364    0.000000
      4          8           0        0.030211   -1.961648   -0.000000
      5          1           0        0.959827   -2.279955   -0.000000
      6          1           0       -0.572375   -2.737789   -0.000000
 ---------------------------------------------------------------------

 SCF Done:  E(RHF) =  -33.6565676284     A.U. after   11 cycles
 E2 =    -0.2283777654D+00 EUMP2 =    -0.33884945393772D+02
 CCSD(T)
 CCSD(T)= -0.33901835978D+02

 The electronic state is 1-A'.
 Alpha  occ. eigenvalues --   -1.36923  -1.33751  -0.72573  -0.69388  -0.56950
 Alpha  occ. eigenvalues --   -0.53607  -0.51562  -0.48393
 Alpha virt. eigenvalues --    0.18458   0.22864   0.29342   0.33039   0.78978
 Alpha virt. eigenvalues --    0.82107   0.83466   0.84692   0.86000   0.88115
 Alpha virt. eigenvalues --    1.16142   1.19731   1.20585   1.28619   2.54879

 Mulliken charges:
               1
     1  O   -0.760552
     2  H    0.392996
     3  H    0.366032
     4  O   -0.756373
     5  H    0.379643
     6  H    0.378253
 Sum of Mulliken charges =   0.00000

 Dipole moment (field-independent basis, Debye):
    X=             -1.3701    Y=             -4.2355    Z=             -0.0000  Tot=              4.4516
 Quadrupole moment (field-independent basis, Debye-Ang):
   XX=             -9.4650   YY=             -7.0755   ZZ=            -14.9980
   XY=             -6.5849   XZ=             -0.0000   YZ=              0.0000

 4202\MP4DQ=-33.8961759\MP4SDQ=-33.8982266\CCSD=-33.8992585\CCSD(T)=-33
 Normal termination of Gaussian 16 at Sun Dec 10 06:19:42 2023.
