 Gaussian 16, Revision A.03,
 Gaussian 16:  ES64L-G16RevA.03 25-Dec-2016

 ------------------
 #p CCSD(T)/CEP-31G
 ------------------

 ------------
 H2O_H2O_4737
 ------------
 Symbolic Z-matrix:
 Charge =  0 Multiplicity = 1

                         Standard orientation:
 ---------------------------------------------------------------------
 Center     Atomic      Atomic             Coordinates (Angstroms)
 Number     Number       Type             X           Y           Z
 ---------------------------------------------------------------------
      1          8           0        0.055962    2.996639   -0.000000
      2          1           0        0.054883    2.014038   -0.000000
      3          1           0       -0.873181    3.316326   -0.000000
      4          8           0        0.055962   -2.817696    0.000000
      5          1           0        0.750002   -3.513262    0.000000
      6          1           0       -0.827095   -3.248646    0.000000
 ---------------------------------------------------------------------

 SCF Done:  E(RHF) =  -33.6530347640     A.U. after   11 cycles
 E2 =    -0.2283119607D+00 EUMP2 =    -0.33881346724639D+02
 CCSD(T)
 CCSD(T)= -0.33898311633D+02

 The electronic state is 1-A'.
 Alpha  occ. eigenvalues --   -1.36218  -1.34745  -0.71858  -0.70373  -0.56025
 Alpha  occ. eigenvalues --   -0.54518  -0.50809  -0.49336
 Alpha virt. eigenvalues --    0.19614   0.21138   0.29869   0.31414   0.79744
 Alpha virt. eigenvalues --    0.81187   0.82632   0.84182   0.85796   0.87307
 Alpha virt. eigenvalues --    1.16738   1.18210   1.21183   1.22706   2.56718

 Mulliken charges:
               1
     1  O   -0.745987
     2  H    0.377923
     3  H    0.368059
     4  O   -0.745615
     5  H    0.374183
     6  H    0.371436
 Sum of Mulliken charges =  -0.00000

 Dipole moment (field-independent basis, Debye):
    X=             -2.5725    Y=             -4.1920    Z=              0.0000  Tot=              4.9185
 Quadrupole moment (field-independent basis, Debye-Ang):
   XX=             -9.5848   YY=             -5.0307   ZZ=            -14.9911
   XY=             -6.6288   XZ=              0.0000   YZ=             -0.0000

 \MP4DQ=-33.8926765\MP4SDQ=-33.8947009\CCSD=-33.8957538\CCSD(T)=-33.898
 Normal termination of Gaussian 16 at Sun Dec 10 06:58:16 2023.
