 Gaussian 16, Revision A.03,
 Gaussian 16:  ES64L-G16RevA.03 25-Dec-2016

 ------------------
 #p CCSD(T)/CEP-31G
 ------------------

 ------------
 H2O_H2O_2105
 ------------
 Symbolic Z-matrix:
 Charge =  0 Multiplicity = 1

                         Standard orientation:
 ---------------------------------------------------------------------
 Center     Atomic      Atomic             Coordinates (Angstroms)
 Number     Number       Type             X           Y           Z
 ---------------------------------------------------------------------
      1          8           0        0.079861    1.938777    0.000000
      2          1           0        0.079263    0.956176    0.000000
      3          1           0       -0.849438    2.258009    0.000000
      4          8           0        0.079861   -1.779733    0.000000
      5          1           0        0.395141   -2.710381    0.000000
      6          1           0       -0.902735   -1.776156    0.000000
 ---------------------------------------------------------------------

 SCF Done:  E(RHF) =  -33.6552632237     A.U. after   11 cycles
 E2 =    -0.2286444880D+00 EUMP2 =    -0.33883907711727D+02
 CCSD(T)
 CCSD(T)= -0.33900878341D+02

 The electronic state is 1-A'.
 Alpha  occ. eigenvalues --   -1.37352  -1.33859  -0.73059  -0.69436  -0.57335
 Alpha  occ. eigenvalues --   -0.53616  -0.51958  -0.48455
 Alpha virt. eigenvalues --    0.17480   0.23434   0.28863   0.33961   0.78409
 Alpha virt. eigenvalues --    0.82290   0.82833   0.84992   0.88489   0.91018
 Alpha virt. eigenvalues --    1.15483   1.19348   1.20501   1.34432   2.53447

 Mulliken charges:
               1
     1  O   -0.756880
     2  H    0.396049
     3  H    0.358751
     4  O   -0.755344
     5  H    0.386823
     6  H    0.370601
 Sum of Mulliken charges =   0.00000

 Dipole moment (field-independent basis, Debye):
    X=             -3.6191    Y=             -3.9070    Z=              0.0000  Tot=              5.3257
 Quadrupole moment (field-independent basis, Debye-Ang):
   XX=            -10.4946   YY=             -8.2310   ZZ=            -14.9941
   XY=             -3.4479   XZ=              0.0000   YZ=              0.0000

 4123\MP4DQ=-33.8951512\MP4SDQ=-33.897237\CCSD=-33.8982648\CCSD(T)=-33.
 Normal termination of Gaussian 16 at Sun Dec 10 06:58:40 2023.
