 Gaussian 16, Revision A.03,
 Gaussian 16:  ES64L-G16RevA.03 25-Dec-2016

 ------------------
 #p CCSD(T)/CEP-31G
 ------------------

 ------------
 H2O_H2O_4489
 ------------
 Symbolic Z-matrix:
 Charge =  0 Multiplicity = 1

                         Standard orientation:
 ---------------------------------------------------------------------
 Center     Atomic      Atomic             Coordinates (Angstroms)
 Number     Number       Type             X           Y           Z
 ---------------------------------------------------------------------
      1          8           0        0.048553    2.897723    0.000000
      2          1           0        0.047212    1.915122    0.000000
      3          1           0       -0.880504    3.217658   -0.000000
      4          8           0        0.048553   -2.717302    0.000000
      5          1           0        0.827286   -3.316536    0.000000
      6          1           0       -0.770843   -3.259609   -0.000000
 ---------------------------------------------------------------------

 SCF Done:  E(RHF) =  -33.6533025180     A.U. after   11 cycles
 E2 =    -0.2283011724D+00 EUMP2 =    -0.33881603690365D+02
 CCSD(T)
 CCSD(T)= -0.33898561031D+02

 The electronic state is 1-A'.
 Alpha  occ. eigenvalues --   -1.36259  -1.34655  -0.71899  -0.70284  -0.56081
 Alpha  occ. eigenvalues --   -0.54438  -0.50853  -0.49251
 Alpha virt. eigenvalues --    0.19581   0.21250   0.29843   0.31530   0.79700
 Alpha virt. eigenvalues --    0.81267   0.82551   0.84260   0.85742   0.87378
 Alpha virt. eigenvalues --    1.16708   1.18313   1.21151   1.22824   2.56677

 Mulliken charges:
               1
     1  O   -0.747030
     2  H    0.378951
     3  H    0.368066
     4  O   -0.746495
     5  H    0.374454
     6  H    0.372054
 Sum of Mulliken charges =   0.00000

 Dipole moment (field-independent basis, Debye):
    X=             -2.2299    Y=             -4.2322    Z=             -0.0000  Tot=              4.7837
 Quadrupole moment (field-independent basis, Debye-Ang):
   XX=             -9.4625   YY=             -5.1170   ZZ=            -14.9917
   XY=             -7.1302   XZ=              0.0000   YZ=             -0.0000

 804\MP4DQ=-33.8929276\MP4SDQ=-33.8949515\CCSD=-33.8960037\CCSD(T)=-33.
 Normal termination of Gaussian 16 at Sun Dec 10 06:53:48 2023.
