 Gaussian 16, Revision A.03,
 Gaussian 16:  ES64L-G16RevA.03 25-Dec-2016

 ------------------
 #p CCSD(T)/CEP-31G
 ------------------

 ------------
 H2O_H2O_3161
 ------------
 Symbolic Z-matrix:
 Charge =  0 Multiplicity = 1

                         Standard orientation:
 ---------------------------------------------------------------------
 Center     Atomic      Atomic             Coordinates (Angstroms)
 Number     Number       Type             X           Y           Z
 ---------------------------------------------------------------------
      1          8           0        0.059640    2.367595   -0.000000
      2          1           0        0.058399    1.384994   -0.000000
      3          1           0       -0.869450    2.687435    0.000000
      4          8           0        0.059640   -2.190149   -0.000000
      5          1           0        0.706582   -2.929726   -0.000000
      6          1           0       -0.849772   -2.562272    0.000000
 ---------------------------------------------------------------------

 SCF Done:  E(RHF) =  -33.6545816694     A.U. after   11 cycles
 E2 =    -0.2283291554D+00 EUMP2 =    -0.33882910824770D+02
 CCSD(T)
 CCSD(T)= -0.33899834939D+02

 The electronic state is 1-A'.
 Alpha  occ. eigenvalues --   -1.36659  -1.34165  -0.72308  -0.69778  -0.56559
 Alpha  occ. eigenvalues --   -0.53968  -0.51270  -0.48773
 Alpha virt. eigenvalues --    0.18912   0.22053   0.29487   0.32201   0.79301
 Alpha virt. eigenvalues --    0.81718   0.82386   0.84774   0.85246   0.87958
 Alpha virt. eigenvalues --    1.16355   1.19052   1.20762   1.24928   2.56197

 Mulliken charges:
               1
     1  O   -0.752087
     2  H    0.386572
     3  H    0.364929
     4  O   -0.750559
     5  H    0.378357
     6  H    0.372786
 Sum of Mulliken charges =  -0.00000

 Dipole moment (field-independent basis, Debye):
    X=             -2.7235    Y=             -4.2281    Z=              0.0000  Tot=              5.0293
 Quadrupole moment (field-independent basis, Debye-Ang):
   XX=             -9.6724   YY=             -6.5029   ZZ=            -14.9941
   XY=             -5.2980   XZ=             -0.0000   YZ=              0.0000

 4434\MP4DQ=-33.894195\MP4SDQ=-33.8962286\CCSD=-33.897271\CCSD(T)=-33.8
 Normal termination of Gaussian 16 at Sun Dec 10 06:29:58 2023.
