 Gaussian 16, Revision A.03,
 Gaussian 16:  ES64L-G16RevA.03 25-Dec-2016

 ------------------
 #p CCSD(T)/CEP-31G
 ------------------

 -----------
 H2O_H2O_784
 -----------
 Symbolic Z-matrix:
 Charge =  0 Multiplicity = 1

                         Standard orientation:
 ---------------------------------------------------------------------
 Center     Atomic      Atomic             Coordinates (Angstroms)
 Number     Number       Type             X           Y           Z
 ---------------------------------------------------------------------
      1          8           0        0.066821    1.417856    0.000000
      2          1           0        0.065151    0.435256    0.000000
      3          1           0       -0.862129    1.738102   -0.000000
      4          8           0        0.066821   -1.244846    0.000000
      5          1           0        0.611336   -2.062775    0.000000
      6          1           0       -0.883492   -1.494668   -0.000000
 ---------------------------------------------------------------------

 SCF Done:  E(RHF) =  -33.6583483988     A.U. after   11 cycles
 E2 =    -0.2290732717D+00 EUMP2 =    -0.33887421670467D+02
 CCSD(T)
 CCSD(T)= -0.33903714584D+02

 The electronic state is 1-A'.
 Alpha  occ. eigenvalues --   -1.39808  -1.30848  -0.75563  -0.68992  -0.59152
 Alpha  occ. eigenvalues --   -0.54435  -0.50124  -0.45380
 Alpha virt. eigenvalues --    0.17135   0.26676   0.27529   0.48645   0.74684
 Alpha virt. eigenvalues --    0.76459   0.85223   0.87455   0.95741   1.05987
 Alpha virt. eigenvalues --    1.16147   1.18563   1.22689   1.36540   2.58739

 Mulliken charges:
               1
     1  O   -0.769707
     2  H    0.425917
     3  H    0.336937
     4  O   -0.821762
     5  H    0.436484
     6  H    0.392131
 Sum of Mulliken charges =  -0.00000

 Dipole moment (field-independent basis, Debye):
    X=             -2.8714    Y=             -4.7083    Z=             -0.0000  Tot=              5.5148
 Quadrupole moment (field-independent basis, Debye-Ang):
   XX=             -9.8815   YY=             -9.1546   ZZ=            -15.0108
   XY=             -3.6364   XZ=              0.0000   YZ=             -0.0000

 4\MP4DQ=-33.8977706\MP4SDQ=-33.8999504\CCSD=-33.900848\CCSD(T)=-33.903
 Normal termination of Gaussian 16 at Sun Dec 10 06:33:16 2023.
