 Gaussian 16, Revision A.03,
 Gaussian 16:  ES64L-G16RevA.03 25-Dec-2016

 ------------------
 #p CCSD(T)/CEP-31G
 ------------------

 ------------
 H2O_H2O_2699
 ------------
 Symbolic Z-matrix:
 Charge =  0 Multiplicity = 1

                         Standard orientation:
 ---------------------------------------------------------------------
 Center     Atomic      Atomic             Coordinates (Angstroms)
 Number     Number       Type             X           Y           Z
 ---------------------------------------------------------------------
      1          8           0       -0.013539    2.168256    0.000000
      2          1           0       -0.010313    1.185660    0.000000
      3          1           0        0.914902    2.489973    0.000000
      4          8           0       -0.013539   -2.009002    0.000000
      5          1           0       -0.996136   -2.012228    0.000000
      6          1           0        0.308178   -2.937443    0.000000
 ---------------------------------------------------------------------

 SCF Done:  E(RHF) =  -33.6559079468     A.U. after   11 cycles
 E2 =    -0.2283469047D+00 EUMP2 =    -0.33884254851524D+02
 CCSD(T)
 CCSD(T)= -0.33901163900D+02

 The electronic state is 1-A'.
 Alpha  occ. eigenvalues --   -1.36850  -1.34131  -0.72512  -0.69782  -0.56825
 Alpha  occ. eigenvalues --   -0.53986  -0.51476  -0.48770
 Alpha virt. eigenvalues --    0.18166   0.22651   0.29376   0.32540   0.79067
 Alpha virt. eigenvalues --    0.81740   0.82846   0.84478   0.86289   0.87743
 Alpha virt. eigenvalues --    1.16096   1.19433   1.20645   1.28480   2.55817

 Mulliken charges:
               1
     1  O   -0.757918
     2  H    0.387581
     3  H    0.369223
     4  O   -0.755435
     5  H    0.377254
     6  H    0.379295
 Sum of Mulliken charges =  -0.00000

 Dipole moment (field-independent basis, Debye):
    X=              0.6139    Y=             -3.8234    Z=              0.0000  Tot=              3.8723
 Quadrupole moment (field-independent basis, Debye-Ang):
   XX=             -9.8669   YY=             -7.8745   ZZ=            -14.9962
   XY=              7.8236   XZ=              0.0000   YZ=              0.0000

 524\MP4DQ=-33.8955069\MP4SDQ=-33.8975538\CCSD=-33.8985886\CCSD(T)=-33.
 Normal termination of Gaussian 16 at Sun Dec 10 06:21:35 2023.
