 Gaussian 16, Revision A.03,
 Gaussian 16:  ES64L-G16RevA.03 25-Dec-2016

 ------------------
 #p CCSD(T)/CEP-31G
 ------------------

 ------------
 H2O_H2O_4911
 ------------
 Symbolic Z-matrix:
 Charge =  0 Multiplicity = 1

                         Standard orientation:
 ---------------------------------------------------------------------
 Center     Atomic      Atomic             Coordinates (Angstroms)
 Number     Number       Type             X           Y           Z
 ---------------------------------------------------------------------
      1          8           0        0.059614    3.065648    0.000000
      2          1           0        0.058664    2.083047    0.000000
      3          1           0       -0.869571    3.385212   -0.000000
      4          8           0        0.059614   -2.888166    0.000000
      5          1           0        0.706774   -3.627551    0.000000
      6          1           0       -0.849687   -3.260558   -0.000000
 ---------------------------------------------------------------------

 SCF Done:  E(RHF) =  -33.6528841187     A.U. after   11 cycles
 E2 =    -0.2283182549D+00 EUMP2 =    -0.33881202373560D+02
 CCSD(T)
 CCSD(T)= -0.33898171578D+02

 The electronic state is 1-A'.
 Alpha  occ. eigenvalues --   -1.36192  -1.34804  -0.71831  -0.70432  -0.55989
 Alpha  occ. eigenvalues --   -0.54573  -0.50780  -0.49393
 Alpha virt. eigenvalues --    0.19635   0.21065   0.29887   0.31337   0.79773
 Alpha virt. eigenvalues --    0.81133   0.82680   0.84130   0.85830   0.87257
 Alpha virt. eigenvalues --    1.16758   1.18143   1.21205   1.22633   2.56744

 Mulliken charges:
               1
     1  O   -0.745397
     2  H    0.377263
     3  H    0.368132
     4  O   -0.745112
     5  H    0.373976
     6  H    0.371138
 Sum of Mulliken charges =  -0.00000

 Dipole moment (field-independent basis, Debye):
    X=             -2.7419    Y=             -4.1544    Z=             -0.0000  Tot=              4.9777
 Quadrupole moment (field-independent basis, Debye-Ang):
   XX=             -9.6718   YY=             -5.0192   ZZ=            -14.9908
   XY=             -6.3809   XZ=              0.0000   YZ=             -0.0000

 899\MP4DQ=-33.8925354\MP4SDQ=-33.8945601\CCSD=-33.8956134\CCSD(T)=-33.
 Normal termination of Gaussian 16 at Sun Dec 10 07:02:01 2023.
