 Gaussian 16, Revision A.03,
 Gaussian 16:  ES64L-G16RevA.03 25-Dec-2016

 ------------------
 #p CCSD(T)/CEP-31G
 ------------------

 ------------
 H2O_H2O_4401
 ------------
 Symbolic Z-matrix:
 Charge =  0 Multiplicity = 1

                         Standard orientation:
 ---------------------------------------------------------------------
 Center     Atomic      Atomic             Coordinates (Angstroms)
 Number     Number       Type             X           Y           Z
 ---------------------------------------------------------------------
      1          8           0        0.090684   -2.845149    0.000000
      2          1           0        0.090614   -1.862548    0.000000
      3          1           0       -0.838787   -3.163881    0.000000
      4          8           0        0.090684    2.706438    0.000000
      5          1           0        0.154879    3.686940    0.000000
      6          1           0       -0.857644    2.449178    0.000000
 ---------------------------------------------------------------------

 SCF Done:  E(RHF) =  -33.6521052733     A.U. after   11 cycles
 E2 =    -0.2283571416D+00 EUMP2 =    -0.33880462414826D+02
 CCSD(T)
 CCSD(T)= -0.33897455606D+02

 The electronic state is 1-A'.
 Alpha  occ. eigenvalues --   -1.36323  -1.35116  -0.71972  -0.70733  -0.56082
 Alpha  occ. eigenvalues --   -0.54852  -0.50898  -0.49688
 Alpha virt. eigenvalues --    0.19359   0.20782   0.29708   0.30970   0.79667
 Alpha virt. eigenvalues --    0.80853   0.82621   0.83871   0.85683   0.87061
 Alpha virt. eigenvalues --    1.16573   1.17817   1.21044   1.22336   2.56422

 Mulliken charges:
               1
     1  O   -0.742431
     2  H    0.375219
     3  H    0.367204
     4  O   -0.742755
     5  H    0.374690
     6  H    0.368073
 Sum of Mulliken charges =   0.00000

 Dipole moment (field-independent basis, Debye):
    X=             -4.1707    Y=              3.2584    Z=              0.0000  Tot=              5.2926
 Quadrupole moment (field-independent basis, Debye-Ang):
   XX=            -11.1265   YY=             -9.0440   ZZ=            -14.9886
   XY=              2.6431   XZ=              0.0000   YZ=              0.0000

 707\MP4DQ=-33.8918122\MP4SDQ=-33.8938395\CCSD=-33.8948939\CCSD(T)=-33.
 Normal termination of Gaussian 16 at Sun Dec 10 06:52:13 2023.
