 Gaussian 16, Revision A.03,
 Gaussian 16:  ES64L-G16RevA.03 25-Dec-2016

 ------------------
 #p CCSD(T)/CEP-31G
 ------------------

 ------------
 H2O_H2O_1933
 ------------
 Symbolic Z-matrix:
 Charge =  0 Multiplicity = 1

                         Standard orientation:
 ---------------------------------------------------------------------
 Center     Atomic      Atomic             Coordinates (Angstroms)
 Number     Number       Type             X           Y           Z
 ---------------------------------------------------------------------
      1          8           0        0.070218    1.875042    0.000000
      2          1           0        0.069139    0.892441    0.000000
      3          1           0       -0.858925    2.194729   -0.000000
      4          8           0        0.070218   -1.704829    0.000000
      5          1           0        0.560584   -2.556326    0.000000
      6          1           0       -0.894287   -1.892544   -0.000000
 ---------------------------------------------------------------------

 SCF Done:  E(RHF) =  -33.6570620246     A.U. after   11 cycles
 E2 =    -0.2286778114D+00 EUMP2 =    -0.33885739836005D+02
 CCSD(T)
 CCSD(T)= -0.33902665122D+02

 The electronic state is 1-A'.
 Alpha  occ. eigenvalues --   -1.37487  -1.33349  -0.73175  -0.68963  -0.57614
 Alpha  occ. eigenvalues --   -0.53130  -0.52121  -0.47968
 Alpha virt. eigenvalues --    0.17769   0.23905   0.28819   0.35210   0.78135
 Alpha virt. eigenvalues --    0.82576   0.82864   0.85367   0.89204   0.92558
 Alpha virt. eigenvalues --    1.15464   1.19699   1.20502   1.34591   2.51885

 Mulliken charges:
               1
     1  O   -0.764157
     2  H    0.404433
     3  H    0.357461
     4  O   -0.761859
     5  H    0.389711
     6  H    0.374411
 Sum of Mulliken charges =   0.00000

 Dipole moment (field-independent basis, Debye):
    X=             -3.1676    Y=             -4.2115    Z=             -0.0000  Tot=              5.2697
 Quadrupole moment (field-independent basis, Debye-Ang):
   XX=            -10.0339   YY=             -7.8852   ZZ=            -14.9984
   XY=             -4.0043   XZ=              0.0000   YZ=             -0.0000

 898\MP4DQ=-33.8969274\MP4SDQ=-33.8990161\CCSD=-33.9000399\CCSD(T)=-33.
 Normal termination of Gaussian 16 at Sun Dec 10 06:55:22 2023.
