 Gaussian 16, Revision A.03,
 Gaussian 16:  ES64L-G16RevA.03 25-Dec-2016

 ------------------
 #p CCSD(T)/CEP-31G
 ------------------

 ------------
 H2O_H2O_2794
 ------------
 Symbolic Z-matrix:
 Charge =  0 Multiplicity = 1

                         Standard orientation:
 ---------------------------------------------------------------------
 Center     Atomic      Atomic             Coordinates (Angstroms)
 Number     Number       Type             X           Y           Z
 ---------------------------------------------------------------------
      1          8           0        0.030202    2.217018   -0.000000
      2          1           0        0.027700    1.234420   -0.000000
      3          1           0       -0.898477    2.538050   -0.000000
      4          8           0        0.030202   -2.041420    0.000000
      5          1           0        0.959850   -2.359635    0.000000
      6          1           0       -0.572308   -2.817621    0.000000
 ---------------------------------------------------------------------

 SCF Done:  E(RHF) =  -33.6560037464     A.U. after   11 cycles
 E2 =    -0.2283408217D+00 EUMP2 =    -0.33884344568095D+02
 CCSD(T)
 CCSD(T)= -0.33901240827D+02

 The electronic state is 1-A'.
 Alpha  occ. eigenvalues --   -1.36810  -1.33907  -0.72458  -0.69541  -0.56795
 Alpha  occ. eigenvalues --   -0.53755  -0.51441  -0.48542
 Alpha virt. eigenvalues --    0.18624   0.22561   0.29417   0.32674   0.79117
 Alpha virt. eigenvalues --    0.81943   0.83027   0.84515   0.85709   0.88004
 Alpha virt. eigenvalues --    1.16244   1.19513   1.20664   1.27112   2.55531

 Mulliken charges:
               1
     1  O   -0.757989
     2  H    0.390229
     3  H    0.366611
     4  O   -0.754708
     5  H    0.378623
     6  H    0.377234
 Sum of Mulliken charges =  -0.00000

 Dipole moment (field-independent basis, Debye):
    X=             -1.3726    Y=             -4.2132    Z=              0.0000  Tot=              4.4312
 Quadrupole moment (field-independent basis, Debye-Ang):
   XX=             -9.4668   YY=             -6.9060   ZZ=            -14.9969
   XY=             -6.8185   XZ=              0.0000   YZ=             -0.0000

 62\MP4DQ=-33.895592\MP4SDQ=-33.897635\CCSD=-33.8986703\CCSD(T)=-33.901
 Normal termination of Gaussian 16 at Sun Dec 10 06:23:17 2023.
