 Gaussian 16, Revision A.03,
 Gaussian 16:  ES64L-G16RevA.03 25-Dec-2016

 ------------------
 #p CCSD(T)/CEP-31G
 ------------------

 -----------
 H2O_H2O_480
 -----------
 Symbolic Z-matrix:
 Charge =  0 Multiplicity = 1

                         Standard orientation:
 ---------------------------------------------------------------------
 Center     Atomic      Atomic             Coordinates (Angstroms)
 Number     Number       Type             X           Y           Z
 ---------------------------------------------------------------------
      1          8           0        0.079886   -1.290576    0.000000
      2          1           0        0.078969   -0.307975    0.000000
      3          1           0       -0.849309   -1.610110    0.000000
      4          8           0        0.079886    1.131584    0.000000
      5          1           0        0.394864    2.062333    0.000000
      6          1           0       -0.902708    1.127687    0.000000
 ---------------------------------------------------------------------

 SCF Done:  E(RHF) =  -33.6418481193     A.U. after   11 cycles
 E2 =    -0.2287058510D+00 EUMP2 =    -0.33870553970364D+02
 CCSD(T)
 CCSD(T)= -0.33886592325D+02

 The electronic state is 1-A'.
 Alpha  occ. eigenvalues --   -1.41698  -1.30432  -0.78422  -0.70052  -0.58493
 Alpha  occ. eigenvalues --   -0.55833  -0.49253  -0.44775
 Alpha virt. eigenvalues --    0.16537   0.25316   0.28294   0.53729   0.73691
 Alpha virt. eigenvalues --    0.76128   0.85978   0.88721   0.96275   1.08626
 Alpha virt. eigenvalues --    1.14818   1.23461   1.27001   1.37275   2.73238

 Mulliken charges:
               1
     1  O   -0.730886
     2  H    0.370802
     3  H    0.324907
     4  O   -0.821360
     5  H    0.467939
     6  H    0.388598
 Sum of Mulliken charges =  -0.00000

 Dipole moment (field-independent basis, Debye):
    X=             -3.3800    Y=              4.6517    Z=              0.0000  Tot=              5.7501
 Quadrupole moment (field-independent basis, Debye-Ang):
   XX=            -10.5118   YY=             -9.6679   ZZ=            -14.9835
   XY=              3.0168   XZ=              0.0000   YZ=              0.0000

 03\MP4DQ=-33.8804704\MP4SDQ=-33.8827848\CCSD=-33.8836106\CCSD(T)=-33.8
 Normal termination of Gaussian 16 at Sun Dec 10 06:27:33 2023.
