 Gaussian 16, Revision A.03,
 Gaussian 16:  ES64L-G16RevA.03 25-Dec-2016

 ------------------
 #p CCSD(T)/CEP-31G
 ------------------

 ------------
 H2O_H2O_3355
 ------------
 Symbolic Z-matrix:
 Charge =  0 Multiplicity = 1

                         Standard orientation:
 ---------------------------------------------------------------------
 Center     Atomic      Atomic             Coordinates (Angstroms)
 Number     Number       Type             X           Y           Z
 ---------------------------------------------------------------------
      1          8           0        0.079850    2.437384    0.000000
      2          1           0        0.079379    1.454783    0.000000
      3          1           0       -0.849490    2.756496    0.000000
      4          8           0        0.079850   -2.278320   -0.000000
      5          1           0        0.395251   -3.208926   -0.000000
      6          1           0       -0.902745   -2.274868   -0.000000
 ---------------------------------------------------------------------

 SCF Done:  E(RHF) =  -33.6532698830     A.U. after   11 cycles
 E2 =    -0.2283499086D+00 EUMP2 =    -0.33881619791639D+02
 CCSD(T)
 CCSD(T)= -0.33898580679D+02

 The electronic state is 1-A'.
 Alpha  occ. eigenvalues --   -1.36607  -1.34584  -0.72263  -0.70190  -0.56431
 Alpha  occ. eigenvalues --   -0.54346  -0.51196  -0.49170
 Alpha virt. eigenvalues --    0.18777   0.21642   0.29453   0.31691   0.79378
 Alpha virt. eigenvalues --    0.81346   0.82292   0.84369   0.85358   0.87703
 Alpha virt. eigenvalues --    1.16296   1.18582   1.20747   1.24133   2.56344

 Mulliken charges:
               1
     1  O   -0.747002
     2  H    0.381830
     3  H    0.364889
     4  O   -0.746974
     5  H    0.377742
     6  H    0.369515
 Sum of Mulliken charges =  -0.00000

 Dipole moment (field-independent basis, Debye):
    X=             -3.6557    Y=             -3.7777    Z=             -0.0000  Tot=              5.2569
 Quadrupole moment (field-independent basis, Debye-Ang):
   XX=            -10.4811   YY=             -7.6026   ZZ=            -14.9911
   XY=             -3.7616   XZ=             -0.0000   YZ=              0.0000

 13\MP4DQ=-33.8929372\MP4SDQ=-33.8949685\CCSD=-33.896016\CCSD(T)=-33.89
 Normal termination of Gaussian 16 at Sun Dec 10 06:33:26 2023.
