 Gaussian 16, Revision A.03,
 Gaussian 16:  ES64L-G16RevA.03 25-Dec-2016

 ------------------
 #p CCSD(T)/CEP-31G
 ------------------

 -----------
 H2O_H2O_465
 -----------
 Symbolic Z-matrix:
 Charge =  0 Multiplicity = 1

                         Standard orientation:
 ---------------------------------------------------------------------
 Center     Atomic      Atomic             Coordinates (Angstroms)
 Number     Number       Type             X           Y           Z
 ---------------------------------------------------------------------
      1          8           0        0.045004    1.292164   -0.000000
      2          1           0        0.041608    0.309568   -0.000000
      3          1           0       -0.883382    1.614041   -0.000000
      4          8           0        0.045004   -1.111909    0.000000
      5          1           0        0.860117   -1.660634    0.000000
      6          1           0       -0.738410   -1.705009    0.000000
 ---------------------------------------------------------------------

 SCF Done:  E(RHF) =  -33.6512497985     A.U. after   11 cycles
 E2 =    -0.2287932839D+00 EUMP2 =    -0.33880043082386D+02
 CCSD(T)
 CCSD(T)= -0.33895498189D+02

 The electronic state is 1-A'.
 Alpha  occ. eigenvalues --   -1.41488  -1.28912  -0.76492  -0.72369  -0.57879
 Alpha  occ. eigenvalues --   -0.55994  -0.47533  -0.43327
 Alpha virt. eigenvalues --    0.16986   0.26640   0.28563   0.56037   0.73853
 Alpha virt. eigenvalues --    0.73926   0.85661   0.89648   0.95140   1.01453
 Alpha virt. eigenvalues --    1.14347   1.17552   1.25120   1.36505   2.72191

 Mulliken charges:
               1
     1  O   -0.772621
     2  H    0.414544
     3  H    0.328733
     4  O   -0.833641
     5  H    0.435527
     6  H    0.427458
 Sum of Mulliken charges =   0.00000

 Dipole moment (field-independent basis, Debye):
    X=             -1.9037    Y=             -5.1650    Z=              0.0000  Tot=              5.5047
 Quadrupole moment (field-independent basis, Debye-Ang):
   XX=             -9.3330   YY=             -9.8496   ZZ=            -15.0049
   XY=             -3.7451   XZ=              0.0000   YZ=             -0.0000

 713\MP4DQ=-33.8895006\MP4SDQ=-33.8916982\CCSD=-33.89246\CCSD(T)=-33.89
 Normal termination of Gaussian 16 at Sun Dec 10 06:27:16 2023.
