 Gaussian 16, Revision A.03,
 Gaussian 16:  ES64L-G16RevA.03 25-Dec-2016

 ------------------
 #p CCSD(T)/CEP-31G
 ------------------

 ------------
 H2O_H2O_3386
 ------------
 Symbolic Z-matrix:
 Charge =  0 Multiplicity = 1

                         Standard orientation:
 ---------------------------------------------------------------------
 Center     Atomic      Atomic             Coordinates (Angstroms)
 Number     Number       Type             X           Y           Z
 ---------------------------------------------------------------------
      1          8           0        0.059636    2.457346    0.000000
      2          1           0        0.058442    1.474745    0.000000
      3          1           0       -0.869469    2.777141   -0.000000
      4          8           0        0.059636   -2.279894    0.000000
      5          1           0        0.706613   -3.019439    0.000000
      6          1           0       -0.849758   -2.652060   -0.000000
 ---------------------------------------------------------------------

 SCF Done:  E(RHF) =  -33.6542175785     A.U. after   11 cycles
 E2 =    -0.2283126387D+00 EUMP2 =    -0.33882530217189D+02
 CCSD(T)
 CCSD(T)= -0.33899462284D+02

 The electronic state is 1-A'.
 Alpha  occ. eigenvalues --   -1.36568  -1.34284  -0.72214  -0.69900  -0.56445
 Alpha  occ. eigenvalues --   -0.54081  -0.51174  -0.48888
 Alpha virt. eigenvalues --    0.19089   0.21839   0.29564   0.32027   0.79394
 Alpha virt. eigenvalues --    0.81608   0.82254   0.84662   0.85353   0.87829
 Alpha virt. eigenvalues --    1.16435   1.18848   1.20843   1.24132   2.56388

 Mulliken charges:
               1
     1  O   -0.750609
     2  H    0.384681
     3  H    0.365575
     4  O   -0.749517
     5  H    0.377473
     6  H    0.372396
 Sum of Mulliken charges =  -0.00000

 Dipole moment (field-independent basis, Debye):
    X=             -2.7270    Y=             -4.2114    Z=             -0.0000  Tot=              5.0172
 Quadrupole moment (field-independent basis, Debye-Ang):
   XX=             -9.6724   YY=             -6.3123   ZZ=            -14.9934
   XY=             -5.4377   XZ=              0.0000   YZ=             -0.0000

 759\MP4DQ=-33.8938264\MP4SDQ=-33.8958558\CCSD=-33.8969012\CCSD(T)=-33.
 Normal termination of Gaussian 16 at Sun Dec 10 06:33:59 2023.
