 Gaussian 16, Revision A.03,
 Gaussian 16:  ES64L-G16RevA.03 25-Dec-2016

 ------------------
 #p CCSD(T)/CEP-31G
 ------------------

 -----------
 H2O_H2O_299
 -----------
 Symbolic Z-matrix:
 Charge =  0 Multiplicity = 1

                         Standard orientation:
 ---------------------------------------------------------------------
 Center     Atomic      Atomic             Coordinates (Angstroms)
 Number     Number       Type             X           Y           Z
 ---------------------------------------------------------------------
      1          8           0        0.013761   -1.210923    0.000000
      2          1           0        0.007804   -0.228339    0.000000
      3          1           0       -0.913783   -1.535218    0.000000
      4          8           0        0.013761    1.051744    0.000000
      5          1           0        0.996345    1.057700    0.000000
      6          1           0       -0.310535    1.979288    0.000000
 ---------------------------------------------------------------------

 SCF Done:  E(RHF) =  -33.6301915891     A.U. after   11 cycles
 E2 =    -0.2274841776D+00 EUMP2 =    -0.33857675766635D+02
 CCSD(T)
 CCSD(T)= -0.33873048025D+02

 The electronic state is 1-A'.
 Alpha  occ. eigenvalues --   -1.43224  -1.28667  -0.80440  -0.71073  -0.58056
 Alpha  occ. eigenvalues --   -0.56948  -0.46785  -0.43059
 Alpha virt. eigenvalues --    0.17162   0.25434   0.29235   0.58494   0.73529
 Alpha virt. eigenvalues --    0.75524   0.88961   0.90195   0.93304   1.05186
 Alpha virt. eigenvalues --    1.14289   1.20945   1.29599   1.42229   2.86009

 Mulliken charges:
               1
     1  O   -0.745387
     2  H    0.324500
     3  H    0.342082
     4  O   -0.827603
     5  H    0.424343
     6  H    0.482065
 Sum of Mulliken charges =  -0.00000

 Dipole moment (field-independent basis, Debye):
    X=             -0.6069    Y=              4.8995    Z=              0.0000  Tot=              4.9369
 Quadrupole moment (field-independent basis, Debye-Ang):
   XX=             -9.7614   YY=            -10.0097   ZZ=            -14.9718
   XY=              4.1293   XZ=              0.0000   YZ=              0.0000

 15\MP4DQ=-33.8669586\MP4SDQ=-33.8692478\CCSD=-33.8699952\CCSD(T)=-33.8
 Normal termination of Gaussian 16 at Sun Dec 10 06:23:57 2023.
