 Gaussian 16, Revision A.03,
 Gaussian 16:  ES64L-G16RevA.03 25-Dec-2016

 ------------------
 #p CCSD(T)/CEP-31G
 ------------------

 ------------
 H2O_H2O_3790
 ------------
 Symbolic Z-matrix:
 Charge =  0 Multiplicity = 1

                         Standard orientation:
 ---------------------------------------------------------------------
 Center     Atomic      Atomic             Coordinates (Angstroms)
 Number     Number       Type             X           Y           Z
 ---------------------------------------------------------------------
      1          8           0        0.044841    2.618509    0.000000
      2          1           0        0.043226    1.635908    0.000000
      3          1           0       -0.884127    2.938702   -0.000000
      4          8           0        0.044841   -2.438091    0.000000
      5          1           0        0.860947   -2.985337    0.000000
      6          1           0       -0.737498   -3.032610   -0.000000
 ---------------------------------------------------------------------

 SCF Done:  E(RHF) =  -33.6540178106     A.U. after   11 cycles
 E2 =    -0.2282874253D+00 EUMP2 =    -0.33882305235942D+02
 CCSD(T)
 CCSD(T)= -0.33899242177D+02

 The electronic state is 1-A'.
 Alpha  occ. eigenvalues --   -1.36422  -1.34406  -0.72064  -0.70033  -0.56287
 Alpha  occ. eigenvalues --   -0.54207  -0.51026  -0.49011
 Alpha virt. eigenvalues --    0.19373   0.21605   0.29720   0.31851   0.79533
 Alpha virt. eigenvalues --    0.81490   0.82288   0.84505   0.85543   0.87623
 Alpha virt. eigenvalues --    1.16575   1.18637   1.21010   1.23349   2.56534

 Mulliken charges:
               1
     1  O   -0.749805
     2  H    0.382379
     3  H    0.367298
     4  O   -0.748833
     5  H    0.375823
     6  H    0.373137
 Sum of Mulliken charges =  -0.00000

 Dipole moment (field-independent basis, Debye):
    X=             -2.0535    Y=             -4.2568    Z=             -0.0000  Tot=              4.7262
 Quadrupole moment (field-independent basis, Debye-Ang):
   XX=             -9.4272   YY=             -5.7489   ZZ=            -14.9931
   XY=             -6.8401   XZ=              0.0000   YZ=             -0.0000

 609\MP4DQ=-33.8936111\MP4SDQ=-33.8956358\CCSD=-33.8966846\CCSD(T)=-33.
 Normal termination of Gaussian 16 at Sun Dec 10 06:41:12 2023.
