 Gaussian 16, Revision A.03,
 Gaussian 16:  ES64L-G16RevA.03 25-Dec-2016

 ------------------
 #p CCSD(T)/CEP-31G
 ------------------

 -----------
 H2O_H2O_383
 -----------
 Symbolic Z-matrix:
 Charge =  0 Multiplicity = 1

                         Standard orientation:
 ---------------------------------------------------------------------
 Center     Atomic      Atomic             Coordinates (Angstroms)
 Number     Number       Type             X           Y           Z
 ---------------------------------------------------------------------
      1          8           0        0.070267    1.256742    0.000000
      2          1           0        0.068619    0.274142    0.000000
      3          1           0       -0.858690    1.576967    0.000000
      4          8           0        0.070267   -1.086611   -0.000000
      5          1           0        0.560141   -1.938391   -0.000000
      6          1           0       -0.894346   -1.273766   -0.000000
 ---------------------------------------------------------------------

 SCF Done:  E(RHF) =  -33.6400861742     A.U. after   11 cycles
 E2 =    -0.2286695852D+00 EUMP2 =    -0.33868755759419D+02
 CCSD(T)
 CCSD(T)= -0.33884303937D+02

 The electronic state is 1-A'.
 Alpha  occ. eigenvalues --   -1.42322  -1.29277  -0.78407  -0.71996  -0.57567
 Alpha  occ. eigenvalues --   -0.56468  -0.47758  -0.43573
 Alpha virt. eigenvalues --    0.16566   0.25568   0.28742   0.56596   0.73588
 Alpha virt. eigenvalues --    0.74858   0.86311   0.89678   0.96416   1.06513
 Alpha virt. eigenvalues --    1.14387   1.21245   1.24284   1.35216   2.80246

 Mulliken charges:
               1
     1  O   -0.744171
     2  H    0.385850
     3  H    0.319206
     4  O   -0.833064
     5  H    0.469285
     6  H    0.402894
 Sum of Mulliken charges =   0.00000

 Dipole moment (field-independent basis, Debye):
    X=             -2.9158    Y=             -5.0289    Z=             -0.0000  Tot=              5.8131
 Quadrupole moment (field-independent basis, Debye-Ang):
   XX=            -10.0012   YY=             -9.8955   ZZ=            -14.9825
   XY=             -3.3155   XZ=             -0.0000   YZ=              0.0000

 03\MP4DQ=-33.8781922\MP4SDQ=-33.880486\CCSD=-33.8812478\CCSD(T)=-33.88
 Normal termination of Gaussian 16 at Sun Dec 10 06:25:36 2023.
