 Gaussian 16, Revision A.03,
 Gaussian 16:  ES64L-G16RevA.03 25-Dec-2016

 ------------------
 #p CCSD(T)/CEP-31G
 ------------------

 ------------
 H2O_H2O_2195
 ------------
 Symbolic Z-matrix:
 Charge =  0 Multiplicity = 1

                         Standard orientation:
 ---------------------------------------------------------------------
 Center     Atomic      Atomic             Coordinates (Angstroms)
 Number     Number       Type             X           Y           Z
 ---------------------------------------------------------------------
      1          8           0        0.026700    1.976390   -0.000000
      2          1           0        0.023723    0.993794   -0.000000
      3          1           0       -0.901823    2.297872   -0.000000
      4          8           0        0.026700   -1.803192    0.000000
      5          1           0        0.975046   -2.060383    0.000000
      6          1           0       -0.524146   -2.616871    0.000000
 ---------------------------------------------------------------------

 SCF Done:  E(RHF) =  -33.6579362162     A.U. after   11 cycles
 E2 =    -0.2284806537D+00 EUMP2 =    -0.33886416869875D+02
 CCSD(T)
 CCSD(T)= -0.33903299498D+02

 The electronic state is 1-A'.
 Alpha  occ. eigenvalues --   -1.37192  -1.33421  -0.72850  -0.69077  -0.57337
 Alpha  occ. eigenvalues --   -0.53288  -0.51847  -0.48080
 Alpha virt. eigenvalues --    0.18149   0.23587   0.29163   0.34215   0.78571
 Alpha virt. eigenvalues --    0.82536   0.82989   0.85804   0.87689   0.89324
 Alpha virt. eigenvalues --    1.15886   1.20002   1.20520   1.32189   2.53214

 Mulliken charges:
               1
     1  O   -0.767012
     2  H    0.399635
     3  H    0.365190
     4  O   -0.761612
     5  H    0.381862
     6  H    0.381938
 Sum of Mulliken charges =   0.00000

 Dipole moment (field-independent basis, Debye):
    X=             -1.2048    Y=             -4.2306    Z=              0.0000  Tot=              4.3988
 Quadrupole moment (field-independent basis, Debye-Ang):
   XX=             -9.5139   YY=             -7.5281   ZZ=            -15.0005
   XY=             -6.2988   XZ=              0.0000   YZ=             -0.0000

 544\MP4DQ=-33.8976062\MP4SDQ=-33.8996747\CCSD=-33.9007004\CCSD(T)=-33.
 Normal termination of Gaussian 16 at Sun Dec 10 07:00:40 2023.
