 Gaussian 16, Revision A.03,
 Gaussian 16:  ES64L-G16RevA.03 25-Dec-2016

 ------------------
 #p CCSD(T)/CEP-31G
 ------------------

 -----------
 H2O_H2O_119
 -----------
 Symbolic Z-matrix:
 Charge =  0 Multiplicity = 1

                         Standard orientation:
 ---------------------------------------------------------------------
 Center     Atomic      Atomic             Coordinates (Angstroms)
 Number     Number       Type             X           Y           Z
 ---------------------------------------------------------------------
      1          8           0        0.030426    1.149951   -0.000000
      2          1           0        0.025412    0.167362   -0.000000
      3          1           0       -0.897428    1.473356   -0.000000
      4          8           0        0.030426   -0.974508    0.000000
      5          1           0        0.959258   -1.295099    0.000000
      6          1           0       -0.574065   -1.749165    0.000000
 ---------------------------------------------------------------------

 SCF Done:  E(RHF) =  -33.6072298747     A.U. after   11 cycles
 E2 =    -0.2273179173D+00 EUMP2 =    -0.33834547792035D+02
 CCSD(T)
 CCSD(T)= -0.33849154967D+02

 The electronic state is 1-A'.
 Alpha  occ. eigenvalues --   -1.45360  -1.26839  -0.81071  -0.76287  -0.58654
 Alpha  occ. eigenvalues --   -0.55220  -0.43912  -0.40878
 Alpha virt. eigenvalues --    0.16538   0.25042   0.30221   0.61989   0.73323
 Alpha virt. eigenvalues --    0.73775   0.87282   0.91770   0.92272   1.03288
 Alpha virt. eigenvalues --    1.13420   1.18840   1.30215   1.37425   2.93396

 Mulliken charges:
               1
     1  O   -0.751201
     2  H    0.306340
     3  H    0.316290
     4  O   -0.787414
     5  H    0.444242
     6  H    0.471742
 Sum of Mulliken charges =  -0.00000

 Dipole moment (field-independent basis, Debye):
    X=             -1.2724    Y=             -5.6008    Z=              0.0000  Tot=              5.7435
 Quadrupole moment (field-independent basis, Debye-Ang):
   XX=             -9.3159   YY=            -10.5841   ZZ=            -14.9385
   XY=             -3.4541   XZ=              0.0000   YZ=             -0.0000

 57\MP4DQ=-33.8430147\MP4SDQ=-33.8453265\CCSD=-33.8459424\CCSD(T)=-33.8
 Normal termination of Gaussian 16 at Sun Dec 10 06:20:23 2023.
