 Gaussian 16, Revision A.03,
 Gaussian 16:  ES64L-G16RevA.03 25-Dec-2016

 ------------------
 #p CCSD(T)/CEP-31G
 ------------------

 ------------
 H2O_H2O_3349
 ------------
 Symbolic Z-matrix:
 Charge =  0 Multiplicity = 1

                         Standard orientation:
 ---------------------------------------------------------------------
 Center     Atomic      Atomic             Coordinates (Angstroms)
 Number     Number       Type             X           Y           Z
 ---------------------------------------------------------------------
      1          8           0       -0.013511    2.427531    0.000000
      2          1           0       -0.010640    1.444933    0.000000
      3          1           0        0.915047    2.748911    0.000000
      4          8           0       -0.013511   -2.268266    0.000000
      5          1           0       -0.996107   -2.271136    0.000000
      6          1           0        0.307870   -3.196824    0.000000
 ---------------------------------------------------------------------

 SCF Done:  E(RHF) =  -33.6545991846     A.U. after   11 cycles
 E2 =    -0.2282777693D+00 EUMP2 =    -0.33882876953918D+02
 CCSD(T)
 CCSD(T)= -0.33899803067D+02

 The electronic state is 1-A'.
 Alpha  occ. eigenvalues --   -1.36553  -1.34479  -0.72204  -0.70124  -0.56446
 Alpha  occ. eigenvalues --   -0.54307  -0.51164  -0.49099
 Alpha virt. eigenvalues --    0.18898   0.21803   0.29591   0.31853   0.79398
 Alpha virt. eigenvalues --    0.81398   0.82244   0.84281   0.85483   0.87563
 Alpha virt. eigenvalues --    1.16408   1.18770   1.20852   1.24322   2.56415

 Mulliken charges:
               1
     1  O   -0.752143
     2  H    0.382026
     3  H    0.369810
     4  O   -0.751263
     5  H    0.375078
     6  H    0.376492
 Sum of Mulliken charges =  -0.00000

 Dipole moment (field-independent basis, Debye):
    X=              0.6168    Y=             -3.7735    Z=              0.0000  Tot=              3.8236
 Quadrupole moment (field-independent basis, Debye-Ang):
   XX=             -9.8719   YY=             -7.5549   ZZ=            -14.9939
   XY=              8.7771   XZ=              0.0000   YZ=              0.0000

 162\MP4DQ=-33.8941684\MP4SDQ=-33.8961967\CCSD=-33.897242\CCSD(T)=-33.8
 Normal termination of Gaussian 16 at Sun Dec 10 06:33:20 2023.
