 Gaussian 16, Revision A.03,
 Gaussian 16:  ES64L-G16RevA.03 25-Dec-2016

 ------------------
 #p CCSD(T)/CEP-31G
 ------------------

 ------------
 H2O_H2O_3135
 ------------
 Symbolic Z-matrix:
 Charge =  0 Multiplicity = 1

                         Standard orientation:
 ---------------------------------------------------------------------
 Center     Atomic      Atomic             Coordinates (Angstroms)
 Number     Number       Type             X           Y           Z
 ---------------------------------------------------------------------
      1          8           0        0.063236    2.356570   -0.000000
      2          1           0        0.062124    1.373969   -0.000000
      3          1           0       -0.865896    2.676288   -0.000000
      4          8           0        0.063236   -2.181062    0.000000
      5          1           0        0.660524   -2.961288    0.000000
      6          1           0       -0.868526   -2.493033    0.000000
 ---------------------------------------------------------------------

 SCF Done:  E(RHF) =  -33.6544765614     A.U. after   11 cycles
 E2 =    -0.2283371187D+00 EUMP2 =    -0.33882813680061D+02
 CCSD(T)
 CCSD(T)= -0.33899741364D+02

 The electronic state is 1-A'.
 Alpha  occ. eigenvalues --   -1.36675  -1.34189  -0.72325  -0.69800  -0.56568
 Alpha  occ. eigenvalues --   -0.53987  -0.51283  -0.48795
 Alpha virt. eigenvalues --    0.18854   0.22047   0.29454   0.32189   0.79288
 Alpha virt. eigenvalues --    0.81699   0.82412   0.84763   0.85231   0.87965
 Alpha virt. eigenvalues --    1.16331   1.19035   1.20730   1.25067   2.56176

 Mulliken charges:
               1
     1  O   -0.751702
     2  H    0.386445
     3  H    0.364656
     4  O   -0.750309
     5  H    0.378547
     6  H    0.372362
 Sum of Mulliken charges =   0.00000

 Dipole moment (field-independent basis, Debye):
    X=             -2.8879    Y=             -4.1843    Z=              0.0000  Tot=              5.0841
 Quadrupole moment (field-independent basis, Debye-Ang):
   XX=             -9.7769   YY=             -6.6444   ZZ=            -14.9938
   XY=             -5.0308   XZ=              0.0000   YZ=             -0.0000

 487\MP4DQ=-33.8940997\MP4SDQ=-33.8961342\CCSD=-33.8971765\CCSD(T)=-33.
 Normal termination of Gaussian 16 at Sun Dec 10 06:29:29 2023.
