 Gaussian 16, Revision A.03,
 Gaussian 16:  ES64L-G16RevA.03 25-Dec-2016

 ------------------
 #p CCSD(T)/CEP-31G
 ------------------

 ------------
 H2O_H2O_3651
 ------------
 Symbolic Z-matrix:
 Charge =  0 Multiplicity = 1

                         Standard orientation:
 ---------------------------------------------------------------------
 Center     Atomic      Atomic             Coordinates (Angstroms)
 Number     Number       Type             X           Y           Z
 ---------------------------------------------------------------------
      1          8           0        0.090684   -2.545991    0.000000
      2          1           0        0.090606   -1.563389    0.000000
      3          1           0       -0.838784   -2.864731    0.000000
      4          8           0        0.090684    2.407281    0.000000
      5          1           0        0.154873    3.387784    0.000000
      6          1           0       -0.857640    2.150014    0.000000
 ---------------------------------------------------------------------

 SCF Done:  E(RHF) =  -33.6522865096     A.U. after   11 cycles
 E2 =    -0.2283665135D+00 EUMP2 =    -0.33880653023119D+02
 CCSD(T)
 CCSD(T)= -0.33897642417D+02

 The electronic state is 1-A'.
 Alpha  occ. eigenvalues --   -1.36524  -1.34982  -0.72182  -0.70590  -0.56297
 Alpha  occ. eigenvalues --   -0.54718  -0.51099  -0.49554
 Alpha virt. eigenvalues --    0.18740   0.21253   0.29523   0.31180   0.79475
 Alpha virt. eigenvalues --    0.80982   0.82371   0.83987   0.85434   0.87340
 Alpha virt. eigenvalues --    1.16244   1.18122   1.20851   1.23060   2.55873

 Mulliken charges:
               1
     1  O   -0.743165
     2  H    0.377229
     3  H    0.365847
     4  O   -0.743726
     5  H    0.376490
     6  H    0.367324
 Sum of Mulliken charges =   0.00000

 Dipole moment (field-independent basis, Debye):
    X=             -4.1606    Y=              3.2806    Z=              0.0000  Tot=              5.2984
 Quadrupole moment (field-independent basis, Debye-Ang):
   XX=            -11.1321   YY=             -9.1108   ZZ=            -14.9887
   XY=              2.6069   XZ=              0.0000   YZ=              0.0000

 549\MP4DQ=-33.8919965\MP4SDQ=-33.8940259\CCSD=-33.8950779\CCSD(T)=-33.
 Normal termination of Gaussian 16 at Sun Dec 10 06:38:42 2023.
