 Gaussian 16, Revision A.03,
 Gaussian 16:  ES64L-G16RevA.03 25-Dec-2016

 ------------------
 #p CCSD(T)/CEP-31G
 ------------------

 ------------
 H2O_H2O_1185
 ------------
 Symbolic Z-matrix:
 Charge =  0 Multiplicity = 1

                         Standard orientation:
 ---------------------------------------------------------------------
 Center     Atomic      Atomic             Coordinates (Angstroms)
 Number     Number       Type             X           Y           Z
 ---------------------------------------------------------------------
      1          8           0        0.063288    1.578723   -0.000000
      2          1           0        0.061596    0.596123   -0.000000
      3          1           0       -0.865655    1.898989   -0.000000
      4          8           0        0.063288   -1.403289    0.000000
      5          1           0        0.660115   -2.183869    0.000000
      6          1           0       -0.868658   -1.714710    0.000000
 ---------------------------------------------------------------------

 SCF Done:  E(RHF) =  -33.6609557216     A.U. after   11 cycles
 E2 =    -0.2290425549D+00 EUMP2 =    -0.33889998276509D+02
 CCSD(T)
 CCSD(T)= -0.33906669299D+02

 The electronic state is 1-A'.
 Alpha  occ. eigenvalues --   -1.38572  -1.31885  -0.74256  -0.68169  -0.58967
 Alpha  occ. eigenvalues --   -0.53261  -0.51508  -0.46505
 Alpha virt. eigenvalues --    0.17541   0.25831   0.28072   0.42440   0.76095
 Alpha virt. eigenvalues --    0.78794   0.85450   0.85476   0.93285   1.03581
 Alpha virt. eigenvalues --    1.14989   1.18706   1.21658   1.35501   2.50746

 Mulliken charges:
               1
     1  O   -0.777969
     2  H    0.428821
     3  H    0.347693
     4  O   -0.795813
     5  H    0.412070
     6  H    0.385198
 Sum of Mulliken charges =   0.00000

 Dipole moment (field-independent basis, Debye):
    X=             -2.7844    Y=             -4.5470    Z=             -0.0000  Tot=              5.3318
 Quadrupole moment (field-independent basis, Debye-Ang):
   XX=             -9.7656   YY=             -8.5459   ZZ=            -15.0104
   XY=             -3.9603   XZ=              0.0000   YZ=             -0.0000

 5\MP4DQ=-33.9008282\MP4SDQ=-33.902951\CCSD=-33.9039246\CCSD(T)=-33.906
 Normal termination of Gaussian 16 at Sun Dec 10 06:40:50 2023.
