 Gaussian 16, Revision A.03,
 Gaussian 16:  ES64L-G16RevA.03 25-Dec-2016

 ------------------
 #p CCSD(T)/CEP-31G
 ------------------

 ------------
 H2O_H2O_3721
 ------------
 Symbolic Z-matrix:
 Charge =  0 Multiplicity = 1

                         Standard orientation:
 ---------------------------------------------------------------------
 Center     Atomic      Atomic             Coordinates (Angstroms)
 Number     Number       Type             X           Y           Z
 ---------------------------------------------------------------------
      1          8           0       -0.023188    2.583154    0.000000
      2          1           0       -0.020819    1.600555    0.000000
      3          1           0        0.905534    2.904061    0.000000
      4          8           0       -0.023188   -2.412756    0.000000
      5          1           0       -0.986444   -2.606776    0.000000
      6          1           0        0.472738   -3.261027    0.000000
 ---------------------------------------------------------------------

 SCF Done:  E(RHF) =  -33.6542101607     A.U. after   11 cycles
 E2 =    -0.2282743375D+00 EUMP2 =    -0.33882484498130D+02
 CCSD(T)
 CCSD(T)= -0.33899417792D+02

 The electronic state is 1-A'.
 Alpha  occ. eigenvalues --   -1.36432  -1.34485  -0.72076  -0.70123  -0.56305
 Alpha  occ. eigenvalues --   -0.54299  -0.51039  -0.49097
 Alpha virt. eigenvalues --    0.19313   0.21563   0.29698   0.31797   0.79519
 Alpha virt. eigenvalues --    0.81403   0.82270   0.84376   0.85529   0.87523
 Alpha virt. eigenvalues --    1.16568   1.18589   1.20966   1.23437   2.56521

 Mulliken charges:
               1
     1  O   -0.750561
     2  H    0.381475
     3  H    0.368950
     4  O   -0.749674
     5  H    0.375006
     6  H    0.374805
 Sum of Mulliken charges =  -0.00000

 Dipole moment (field-independent basis, Debye):
    X=              1.0611    Y=             -4.0203    Z=              0.0000  Tot=              4.1579
 Quadrupole moment (field-independent basis, Debye-Ang):
   XX=             -9.5954   YY=             -6.5308   ZZ=            -14.9934
   XY=              8.4631   XZ=              0.0000   YZ=              0.0000

 036\MP4DQ=-33.893787\MP4SDQ=-33.8958116\CCSD=-33.89686\CCSD(T)=-33.899
 Normal termination of Gaussian 16 at Sun Dec 10 06:39:57 2023.
