 Gaussian 16, Revision A.03,
 Gaussian 16:  ES64L-G16RevA.03 25-Dec-2016

 ------------------
 #p CCSD(T)/CEP-31G
 ------------------

 ------------
 H2O_H2O_3414
 ------------
 Symbolic Z-matrix:
 Charge =  0 Multiplicity = 1

                         Standard orientation:
 ---------------------------------------------------------------------
 Center     Atomic      Atomic             Coordinates (Angstroms)
 Number     Number       Type             X           Y           Z
 ---------------------------------------------------------------------
      1          8           0        0.048575    2.468918   -0.000000
      2          1           0        0.046992    1.486318   -0.000000
      3          1           0       -0.880403    2.789082   -0.000000
      4          8           0        0.048575   -2.288522    0.000000
      5          1           0        0.827161   -2.887947    0.000000
      6          1           0       -0.770954   -2.830627    0.000000
 ---------------------------------------------------------------------

 SCF Done:  E(RHF) =  -33.6544825327     A.U. after   11 cycles
 E2 =    -0.2282984272D+00 EUMP2 =    -0.33882780959901D+02
 CCSD(T)
 CCSD(T)= -0.33899705390D+02

 The electronic state is 1-A'.
 Alpha  occ. eigenvalues --   -1.36547  -1.34237  -0.72191  -0.69859  -0.56440
 Alpha  occ. eigenvalues --   -0.54046  -0.51158  -0.48847
 Alpha virt. eigenvalues --    0.19157   0.21879   0.29619   0.32065   0.79408
 Alpha virt. eigenvalues --    0.81644   0.82236   0.84674   0.85397   0.87814
 Alpha virt. eigenvalues --    1.16468   1.18903   1.20898   1.24049   2.56410

 Mulliken charges:
               1
     1  O   -0.751618
     2  H    0.384959
     3  H    0.366313
     4  O   -0.750223
     5  H    0.377071
     6  H    0.373498
 Sum of Mulliken charges =   0.00000

 Dipole moment (field-independent basis, Debye):
    X=             -2.2204    Y=             -4.2781    Z=              0.0000  Tot=              4.8200
 Quadrupole moment (field-independent basis, Debye-Ang):
   XX=             -9.4605   YY=             -6.0913   ZZ=            -14.9940
   XY=             -6.2451   XZ=              0.0000   YZ=             -0.0000

 202\MP4DQ=-33.8940721\MP4SDQ=-33.8961004\CCSD=-33.8971455\CCSD(T)=-33.
 Normal termination of Gaussian 16 at Sun Dec 10 06:34:29 2023.
