 Gaussian 16, Revision A.03,
 Gaussian 16:  ES64L-G16RevA.03 25-Dec-2016

 ------------------
 #p CCSD(T)/CEP-31G
 ------------------

 ------------
 H2O_H2O_2189
 ------------
 Symbolic Z-matrix:
 Charge =  0 Multiplicity = 1

                         Standard orientation:
 ---------------------------------------------------------------------
 Center     Atomic      Atomic             Coordinates (Angstroms)
 Number     Number       Type             X           Y           Z
 ---------------------------------------------------------------------
      1          8           0        0.048613    1.980274   -0.000000
      2          1           0        0.046620    0.997675   -0.000000
      3          1           0       -0.880232    2.300825   -0.000000
      4          8           0        0.048613   -1.799918    0.000000
      5          1           0        0.826949   -2.399667    0.000000
      6          1           0       -0.771143   -2.341681    0.000000
 ---------------------------------------------------------------------

 SCF Done:  E(RHF) =  -33.6576851000     A.U. after   11 cycles
 E2 =    -0.2285180852D+00 EUMP2 =    -0.33886203185181D+02
 CCSD(T)
 CCSD(T)= -0.33903083449D+02

 The electronic state is 1-A'.
 Alpha  occ. eigenvalues --   -1.37222  -1.33300  -0.72872  -0.68932  -0.57363
 Alpha  occ. eigenvalues --   -0.53142  -0.51875  -0.47945
 Alpha virt. eigenvalues --    0.18253   0.23589   0.29113   0.34346   0.78557
 Alpha virt. eigenvalues --    0.82660   0.83516   0.85834   0.87326   0.88935
 Alpha virt. eigenvalues --    1.15872   1.20114   1.20377   1.31299   2.52725

 Mulliken charges:
               1
     1  O   -0.765787
     2  H    0.402084
     3  H    0.361513
     4  O   -0.760123
     5  H    0.384203
     6  H    0.378110
 Sum of Mulliken charges =   0.00000

 Dipole moment (field-independent basis, Debye):
    X=             -2.1967    Y=             -4.4108    Z=              0.0000  Tot=              4.9275
 Quadrupole moment (field-independent basis, Debye-Ang):
   XX=             -9.4542   YY=             -7.2537   ZZ=            -15.0002
   XY=             -5.2315   XZ=              0.0000   YZ=             -0.0000

 13\MP4DQ=-33.8973907\MP4SDQ=-33.8994574\CCSD=-33.9004837\CCSD(T)=-33.9
 Normal termination of Gaussian 16 at Sun Dec 10 07:00:32 2023.
