 Gaussian 16, Revision A.03,
 Gaussian 16:  ES64L-G16RevA.03 25-Dec-2016

 ------------------
 #p CCSD(T)/CEP-31G
 ------------------

 ------------
 H2O_H2O_3707
 ------------
 Symbolic Z-matrix:
 Charge =  0 Multiplicity = 1

                         Standard orientation:
 ---------------------------------------------------------------------
 Center     Atomic      Atomic             Coordinates (Angstroms)
 Number     Number       Type             X           Y           Z
 ---------------------------------------------------------------------
      1          8           0        0.073530    2.581275    0.000000
      2          1           0        0.072870    1.598674    0.000000
      3          1           0       -0.855749    2.900566   -0.000000
      4          8           0        0.073530   -2.414324    0.000000
      5          1           0        0.507532   -3.295884    0.000000
      6          1           0       -0.901133   -2.538970   -0.000000
 ---------------------------------------------------------------------

 SCF Done:  E(RHF) =  -33.6532864693     A.U. after   11 cycles
 E2 =    -0.2283223604D+00 EUMP2 =    -0.33881608829695D+02
 CCSD(T)
 CCSD(T)= -0.33898567042D+02

 The electronic state is 1-A'.
 Alpha  occ. eigenvalues --   -1.36474  -1.34590  -0.72123  -0.70204  -0.56298
 Alpha  occ. eigenvalues --   -0.54360  -0.51065  -0.49180
 Alpha virt. eigenvalues --    0.19192   0.21439   0.29597   0.31651   0.79500
 Alpha virt. eigenvalues --    0.81335   0.82316   0.84360   0.85473   0.87581
 Alpha virt. eigenvalues --    1.16483   1.18440   1.20887   1.23338   2.56459

 Mulliken charges:
               1
     1  O   -0.747011
     2  H    0.381005
     3  H    0.365878
     4  O   -0.746823
     5  H    0.376566
     6  H    0.370385
 Sum of Mulliken charges =   0.00000

 Dipole moment (field-independent basis, Debye):
    X=             -3.3704    Y=             -3.9454    Z=             -0.0000  Tot=              5.1890
 Quadrupole moment (field-independent basis, Debye-Ang):
   XX=            -10.1687   YY=             -6.8228   ZZ=            -14.9914
   XY=             -4.4588   XZ=              0.0000   YZ=             -0.0000

 3\MP4DQ=-33.8929295\MP4SDQ=-33.8949565\CCSD=-33.8960064\CCSD(T)=-33.89
 Normal termination of Gaussian 16 at Sun Dec 10 06:39:42 2023.
