 Gaussian 16, Revision A.03,
 Gaussian 16:  ES64L-G16RevA.03 25-Dec-2016

 ------------------
 #p CCSD(T)/CEP-31G
 ------------------

 ------------
 H2O_H2O_3277
 ------------
 Symbolic Z-matrix:
 Charge =  0 Multiplicity = 1

                         Standard orientation:
 ---------------------------------------------------------------------
 Center     Atomic      Atomic             Coordinates (Angstroms)
 Number     Number       Type             X           Y           Z
 ---------------------------------------------------------------------
      1          8           0        0.088231   -2.399459    0.000000
      2          1           0        0.088059   -1.416858    0.000000
      3          1           0       -0.841206   -2.718288    0.000000
      4          8           0        0.088231    2.255139    0.000000
      5          1           0        0.216316    3.229357    0.000000
      6          1           0       -0.874870    2.060353    0.000000
 ---------------------------------------------------------------------

 SCF Done:  E(RHF) =  -33.6526787097     A.U. after   11 cycles
 E2 =    -0.2283807261D+00 EUMP2 =    -0.33881059435796D+02
 CCSD(T)
 CCSD(T)= -0.33898039559D+02

 The electronic state is 1-A'.
 Alpha  occ. eigenvalues --   -1.36656  -1.34801  -0.72320  -0.70402  -0.56450
 Alpha  occ. eigenvalues --   -0.54543  -0.51235  -0.49376
 Alpha virt. eigenvalues --    0.18354   0.21652   0.29415   0.31439   0.79344
 Alpha virt. eigenvalues --    0.81155   0.82325   0.84146   0.85375   0.87591
 Alpha virt. eigenvalues --    1.16077   1.18464   1.20732   1.24280   2.56056

 Mulliken charges:
               1
     1  O   -0.744757
     2  H    0.379710
     3  H    0.364785
     4  O   -0.745213
     5  H    0.377864
     6  H    0.367611
 Sum of Mulliken charges =  -0.00000

 Dipole moment (field-independent basis, Debye):
    X=             -4.0406    Y=              3.4314    Z=              0.0000  Tot=              5.3010
 Quadrupole moment (field-independent basis, Debye-Ang):
   XX=            -10.9746   YY=             -8.7127   ZZ=            -14.9894
   XY=              2.8782   XZ=              0.0000   YZ=              0.0000

 473\MP4DQ=-33.8923899\MP4SDQ=-33.8944235\CCSD=-33.8954717\CCSD(T)=-33.
 Normal termination of Gaussian 16 at Sun Dec 10 06:32:03 2023.
