 Gaussian 16, Revision A.03,
 Gaussian 16:  ES64L-G16RevA.03 25-Dec-2016

 ------------------
 #p CCSD(T)/CEP-31G
 ------------------

 ------------
 H2O_H2O_4070
 ------------
 Symbolic Z-matrix:
 Charge =  0 Multiplicity = 1

                         Standard orientation:
 ---------------------------------------------------------------------
 Center     Atomic      Atomic             Coordinates (Angstroms)
 Number     Number       Type             X           Y           Z
 ---------------------------------------------------------------------
      1          8           0        0.026626    2.724306   -0.000000
      2          1           0        0.024493    1.741707   -0.000000
      3          1           0       -0.902173    3.044990   -0.000000
      4          8           0        0.026626   -2.551062    0.000000
      5          1           0        0.975192   -2.807437    0.000000
      6          1           0       -0.523522   -3.365214    0.000000
 ---------------------------------------------------------------------

 SCF Done:  E(RHF) =  -33.6538188766     A.U. after   11 cycles
 E2 =    -0.2282799497D+00 EUMP2 =    -0.33882098826300D+02
 CCSD(T)
 CCSD(T)= -0.33899042511D+02

 The electronic state is 1-A'.
 Alpha  occ. eigenvalues --   -1.36341  -1.34582  -0.71982  -0.70218  -0.56191
 Alpha  occ. eigenvalues --   -0.54384  -0.50942  -0.49187
 Alpha virt. eigenvalues --    0.19482   0.21381   0.29783   0.31653   0.79612
 Alpha virt. eigenvalues --    0.81321   0.82397   0.84308   0.85626   0.87417
 Alpha virt. eigenvalues --    1.16648   1.18429   1.21070   1.23032   2.56596

 Mulliken charges:
               1
     1  O   -0.749036
     2  H    0.380029
     3  H    0.368957
     4  O   -0.748315
     5  H    0.374485
     6  H    0.373880
 Sum of Mulliken charges =   0.00000

 Dipole moment (field-independent basis, Debye):
    X=             -1.2204    Y=             -4.0739    Z=              0.0000  Tot=              4.2528
 Quadrupole moment (field-independent basis, Debye-Ang):
   XX=             -9.5281   YY=             -6.0555   ZZ=            -14.9927
   XY=             -8.6083   XZ=              0.0000   YZ=             -0.0000

 2\MP4DQ=-33.8934115\MP4SDQ=-33.895435\CCSD=-33.8964856\CCSD(T)=-33.899
 Normal termination of Gaussian 16 at Sun Dec 10 06:46:15 2023.
