 Gaussian 16, Revision A.03,
 Gaussian 16:  ES64L-G16RevA.03 25-Dec-2016

 ------------------
 #p CCSD(T)/CEP-31G
 ------------------

 ------------
 H2O_H2O_2692
 ------------
 Symbolic Z-matrix:
 Charge =  0 Multiplicity = 1

                         Standard orientation:
 ---------------------------------------------------------------------
 Center     Atomic      Atomic             Coordinates (Angstroms)
 Number     Number       Type             X           Y           Z
 ---------------------------------------------------------------------
      1          8           0        0.037462    2.178950    0.000000
      2          1           0        0.035207    1.196351    0.000000
      3          1           0       -0.891297    2.499749    0.000000
      4          8           0        0.037462   -1.999999   -0.000000
      5          1           0        0.917731   -2.436614   -0.000000
      6          1           0       -0.661033   -2.691093   -0.000000
 ---------------------------------------------------------------------

 SCF Done:  E(RHF) =  -33.6562480876     A.U. after   11 cycles
 E2 =    -0.2283656023D+00 EUMP2 =    -0.33884613689910D+02
 CCSD(T)
 CCSD(T)= -0.33901506058D+02

 The electronic state is 1-A'.
 Alpha  occ. eigenvalues --   -1.36873  -1.33778  -0.72520  -0.69406  -0.56878
 Alpha  occ. eigenvalues --   -0.53624  -0.51508  -0.48413
 Alpha virt. eigenvalues --    0.18591   0.22727   0.29385   0.32876   0.79046
 Alpha virt. eigenvalues --    0.82074   0.83475   0.84499   0.85653   0.88148
 Alpha virt. eigenvalues --    1.16199   1.19650   1.20624   1.27639   2.55123

 Mulliken charges:
               1
     1  O   -0.759065
     2  H    0.392344
     3  H    0.365343
     4  O   -0.755176
     5  H    0.379655
     6  H    0.376899
 Sum of Mulliken charges =  -0.00000

 Dipole moment (field-independent basis, Debye):
    X=             -1.7016    Y=             -4.3068    Z=             -0.0000  Tot=              4.6308
 Quadrupole moment (field-independent basis, Debye-Ang):
   XX=             -9.4083   YY=             -6.8224   ZZ=            -14.9974
   XY=             -6.2765   XZ=             -0.0000   YZ=              0.0000

 965\MP4DQ=-33.8958521\MP4SDQ=-33.8978989\CCSD=-33.8989324\CCSD(T)=-33.
 Normal termination of Gaussian 16 at Sun Dec 10 06:21:27 2023.
