 Gaussian 16, Revision A.03,
 Gaussian 16:  ES64L-G16RevA.03 25-Dec-2016

 ------------------
 #p CCSD(T)/CEP-31G
 ------------------

 -----------
 H2O_H2O_925
 -----------
 Symbolic Z-matrix:
 Charge =  0 Multiplicity = 1

                         Standard orientation:
 ---------------------------------------------------------------------
 Center     Atomic      Atomic             Coordinates (Angstroms)
 Number     Number       Type             X           Y           Z
 ---------------------------------------------------------------------
      1          8           0        0.092949   -1.455833    0.000000
      2          1           0        0.092949   -0.473232    0.000000
      3          1           0       -0.836544   -1.774500    0.000000
      4          8           0        0.092949    1.323046    0.000000
      5          1           0        0.092949    2.305648    0.000000
      6          1           0       -0.836544    1.004380    0.000000
 ---------------------------------------------------------------------

 SCF Done:  E(RHF) =  -33.6477888347     A.U. after   11 cycles
 E2 =    -0.2294106433D+00 EUMP2 =    -0.33877199477995D+02
 CCSD(T)
 CCSD(T)= -0.33894141436D+02

 The electronic state is 1-A'.
 Alpha  occ. eigenvalues --   -1.39610  -1.33310  -0.76430  -0.68649  -0.59107
 Alpha  occ. eigenvalues --   -0.53950  -0.52736  -0.47752
 Alpha virt. eigenvalues --    0.16478   0.25053   0.27719   0.43917   0.74767
 Alpha virt. eigenvalues --    0.79404   0.84764   0.85521   0.91089   1.12167
 Alpha virt. eigenvalues --    1.14204   1.23484   1.29828   1.37406   2.51645

 Mulliken charges:
               1
     1  O   -0.731614
     2  H    0.366748
     3  H    0.343626
     4  O   -0.763697
     5  H    0.421804
     6  H    0.363132
 Sum of Mulliken charges =   0.00000

 Dipole moment (field-independent basis, Debye):
    X=             -4.1056    Y=              3.6145    Z=              0.0000  Tot=              5.4699
 Quadrupole moment (field-independent basis, Debye-Ang):
   XX=            -11.3665   YY=             -9.6904   ZZ=            -14.9844
   XY=              2.2191   XZ=              0.0000   YZ=              0.0000

 433\MP4DQ=-33.8880941\MP4SDQ=-33.8903744\CCSD=-33.8913089\CCSD(T)=-33.
 Normal termination of Gaussian 16 at Sun Dec 10 06:35:55 2023.
