 Gaussian 16, Revision A.03,
 Gaussian 16:  ES64L-G16RevA.03 25-Dec-2016

 ------------------
 #p CCSD(T)/CEP-31G
 ------------------

 ------------
 H2O_H2O_4013
 ------------
 Symbolic Z-matrix:
 Charge =  0 Multiplicity = 1

                         Standard orientation:
 ---------------------------------------------------------------------
 Center     Atomic      Atomic             Coordinates (Angstroms)
 Number     Number       Type             X           Y           Z
 ---------------------------------------------------------------------
      1          8           0        0.052280    2.707981    0.000000
      2          1           0        0.050961    1.725380    0.000000
      3          1           0       -0.876785    3.027894    0.000000
      4          8           0        0.052280   -2.528068   -0.000000
      5          1           0        0.790170   -3.176932   -0.000000
      6          1           0       -0.800819   -3.015643   -0.000000
 ---------------------------------------------------------------------

 SCF Done:  E(RHF) =  -33.6536432916     A.U. after   11 cycles
 E2 =    -0.2282951123D+00 EUMP2 =    -0.33881938403899D+02
 CCSD(T)
 CCSD(T)= -0.33898885843D+02

 The electronic state is 1-A'.
 Alpha  occ. eigenvalues --   -1.36367  -1.34508  -0.72008  -0.70133  -0.56210
 Alpha  occ. eigenvalues --   -0.54298  -0.50966  -0.49108
 Alpha virt. eigenvalues --    0.19448   0.21454   0.29753   0.31721   0.79592
 Alpha virt. eigenvalues --    0.81401   0.82380   0.84411   0.85610   0.87536
 Alpha virt. eigenvalues --    1.16614   1.18493   1.21051   1.23101   2.56574

 Mulliken charges:
               1
     1  O   -0.748362
     2  H    0.381051
     3  H    0.367246
     4  O   -0.747663
     5  H    0.375471
     6  H    0.372256
 Sum of Mulliken charges =  -0.00000

 Dipole moment (field-independent basis, Debye):
    X=             -2.3972    Y=             -4.2361    Z=             -0.0000  Tot=              4.8673
 Quadrupole moment (field-independent basis, Debye-Ang):
   XX=             -9.5143   YY=             -5.5888   ZZ=            -14.9924
   XY=             -6.4364   XZ=             -0.0000   YZ=              0.0000

 05\MP4DQ=-33.8932536\MP4SDQ=-33.8952778\CCSD=-33.8963283\CCSD(T)=-33.8
 Normal termination of Gaussian 16 at Sun Dec 10 06:45:13 2023.
