 Gaussian 16, Revision A.03,
 Gaussian 16:  ES64L-G16RevA.03 25-Dec-2016

 ------------------
 #p CCSD(T)/CEP-31G
 ------------------

 ------------
 H2O_H2O_3262
 ------------
 Symbolic Z-matrix:
 Charge =  0 Multiplicity = 1

                         Standard orientation:
 ---------------------------------------------------------------------
 Center     Atomic      Atomic             Coordinates (Angstroms)
 Number     Number       Type             X           Y           Z
 ---------------------------------------------------------------------
      1          8           0        0.055987    2.408279    0.000000
      2          1           0        0.054634    1.425679    0.000000
      3          1           0       -0.873067    2.728225   -0.000000
      4          8           0        0.055987   -2.229368    0.000000
      5          1           0        0.749834   -2.925128    0.000000
      6          1           0       -0.827190   -2.660072   -0.000000
 ---------------------------------------------------------------------

 SCF Done:  E(RHF) =  -33.6545367050     A.U. after   11 cycles
 E2 =    -0.2283157676D+00 EUMP2 =    -0.33882852472569D+02
 CCSD(T)
 CCSD(T)= -0.33899776494D+02

 The electronic state is 1-A'.
 Alpha  occ. eigenvalues --   -1.36613  -1.34191  -0.72259  -0.69808  -0.56509
 Alpha  occ. eigenvalues --   -0.53996  -0.51223  -0.48800
 Alpha virt. eigenvalues --    0.19019   0.21980   0.29543   0.32143   0.79346
 Alpha virt. eigenvalues --    0.81691   0.82302   0.84740   0.85303   0.87904
 Alpha virt. eigenvalues --    1.16403   1.18992   1.20819   1.24520   2.56299

 Mulliken charges:
               1
     1  O   -0.751867
     2  H    0.385944
     3  H    0.365442
     4  O   -0.750401
     5  H    0.377853
     6  H    0.373029
 Sum of Mulliken charges =   0.00000

 Dipole moment (field-independent basis, Debye):
    X=             -2.5578    Y=             -4.2546    Z=             -0.0000  Tot=              4.9643
 Quadrupole moment (field-independent basis, Debye-Ang):
   XX=             -9.5842   YY=             -6.3239   ZZ=            -14.9941
   XY=             -5.6166   XZ=              0.0000   YZ=             -0.0000

 3879\MP4DQ=-33.8941396\MP4SDQ=-33.8961709\CCSD=-33.8972144\CCSD(T)=-33
 Normal termination of Gaussian 16 at Sun Dec 10 06:31:47 2023.
