 Gaussian 16, Revision A.03,
 Gaussian 16:  ES64L-G16RevA.03 25-Dec-2016

 ------------------
 #p CCSD(T)/CEP-31G
 ------------------

 ------------
 H2O_H2O_3180
 ------------
 Symbolic Z-matrix:
 Charge =  0 Multiplicity = 1

                         Standard orientation:
 ---------------------------------------------------------------------
 Center     Atomic      Atomic             Coordinates (Angstroms)
 Number     Number       Type             X           Y           Z
 ---------------------------------------------------------------------
      1          8           0        0.079852    2.367579   -0.000000
      2          1           0        0.079366    1.384978   -0.000000
      3          1           0       -0.849484    2.686705   -0.000000
      4          8           0        0.079852   -2.208517    0.000000
      5          1           0        0.395238   -3.139128    0.000000
      6          1           0       -0.902744   -2.205052    0.000000
 ---------------------------------------------------------------------

 SCF Done:  E(RHF) =  -33.6534507733     A.U. after   11 cycles
 E2 =    -0.2283651750D+00 EUMP2 =    -0.33881815948306D+02
 CCSD(T)
 CCSD(T)= -0.33898773819D+02

 The electronic state is 1-A'.
 Alpha  occ. eigenvalues --   -1.36679  -1.34513  -0.72338  -0.70116  -0.56514
 Alpha  occ. eigenvalues --   -0.54278  -0.51270  -0.49101
 Alpha virt. eigenvalues --    0.18576   0.21821   0.29385   0.31809   0.79306
 Alpha virt. eigenvalues --    0.81414   0.82357   0.84438   0.85331   0.87802
 Alpha virt. eigenvalues --    1.16208   1.18735   1.20681   1.24868   2.56297

 Mulliken charges:
               1
     1  O   -0.747766
     2  H    0.382995
     3  H    0.364348
     4  O   -0.747584
     5  H    0.378443
     6  H    0.369565
 Sum of Mulliken charges =   0.00000

 Dipole moment (field-independent basis, Debye):
    X=             -3.6524    Y=             -3.7891    Z=              0.0000  Tot=              5.2628
 Quadrupole moment (field-independent basis, Debye-Ang):
   XX=            -10.4824   YY=             -7.6865   ZZ=            -14.9913
   XY=             -3.7180   XZ=              0.0000   YZ=             -0.0000

 804\MP4DQ=-33.8931265\MP4SDQ=-33.8951613\CCSD=-33.8962066\CCSD(T)=-33.
 Normal termination of Gaussian 16 at Sun Dec 10 06:30:18 2023.
