 Gaussian 16, Revision A.03,
 Gaussian 16:  ES64L-G16RevA.03 25-Dec-2016

 ------------------
 #p CCSD(T)/CEP-31G
 ------------------

 ------------
 H2O_H2O_3148
 ------------
 Symbolic Z-matrix:
 Charge =  0 Multiplicity = 1

                         Standard orientation:
 ---------------------------------------------------------------------
 Center     Atomic      Atomic             Coordinates (Angstroms)
 Number     Number       Type             X           Y           Z
 ---------------------------------------------------------------------
      1          8           0       -0.016626    2.349996    0.000000
      2          1           0       -0.013771    1.367398    0.000000
      3          1           0        0.911937    2.671361    0.000000
      4          8           0       -0.016626   -2.186605    0.000000
      5          1           0       -0.996934   -2.253719    0.000000
      6          1           0        0.364783   -3.092162    0.000000
 ---------------------------------------------------------------------

 SCF Done:  E(RHF) =  -33.6550278023     A.U. after   11 cycles
 E2 =    -0.2282904126D+00 EUMP2 =    -0.33883318214882D+02
 CCSD(T)
 CCSD(T)= -0.33900234509D+02

 The electronic state is 1-A'.
 Alpha  occ. eigenvalues --   -1.36633  -1.34322  -0.72284  -0.69965  -0.56552
 Alpha  occ. eigenvalues --   -0.54158  -0.51250  -0.48947
 Alpha virt. eigenvalues --    0.18754   0.22043   0.29521   0.32081   0.79314
 Alpha virt. eigenvalues --    0.81544   0.82340   0.84355   0.85557   0.87688
 Alpha virt. eigenvalues --    1.16348   1.19007   1.20779   1.25218   2.56339

 Mulliken charges:
               1
     1  O   -0.753896
     2  H    0.384191
     3  H    0.369191
     4  O   -0.752466
     5  H    0.376003
     6  H    0.376976
 Sum of Mulliken charges =  -0.00000

 Dipole moment (field-independent basis, Debye):
    X=              0.7577    Y=             -3.8857    Z=              0.0000  Tot=              3.9589
 Quadrupole moment (field-independent basis, Debye-Ang):
   XX=             -9.7676   YY=             -7.3815   ZZ=            -14.9948
   XY=              8.2264   XZ=              0.0000   YZ=              0.0000

 431\MP4DQ=-33.8945967\MP4SDQ=-33.8966289\CCSD=-33.897671\CCSD(T)=-33.9
 Normal termination of Gaussian 16 at Sun Dec 10 06:29:43 2023.
