 Gaussian 16, Revision A.03,
 Gaussian 16:  ES64L-G16RevA.03 25-Dec-2016

 ------------------
 #p CCSD(T)/CEP-31G
 ------------------

 ------------
 H2O_H2O_1619
 ------------
 Symbolic Z-matrix:
 Charge =  0 Multiplicity = 1

                         Standard orientation:
 ---------------------------------------------------------------------
 Center     Atomic      Atomic             Coordinates (Angstroms)
 Number     Number       Type             X           Y           Z
 ---------------------------------------------------------------------
      1          8           0        0.030265    1.748318   -0.000000
      2          1           0        0.027057    0.765721   -0.000000
      3          1           0       -0.898183    2.070017   -0.000000
      4          8           0        0.030265   -1.572763    0.000000
      5          1           0        0.959684   -1.891645    0.000000
      6          1           0       -0.572801   -2.348531    0.000000
 ---------------------------------------------------------------------

 SCF Done:  E(RHF) =  -33.6608333310     A.U. after   11 cycles
 E2 =    -0.2287190289D+00 EUMP2 =    -0.33889552359926D+02
 CCSD(T)
 CCSD(T)= -0.33906360647D+02

 The electronic state is 1-A'.
 Alpha  occ. eigenvalues --   -1.37772  -1.32584  -0.73434  -0.68380  -0.58220
 Alpha  occ. eigenvalues --   -0.52464  -0.52413  -0.47266
 Alpha virt. eigenvalues --    0.17965   0.24920   0.28745   0.37913   0.77453
 Alpha virt. eigenvalues --    0.81007   0.83893   0.86445   0.89537   0.97337
 Alpha virt. eigenvalues --    1.15419   1.19277   1.21309   1.34714   2.50320

 Mulliken charges:
               1
     1  O   -0.779308
     2  H    0.416299
     3  H    0.360726
     4  O   -0.777594
     5  H    0.388627
     6  H    0.391250
 Sum of Mulliken charges =  -0.00000

 Dipole moment (field-independent basis, Debye):
    X=             -1.3563    Y=             -4.4028    Z=              0.0000  Tot=              4.6070
 Quadrupole moment (field-independent basis, Debye-Ang):
   XX=             -9.4476   YY=             -8.0123   ZZ=            -15.0073
   XY=             -5.4213   XZ=              0.0000   YZ=             -0.0000

 732\MP4DQ=-33.9006044\MP4SDQ=-33.9026934\CCSD=-33.9037032\CCSD(T)=-33.
 Normal termination of Gaussian 16 at Sun Dec 10 06:49:27 2023.
