 Gaussian 16, Revision A.03,
 Gaussian 16:  ES64L-G16RevA.03 25-Dec-2016

 ------------------
 #p CCSD(T)/CEP-31G
 ------------------

 ------------
 H2O_H2O_1950
 ------------
 Symbolic Z-matrix:
 Charge =  0 Multiplicity = 1

                         Standard orientation:
 ---------------------------------------------------------------------
 Center     Atomic      Atomic             Coordinates (Angstroms)
 Number     Number       Type             X           Y           Z
 ---------------------------------------------------------------------
      1          8           0        0.092949   -1.864682    0.000000
      2          1           0        0.092949   -0.882081    0.000000
      3          1           0       -0.836544   -2.183349    0.000000
      4          8           0        0.092949    1.731895    0.000000
      5          1           0        0.092949    2.714497    0.000000
      6          1           0       -0.836544    1.413229    0.000000
 ---------------------------------------------------------------------

 SCF Done:  E(RHF) =  -33.6528493274     A.U. after   11 cycles
 E2 =    -0.2288585617D+00 EUMP2 =    -0.33881707889146D+02
 CCSD(T)
 CCSD(T)= -0.33898762846D+02

 The electronic state is 1-A'.
 Alpha  occ. eigenvalues --   -1.37558  -1.34508  -0.73373  -0.70007  -0.57402
 Alpha  occ. eigenvalues --   -0.54196  -0.52118  -0.49059
 Alpha virt. eigenvalues --    0.16524   0.23582   0.28615   0.34178   0.78065
 Alpha virt. eigenvalues --    0.81971   0.82434   0.84425   0.87893   0.94529
 Alpha virt. eigenvalues --    1.15383   1.18128   1.20940   1.37189   2.54334

 Mulliken charges:
               1
     1  O   -0.748455
     2  H    0.387571
     3  H    0.358565
     4  O   -0.748621
     5  H    0.387532
     6  H    0.363408
 Sum of Mulliken charges =   0.00000

 Dipole moment (field-independent basis, Debye):
    X=             -4.2118    Y=              3.2819    Z=              0.0000  Tot=              5.3395
 Quadrupole moment (field-independent basis, Debye-Ang):
   XX=            -11.3181   YY=             -9.5597   ZZ=            -14.9872
   XY=              2.2774   XZ=              0.0000   YZ=              0.0000

 675\MP4DQ=-33.8929917\MP4SDQ=-33.8951023\CCSD=-33.8961251\CCSD(T)=-33.
 Normal termination of Gaussian 16 at Sun Dec 10 06:55:41 2023.
