 Gaussian 16, Revision A.03,
 Gaussian 16:  ES64L-G16RevA.03 25-Dec-2016

 ------------------
 #p CCSD(T)/CEP-31G
 ------------------

 -----------
 H2O_H2O_411
 -----------
 Symbolic Z-matrix:
 Charge =  0 Multiplicity = 1

                         Standard orientation:
 ---------------------------------------------------------------------
 Center     Atomic      Atomic             Coordinates (Angstroms)
 Number     Number       Type             X           Y           Z
 ---------------------------------------------------------------------
      1          8           0        0.059744    1.270614   -0.000000
      2          1           0        0.057352    0.288016   -0.000000
      3          1           0       -0.868970    1.591543   -0.000000
      4          8           0        0.059744   -1.093308    0.000000
      5          1           0        0.705818   -1.833642    0.000000
      6          1           0       -0.850104   -1.464366    0.000000
 ---------------------------------------------------------------------

 SCF Done:  E(RHF) =  -33.6457345620     A.U. after   11 cycles
 E2 =    -0.2287989088D+00 EUMP2 =    -0.33874533470824D+02
 CCSD(T)
 CCSD(T)= -0.33889959582D+02

 The electronic state is 1-A'.
 Alpha  occ. eigenvalues --   -1.41969  -1.28941  -0.77284  -0.72661  -0.57537
 Alpha  occ. eigenvalues --   -0.56320  -0.47436  -0.43280
 Alpha virt. eigenvalues --    0.16746   0.26164   0.28700   0.56682   0.73699
 Alpha virt. eigenvalues --    0.74171   0.85828   0.89797   0.95482   1.04782
 Alpha virt. eigenvalues --    1.13734   1.18044   1.24731   1.35518   2.76766

 Mulliken charges:
               1
     1  O   -0.760448
     2  H    0.405058
     3  H    0.321776
     4  O   -0.834152
     5  H    0.454733
     6  H    0.413033
 Sum of Mulliken charges =   0.00000

 Dipole moment (field-independent basis, Debye):
    X=             -2.4823    Y=             -5.1591    Z=              0.0000  Tot=              5.7252
 Quadrupole moment (field-independent basis, Debye-Ang):
   XX=             -9.6063   YY=             -9.9240   ZZ=            -14.9939
   XY=             -3.5384   XZ=              0.0000   YZ=             -0.0000

 \MP4DQ=-33.8839029\MP4SDQ=-33.8861476\CCSD=-33.8868972\CCSD(T)=-33.889
 Normal termination of Gaussian 16 at Sun Dec 10 06:26:09 2023.
