 Gaussian 16, Revision A.03,
 Gaussian 16:  ES64L-G16RevA.03 25-Dec-2016

 ------------------
 #p CCSD(T)/CEP-31G
 ------------------

 ------------
 H2O_H2O_1286
 ------------
 Symbolic Z-matrix:
 Charge =  0 Multiplicity = 1

                         Standard orientation:
 ---------------------------------------------------------------------
 Center     Atomic      Atomic             Coordinates (Angstroms)
 Number     Number       Type             X           Y           Z
 ---------------------------------------------------------------------
      1          8           0        0.059695    1.619664   -0.000000
      2          1           0        0.057848    0.637064   -0.000000
      3          1           0       -0.869198    1.940077    0.000000
      4          8           0        0.059695   -1.442292   -0.000000
      5          1           0        0.706179   -2.182267   -0.000000
      6          1           0       -0.849947   -1.813854    0.000000
 ---------------------------------------------------------------------

 SCF Done:  E(RHF) =  -33.6611866453     A.U. after   11 cycles
 E2 =    -0.2290015670D+00 EUMP2 =    -0.33890188212300D+02
 CCSD(T)
 CCSD(T)= -0.33906894427D+02

 The electronic state is 1-A'.
 Alpha  occ. eigenvalues --   -1.38350  -1.32022  -0.74009  -0.68133  -0.58815
 Alpha  occ. eigenvalues --   -0.53047  -0.51702  -0.46659
 Alpha virt. eigenvalues --    0.17669   0.25620   0.28254   0.41291   0.76449
 Alpha virt. eigenvalues --    0.79340   0.85089   0.85586   0.92785   1.01251
 Alpha virt. eigenvalues --    1.14918   1.19183   1.21421   1.34935   2.50064

 Mulliken charges:
               1
     1  O   -0.779302
     2  H    0.428078
     3  H    0.350057
     4  O   -0.790442
     5  H    0.406307
     6  H    0.385303
 Sum of Mulliken charges =  -0.00000

 Dipole moment (field-independent basis, Debye):
    X=             -2.6374    Y=             -4.5527    Z=              0.0000  Tot=              5.2614
 Quadrupole moment (field-independent basis, Debye-Ang):
   XX=             -9.6572   YY=             -8.3872   ZZ=            -15.0100
   XY=             -4.1386   XZ=             -0.0000   YZ=              0.0000

 3767\MP4DQ=-33.9010783\MP4SDQ=-33.9031878\CCSD=-33.9041719\CCSD(T)=-33
 Normal termination of Gaussian 16 at Sun Dec 10 06:42:50 2023.
