 Gaussian 16, Revision A.03,
 Gaussian 16:  ES64L-G16RevA.03 25-Dec-2016

 ------------------
 #p CCSD(T)/CEP-31G
 ------------------

 -----------
 H2O_H2O_983
 -----------
 Symbolic Z-matrix:
 Charge =  0 Multiplicity = 1

                         Standard orientation:
 ---------------------------------------------------------------------
 Center     Atomic      Atomic             Coordinates (Angstroms)
 Number     Number       Type             X           Y           Z
 ---------------------------------------------------------------------
      1          8           0        0.070243    1.496088    0.000000
      2          1           0        0.068875    0.513488    0.000000
      3          1           0       -0.858805    1.816049    0.000000
      4          8           0        0.070243   -1.325917    0.000000
      5          1           0        0.560358   -2.177558    0.000000
      6          1           0       -0.894317   -1.513346    0.000000
 ---------------------------------------------------------------------

 SCF Done:  E(RHF) =  -33.6593104326     A.U. after   11 cycles
 E2 =    -0.2290607709D+00 EUMP2 =    -0.33888371203436D+02
 CCSD(T)
 CCSD(T)= -0.33904957208D+02

 The electronic state is 1-A'.
 Alpha  occ. eigenvalues --   -1.39128  -1.31623  -0.74937  -0.68390  -0.59176
 Alpha  occ. eigenvalues --   -0.53771  -0.51100  -0.46194
 Alpha virt. eigenvalues --    0.17249   0.26192   0.27670   0.44994   0.75347
 Alpha virt. eigenvalues --    0.77856   0.85248   0.86299   0.94109   1.07856
 Alpha virt. eigenvalues --    1.16542   1.17808   1.22179   1.36446   2.53380

 Mulliken charges:
               1
     1  O   -0.771056
     2  H    0.424586
     3  H    0.342494
     4  O   -0.806680
     5  H    0.425914
     6  H    0.384741
 Sum of Mulliken charges =   0.00000

 Dipole moment (field-independent basis, Debye):
    X=             -3.0634    Y=             -4.5205    Z=              0.0000  Tot=              5.4607
 Quadrupole moment (field-independent basis, Debye-Ang):
   XX=            -10.0307   YY=             -8.8666   ZZ=            -15.0090
   XY=             -3.6154   XZ=              0.0000   YZ=              0.0000

 783\MP4DQ=-33.8990544\MP4SDQ=-33.9012155\CCSD=-33.9021638\CCSD(T)=-33.
 Normal termination of Gaussian 16 at Sun Dec 10 06:37:00 2023.
