 Gaussian 16, Revision A.03,
 Gaussian 16:  ES64L-G16RevA.03 25-Dec-2016

 ------------------
 #p CCSD(T)/CEP-31G
 ------------------

 ------------
 H2O_H2O_2883
 ------------
 Symbolic Z-matrix:
 Charge =  0 Multiplicity = 1

                         Standard orientation:
 ---------------------------------------------------------------------
 Center     Atomic      Atomic             Coordinates (Angstroms)
 Number     Number       Type             X           Y           Z
 ---------------------------------------------------------------------
      1          8           0        0.070202    2.253989    0.000000
      2          1           0        0.069311    1.271388    0.000000
      3          1           0       -0.859002    2.573497    0.000000
      4          8           0        0.070202   -2.083749    0.000000
      5          1           0        0.560731   -2.935152    0.000000
      6          1           0       -0.894267   -2.271648    0.000000
 ---------------------------------------------------------------------

 SCF Done:  E(RHF) =  -33.6545462073     A.U. after   11 cycles
 E2 =    -0.2283834199D+00 EUMP2 =    -0.33882929627209D+02
 CCSD(T)
 CCSD(T)= -0.33899862391D+02

 The electronic state is 1-A'.
 Alpha  occ. eigenvalues --   -1.36805  -1.34148  -0.72463  -0.69751  -0.56706
 Alpha  occ. eigenvalues --   -0.53939  -0.51413  -0.48751
 Alpha virt. eigenvalues --    0.18499   0.22268   0.29307   0.32348   0.79158
 Alpha virt. eigenvalues --    0.81752   0.82781   0.84809   0.85234   0.88082
 Alpha virt. eigenvalues --    1.16168   1.19190   1.20597   1.26565   2.55824

 Mulliken charges:
               1
     1  O   -0.752205
     2  H    0.387873
     3  H    0.363434
     4  O   -0.750669
     5  H    0.379868
     6  H    0.371700
 Sum of Mulliken charges =  -0.00000

 Dipole moment (field-independent basis, Debye):
    X=             -3.2023    Y=             -4.0812    Z=              0.0000  Tot=              5.1876
 Quadrupole moment (field-independent basis, Debye-Ang):
   XX=            -10.0292   YY=             -7.1537   ZZ=            -14.9937
   XY=             -4.4076   XZ=              0.0000   YZ=              0.0000

 93\MP4DQ=-33.8942091\MP4SDQ=-33.8962516\CCSD=-33.8972907\CCSD(T)=-33.8
 Normal termination of Gaussian 16 at Sun Dec 10 06:24:53 2023.
