 Gaussian 16, Revision A.03,
 Gaussian 16:  ES64L-G16RevA.03 25-Dec-2016

 ------------------
 #p CCSD(T)/CEP-31G
 ------------------

 ------------
 H2O_H2O_4149
 ------------
 Symbolic Z-matrix:
 Charge =  0 Multiplicity = 1

                         Standard orientation:
 ---------------------------------------------------------------------
 Center     Atomic      Atomic             Coordinates (Angstroms)
 Number     Number       Type             X           Y           Z
 ---------------------------------------------------------------------
      1          8           0       -0.013483    2.746636    0.000000
      2          1           0       -0.010956    1.764037    0.000000
      3          1           0        0.915188    3.067691    0.000000
      4          8           0       -0.013483   -2.587362    0.000000
      5          1           0       -0.996081   -2.589889    0.000000
      6          1           0        0.307574   -3.516032    0.000000
 ---------------------------------------------------------------------

 SCF Done:  E(RHF) =  -33.6536380804     A.U. after   11 cycles
 E2 =    -0.2282798136D+00 EUMP2 =    -0.33881917893999D+02
 CCSD(T)
 CCSD(T)= -0.33898868078D+02

 The electronic state is 1-A'.
 Alpha  occ. eigenvalues --   -1.36322  -1.34759  -0.71965  -0.70401  -0.56159
 Alpha  occ. eigenvalues --   -0.54560  -0.50920  -0.49363
 Alpha virt. eigenvalues --    0.19470   0.21201   0.29798   0.31444   0.79634
 Alpha virt. eigenvalues --    0.81151   0.82447   0.84129   0.85623   0.87243
 Alpha virt. eigenvalues --    1.16654   1.18250   1.21087   1.22822   2.56569

 Mulliken charges:
               1
     1  O   -0.748331
     2  H    0.378138
     3  H    0.370163
     4  O   -0.747946
     5  H    0.373537
     6  H    0.374439
 Sum of Mulliken charges =  -0.00000

 Dipole moment (field-independent basis, Debye):
    X=              0.6185    Y=             -3.7406    Z=              0.0000  Tot=              3.7914
 Quadrupole moment (field-independent basis, Debye-Ang):
   XX=             -9.8757   YY=             -7.1643   ZZ=            -14.9922
   XY=              9.9510   XZ=              0.0000   YZ=              0.0000

 869\MP4DQ=-33.8932356\MP4SDQ=-33.8952592\CCSD=-33.8963106\CCSD(T)=-33.
 Normal termination of Gaussian 16 at Sun Dec 10 06:47:40 2023.
