 Gaussian 16, Revision A.03,
 Gaussian 16:  ES64L-G16RevA.03 25-Dec-2016

 ------------------
 #p CCSD(T)/CEP-31G
 ------------------

 ------------
 H2O_H2O_2628
 ------------
 Symbolic Z-matrix:
 Charge =  0 Multiplicity = 1

                         Standard orientation:
 ---------------------------------------------------------------------
 Center     Atomic      Atomic             Coordinates (Angstroms)
 Number     Number       Type             X           Y           Z
 ---------------------------------------------------------------------
      1          8           0        0.085603   -2.143053    0.000000
      2          1           0        0.085301   -1.160452    0.000000
      3          1           0       -0.843792   -2.462005    0.000000
      4          8           0        0.085603    1.993461    0.000000
      5          1           0        0.277003    2.957241    0.000000
      6          1           0       -0.888159    1.861953    0.000000
 ---------------------------------------------------------------------

 SCF Done:  E(RHF) =  -33.6535563250     A.U. after   11 cycles
 E2 =    -0.2284866238D+00 EUMP2 =    -0.33882042948826D+02
 CCSD(T)
 CCSD(T)= -0.33899018655D+02

 The electronic state is 1-A'.
 Alpha  occ. eigenvalues --   -1.36979  -1.34446  -0.72664  -0.70028  -0.56830
 Alpha  occ. eigenvalues --   -0.54194  -0.51567  -0.49027
 Alpha virt. eigenvalues --    0.17590   0.22509   0.29136   0.32219   0.78984
 Alpha virt. eigenvalues --    0.81537   0.82889   0.84533   0.86260   0.87988
 Alpha virt. eigenvalues --    1.15734   1.19041   1.20490   1.29099   2.55829

 Mulliken charges:
               1
     1  O   -0.748858
     2  H    0.385637
     3  H    0.362199
     4  O   -0.748327
     5  H    0.381236
     6  H    0.368112
 Sum of Mulliken charges =   0.00000

 Dipole moment (field-independent basis, Debye):
    X=             -3.9034    Y=              3.6080    Z=              0.0000  Tot=              5.3155
 Quadrupole moment (field-independent basis, Debye-Ang):
   XX=            -10.8179   YY=             -8.5130   ZZ=            -14.9908
   XY=              3.0733   XZ=              0.0000   YZ=              0.0000

 5983\MP4DQ=-33.893341\MP4SDQ=-33.8953962\CCSD=-33.8964339\CCSD(T)=-33.
 Normal termination of Gaussian 16 at Sun Dec 10 06:20:19 2023.
