 Gaussian 16, Revision A.03,
 Gaussian 16:  ES64L-G16RevA.03 25-Dec-2016

 ------------------
 #p CCSD(T)/CEP-31G
 ------------------

 -----------
 H2O_H2O_876
 -----------
 Symbolic Z-matrix:
 Charge =  0 Multiplicity = 1

                         Standard orientation:
 ---------------------------------------------------------------------
 Center     Atomic      Atomic             Coordinates (Angstroms)
 Number     Number       Type             X           Y           Z
 ---------------------------------------------------------------------
      1          8           0        0.090689   -1.439100    0.000000
      2          1           0        0.090548   -0.456499    0.000000
      3          1           0       -0.838759   -1.757900    0.000000
      4          8           0        0.090689    1.300402    0.000000
      5          1           0        0.154813    2.280909    0.000000
      6          1           0       -0.857620    1.043074    0.000000
 ---------------------------------------------------------------------

 SCF Done:  E(RHF) =  -33.6486679599     A.U. after   11 cycles
 E2 =    -0.2292634220D+00 EUMP2 =    -0.33877931381939D+02
 CCSD(T)
 CCSD(T)= -0.33894801574D+02

 The electronic state is 1-A'.
 Alpha  occ. eigenvalues --   -1.39749  -1.32904  -0.76497  -0.68550  -0.59196
 Alpha  occ. eigenvalues --   -0.54101  -0.52297  -0.47350
 Alpha virt. eigenvalues --    0.16548   0.25228   0.27654   0.44954   0.74657
 Alpha virt. eigenvalues --    0.78962   0.84894   0.85933   0.91891   1.11900
 Alpha virt. eigenvalues --    1.14389   1.23358   1.31146   1.36903   2.52887

 Mulliken charges:
               1
     1  O   -0.733936
     2  H    0.370758
     3  H    0.341598
     4  O   -0.773948
     5  H    0.428351
     6  H    0.367178
 Sum of Mulliken charges =  -0.00000

 Dipole moment (field-independent basis, Debye):
    X=             -3.9919    Y=              3.8005    Z=              0.0000  Tot=              5.5117
 Quadrupole moment (field-independent basis, Debye-Ang):
   XX=            -11.2085   YY=             -9.5425   ZZ=            -14.9874
   XY=              2.4135   XZ=              0.0000   YZ=              0.0000

 MP4DQ=-33.8887564\MP4SDQ=-33.8910337\CCSD=-33.8919664\CCSD(T)=-33.8948
 Normal termination of Gaussian 16 at Sun Dec 10 06:34:59 2023.
