 Gaussian 16, Revision A.03,
 Gaussian 16:  ES64L-G16RevA.03 25-Dec-2016

 ------------------
 #p CCSD(T)/CEP-31G
 ------------------

 ------------
 H2O_H2O_2319
 ------------
 Symbolic Z-matrix:
 Charge =  0 Multiplicity = 1

                         Standard orientation:
 ---------------------------------------------------------------------
 Center     Atomic      Atomic             Coordinates (Angstroms)
 Number     Number       Type             X           Y           Z
 ---------------------------------------------------------------------
      1          8           0        0.030224    2.027544    0.000000
      2          1           0        0.027478    1.044947    0.000000
      3          1           0       -0.898375    2.348807    0.000000
      4          8           0        0.030224   -1.851961   -0.000000
      5          1           0        0.959793   -2.170407   -0.000000
      6          1           0       -0.572478   -2.628012   -0.000000
 ---------------------------------------------------------------------

 SCF Done:  E(RHF) =  -33.6574930726     A.U. after   11 cycles
 E2 =    -0.2284466281D+00 EUMP2 =    -0.33885939700702D+02
 CCSD(T)
 CCSD(T)= -0.33902822989D+02

 The electronic state is 1-A'.
 Alpha  occ. eigenvalues --   -1.37103  -1.33501  -0.72756  -0.69146  -0.57209
 Alpha  occ. eigenvalues --   -0.53364  -0.51754  -0.48154
 Alpha virt. eigenvalues --    0.18268   0.23351   0.29224   0.33796   0.78720
 Alpha virt. eigenvalues --    0.82406   0.83343   0.85590   0.86960   0.88533
 Alpha virt. eigenvalues --    1.15978   1.19990   1.20492   1.30897   2.53686

 Mulliken charges:
               1
     1  O   -0.764858
     2  H    0.397805
     3  H    0.365032
     4  O   -0.759528
     5  H    0.381351
     6  H    0.380197
 Sum of Mulliken charges =  -0.00000

 Dipole moment (field-independent basis, Debye):
    X=             -1.3663    Y=             -4.2712    Z=             -0.0000  Tot=              4.4844
 Quadrupole moment (field-independent basis, Debye-Ang):
   XX=             -9.4620   YY=             -7.3178   ZZ=            -14.9997
   XY=             -6.2620   XZ=             -0.0000   YZ=              0.0000

 885\MP4DQ=-33.8971421\MP4SDQ=-33.8992044\CCSD=-33.900232\CCSD(T)=-33.9
 Normal termination of Gaussian 16 at Sun Dec 10 07:04:07 2023.
