 Gaussian 16, Revision A.03,
 Gaussian 16:  ES64L-G16RevA.03 25-Dec-2016

 ------------------
 #p CCSD(T)/CEP-31G
 ------------------

 ------------
 H2O_H2O_4282
 ------------
 Symbolic Z-matrix:
 Charge =  0 Multiplicity = 1

                         Standard orientation:
 ---------------------------------------------------------------------
 Center     Atomic      Atomic             Coordinates (Angstroms)
 Number     Number       Type             X           Y           Z
 ---------------------------------------------------------------------
      1          8           0        0.073525    2.810634    0.000000
      2          1           0        0.072921    1.828033    0.000000
      3          1           0       -0.855772    3.129872    0.000000
      4          8           0        0.073525   -2.643674   -0.000000
      5          1           0        0.507577   -3.525209   -0.000000
      6          1           0       -0.901132   -2.768375   -0.000000
 ---------------------------------------------------------------------

 SCF Done:  E(RHF) =  -33.6528781876     A.U. after   11 cycles
 E2 =    -0.2283224562D+00 EUMP2 =    -0.33881200643828D+02
 CCSD(T)
 CCSD(T)= -0.33898170289D+02

 The electronic state is 1-A'.
 Alpha  occ. eigenvalues --   -1.36323  -1.34766  -0.71968  -0.70387  -0.56122
 Alpha  occ. eigenvalues --   -0.54529  -0.50909  -0.49352
 Alpha virt. eigenvalues --    0.19462   0.21139   0.29748   0.31401   0.79650
 Alpha virt. eigenvalues --    0.81172   0.82526   0.84179   0.85666   0.87343
 Alpha virt. eigenvalues --    1.16626   1.18187   1.21060   1.22749   2.56593

 Mulliken charges:
               1
     1  O   -0.745419
     2  H    0.378414
     3  H    0.366984
     4  O   -0.745327
     5  H    0.375118
     6  H    0.370229
 Sum of Mulliken charges =  -0.00000

 Dipole moment (field-independent basis, Debye):
    X=             -3.3774    Y=             -3.9240    Z=             -0.0000  Tot=              5.1774
 Quadrupole moment (field-independent basis, Debye-Ang):
   XX=            -10.1666   YY=             -6.4541   ZZ=            -14.9906
   XY=             -4.6671   XZ=              0.0000   YZ=              0.0000

 7879\MP4DQ=-33.892533\MP4SDQ=-33.8945584\CCSD=-33.8956111\CCSD(T)=-33.
 Normal termination of Gaussian 16 at Sun Dec 10 06:50:04 2023.
