 Gaussian 16, Revision A.03,
 Gaussian 16:  ES64L-G16RevA.03 25-Dec-2016

 ------------------
 #p CCSD(T)/CEP-31G
 ------------------

 ------------
 H2O_H2O_3483
 ------------
 Symbolic Z-matrix:
 Charge =  0 Multiplicity = 1

                         Standard orientation:
 ---------------------------------------------------------------------
 Center     Atomic      Atomic             Coordinates (Angstroms)
 Number     Number       Type             X           Y           Z
 ---------------------------------------------------------------------
      1          8           0        0.070194    2.493321   -0.000000
      2          1           0        0.069392    1.510720   -0.000000
      3          1           0       -0.859039    2.812746   -0.000000
      4          8           0        0.070194   -2.323069    0.000000
      5          1           0        0.560800   -3.174428    0.000000
      6          1           0       -0.894258   -2.511055    0.000000
 ---------------------------------------------------------------------

 SCF Done:  E(RHF) =  -33.6536658751     A.U. after   11 cycles
 E2 =    -0.2283236089D+00 EUMP2 =    -0.33881989483936D+02
 CCSD(T)
 CCSD(T)= -0.33898937249D+02

 The electronic state is 1-A'.
 Alpha  occ. eigenvalues --   -1.36544  -1.34452  -0.72194  -0.70065  -0.56390
 Alpha  occ. eigenvalues --   -0.54231  -0.51141  -0.49047
 Alpha virt. eigenvalues --    0.19068   0.21648   0.29537   0.31838   0.79428
 Alpha virt. eigenvalues --    0.81460   0.82263   0.84502   0.85390   0.87727
 Alpha virt. eigenvalues --    1.16427   1.18640   1.20819   1.23850   2.56422

 Mulliken charges:
               1
     1  O   -0.748485
     2  H    0.382829
     3  H    0.365408
     4  O   -0.748006
     5  H    0.377279
     6  H    0.370974
 Sum of Mulliken charges =   0.00000

 Dipole moment (field-independent basis, Debye):
    X=             -3.2135    Y=             -4.0353    Z=              0.0000  Tot=              5.1585
 Quadrupole moment (field-independent basis, Debye-Ang):
   XX=            -10.0268   YY=             -6.7304   ZZ=            -14.9922
   XY=             -4.6635   XZ=              0.0000   YZ=             -0.0000

 5513\MP4DQ=-33.8932993\MP4SDQ=-33.8953281\CCSD=-33.8963756\CCSD(T)=-33
 Normal termination of Gaussian 16 at Sun Dec 10 06:35:42 2023.
