 Gaussian 16, Revision A.03,
 Gaussian 16:  ES64L-G16RevA.03 25-Dec-2016

 ------------------
 #p CCSD(T)/CEP-31G
 ------------------

 -----------
 H2O_H2O_824
 -----------
 Symbolic Z-matrix:
 Charge =  0 Multiplicity = 1

                         Standard orientation:
 ---------------------------------------------------------------------
 Center     Atomic      Atomic             Coordinates (Angstroms)
 Number     Number       Type             X           Y           Z
 ---------------------------------------------------------------------
      1          8           0        0.013685   -1.420343    0.000000
      2          1           0        0.008659   -0.437754    0.000000
      3          1           0       -0.914165   -1.743760    0.000000
      4          8           0        0.013685    1.261138    0.000000
      5          1           0        0.996274    1.266165    0.000000
      6          1           0       -0.309733    2.188989    0.000000
 ---------------------------------------------------------------------

 SCF Done:  E(RHF) =  -33.6590395738     A.U. after   11 cycles
 E2 =    -0.2284834271D+00 EUMP2 =    -0.33887523000863D+02
 CCSD(T)
 CCSD(T)= -0.33903956695D+02

 The electronic state is 1-A'.
 Alpha  occ. eigenvalues --   -1.39606  -1.31164  -0.75852  -0.68221  -0.59665
 Alpha  occ. eigenvalues --   -0.54189  -0.50544  -0.45811
 Alpha virt. eigenvalues --    0.17514   0.26761   0.27686   0.47641   0.74772
 Alpha virt. eigenvalues --    0.77560   0.86542   0.87109   0.91611   1.09695
 Alpha virt. eigenvalues --    1.15444   1.22020   1.27197   1.37198   2.58090

 Mulliken charges:
               1
     1  O   -0.774037
     2  H    0.399309
     3  H    0.358059
     4  O   -0.821085
     5  H    0.401106
     6  H    0.436649
 Sum of Mulliken charges =  -0.00000

 Dipole moment (field-independent basis, Debye):
    X=             -0.6139    Y=              4.3503    Z=              0.0000  Tot=              4.3934
 Quadrupole moment (field-independent basis, Debye-Ang):
   XX=             -9.8273   YY=             -9.1670   ZZ=            -15.0124
   XY=              4.9799   XZ=              0.0000   YZ=              0.0000

 24\MP4DQ=-33.8980364\MP4SDQ=-33.9002164\CCSD=-33.9011405\CCSD(T)=-33.9
 Normal termination of Gaussian 16 at Sun Dec 10 06:34:01 2023.
