 Gaussian 16, Revision A.03,
 Gaussian 16:  ES64L-G16RevA.03 25-Dec-2016

 ------------------
 #p CCSD(T)/CEP-31G
 ------------------

 ------------
 H2O_H2O_4132
 ------------
 Symbolic Z-matrix:
 Charge =  0 Multiplicity = 1

                         Standard orientation:
 ---------------------------------------------------------------------
 Center     Atomic      Atomic             Coordinates (Angstroms)
 Number     Number       Type             X           Y           Z
 ---------------------------------------------------------------------
      1          8           0        0.073526    2.750801    0.000000
      2          1           0        0.072909    1.768200    0.000000
      3          1           0       -0.855766    3.070052    0.000000
      4          8           0        0.073526   -2.583843   -0.000000
      5          1           0        0.507566   -3.465385   -0.000000
      6          1           0       -0.901132   -2.708532   -0.000000
 ---------------------------------------------------------------------

 SCF Done:  E(RHF) =  -33.6529672181     A.U. after   11 cycles
 E2 =    -0.2283209634D+00 EUMP2 =    -0.33881288181574D+02
 CCSD(T)
 CCSD(T)= -0.33898255295D+02

 The electronic state is 1-A'.
 Alpha  occ. eigenvalues --   -1.36358  -1.34725  -0.72003  -0.70344  -0.56163
 Alpha  occ. eigenvalues --   -0.54490  -0.50945  -0.49312
 Alpha virt. eigenvalues --    0.19410   0.21203   0.29714   0.31458   0.79615
 Alpha virt. eigenvalues --    0.81210   0.82472   0.84221   0.85620   0.87395
 Alpha virt. eigenvalues --    1.16594   1.18240   1.21021   1.22846   2.56556

 Mulliken charges:
               1
     1  O   -0.745768
     2  H    0.379002
     3  H    0.366732
     4  O   -0.745664
     5  H    0.375444
     6  H    0.370254
 Sum of Mulliken charges =  -0.00000

 Dipole moment (field-independent basis, Debye):
    X=             -3.3758    Y=             -3.9287    Z=             -0.0000  Tot=              5.1798
 Quadrupole moment (field-independent basis, Debye-Ang):
   XX=            -10.1671   YY=             -6.5506   ZZ=            -14.9908
   XY=             -4.6128   XZ=             -0.0000   YZ=              0.0000

 8728\MP4DQ=-33.8926183\MP4SDQ=-33.8946437\CCSD=-33.8956959\CCSD(T)=-33
 Normal termination of Gaussian 16 at Sun Dec 10 06:47:22 2023.
