 Gaussian 16, Revision A.03,
 Gaussian 16:  ES64L-G16RevA.03 25-Dec-2016

 ------------------
 #p CCSD(T)/CEP-31G
 ------------------

 ------------
 H2O_H2O_1440
 ------------
 Symbolic Z-matrix:
 Charge =  0 Multiplicity = 1

                         Standard orientation:
 ---------------------------------------------------------------------
 Center     Atomic      Atomic             Coordinates (Angstroms)
 Number     Number       Type             X           Y           Z
 ---------------------------------------------------------------------
      1          8           0        0.044928    1.681105    0.000000
      2          1           0        0.042362    0.698507    0.000000
      3          1           0       -0.883730    2.002198   -0.000000
      4          8           0        0.044928   -1.500775    0.000000
      5          1           0        0.860503   -2.048811    0.000000
      6          1           0       -0.737985   -2.094536   -0.000000
 ---------------------------------------------------------------------

 SCF Done:  E(RHF) =  -33.6616914818     A.U. after   11 cycles
 E2 =    -0.2288869547D+00 EUMP2 =    -0.33890578436477D+02
 CCSD(T)
 CCSD(T)= -0.33907309363D+02

 The electronic state is 1-A'.
 Alpha  occ. eigenvalues --   -1.38047  -1.32163  -0.73677  -0.68113  -0.58583
 Alpha  occ. eigenvalues --   -0.52758  -0.51930  -0.46832
 Alpha virt. eigenvalues --    0.17904   0.25364   0.28537   0.39801   0.76956
 Alpha virt. eigenvalues --    0.80099   0.84586   0.86069   0.91661   0.97727
 Alpha virt. eigenvalues --    1.15140   1.19595   1.21351   1.33968   2.49633

 Mulliken charges:
               1
     1  O   -0.781878
     2  H    0.425365
     3  H    0.355119
     4  O   -0.784163
     5  H    0.395996
     6  H    0.389560
 Sum of Mulliken charges =  -0.00000

 Dipole moment (field-independent basis, Debye):
    X=             -1.9995    Y=             -4.5684    Z=             -0.0000  Tot=              4.9868
 Quadrupole moment (field-independent basis, Debye-Ang):
   XX=             -9.3995   YY=             -8.1362   ZZ=            -15.0103
   XY=             -4.7175   XZ=              0.0000   YZ=             -0.0000

 168\MP4DQ=-33.9015324\MP4SDQ=-33.9036224\CCSD=-33.9046183\CCSD(T)=-33.
 Normal termination of Gaussian 16 at Sun Dec 10 06:45:53 2023.
