 Gaussian 16, Revision A.03,
 Gaussian 16:  ES64L-G16RevA.03 25-Dec-2016

 ------------------
 #p CCSD(T)/CEP-31G
 ------------------

 ------------
 H2O_H2O_4125
 ------------
 Symbolic Z-matrix:
 Charge =  0 Multiplicity = 1

                         Standard orientation:
 ---------------------------------------------------------------------
 Center     Atomic      Atomic             Coordinates (Angstroms)
 Number     Number       Type             X           Y           Z
 ---------------------------------------------------------------------
      1          8           0        0.092949   -2.732240    0.000000
      2          1           0        0.092949   -1.749639    0.000000
      3          1           0       -0.836544   -3.050907    0.000000
      4          8           0        0.092949    2.599454    0.000000
      5          1           0        0.092949    3.582055    0.000000
      6          1           0       -0.836544    2.280787    0.000000
 ---------------------------------------------------------------------

 SCF Done:  E(RHF) =  -33.6520063794     A.U. after   11 cycles
 E2 =    -0.2283653783D+00 EUMP2 =    -0.33880371757677D+02
 CCSD(T)
 CCSD(T)= -0.33897368597D+02

 The electronic state is 1-A'.
 Alpha  occ. eigenvalues --   -1.36393  -1.35143  -0.72046  -0.70757  -0.56150
 Alpha  occ. eigenvalues --   -0.54874  -0.50966  -0.49713
 Alpha virt. eigenvalues --    0.19135   0.20865   0.29622   0.30966   0.79603
 Alpha virt. eigenvalues --    0.80830   0.82546   0.83848   0.85592   0.87086
 Alpha virt. eigenvalues --    1.16447   1.17828   1.20954   1.22424   2.56072

 Mulliken charges:
               1
     1  O   -0.742054
     2  H    0.375177
     3  H    0.366860
     4  O   -0.742506
     5  H    0.375173
     6  H    0.367350
 Sum of Mulliken charges =  -0.00000

 Dipole moment (field-independent basis, Debye):
    X=             -4.2723    Y=              3.1258    Z=              0.0000  Tot=              5.2937
 Quadrupole moment (field-independent basis, Debye-Ang):
   XX=            -11.2837   YY=             -9.6308   ZZ=            -14.9882
   XY=              2.3059   XZ=              0.0000   YZ=              0.0000

 9828\MP4DQ=-33.8917235\MP4SDQ=-33.8937515\CCSD=-33.8948057\CCSD(T)=-33
 Normal termination of Gaussian 16 at Sun Dec 10 06:47:14 2023.
