 Gaussian 16, Revision A.03,
 Gaussian 16:  ES64L-G16RevA.03 25-Dec-2016

 ------------------
 #p CCSD(T)/CEP-31G
 ------------------

 ------------
 H2O_H2O_1399
 ------------
 Symbolic Z-matrix:
 Charge =  0 Multiplicity = 1

                         Standard orientation:
 ---------------------------------------------------------------------
 Center     Atomic      Atomic             Coordinates (Angstroms)
 Number     Number       Type             X           Y           Z
 ---------------------------------------------------------------------
      1          8           0        0.013626   -1.649705    0.000000
      2          1           0        0.009333   -0.667113    0.000000
      3          1           0       -0.914466   -1.972429    0.000000
      4          8           0        0.013626    1.490479    0.000000
      5          1           0        0.996218    1.494772    0.000000
      6          1           0       -0.309099    2.418572    0.000000
 ---------------------------------------------------------------------

 SCF Done:  E(RHF) =  -33.6606379145     A.U. after   11 cycles
 E2 =    -0.2286901474D+00 EUMP2 =    -0.33889328061915D+02
 CCSD(T)
 CCSD(T)= -0.33906161736D+02

 The electronic state is 1-A'.
 Alpha  occ. eigenvalues --   -1.38099  -1.32664  -0.73928  -0.68501  -0.58563
 Alpha  occ. eigenvalues --   -0.52765  -0.52449  -0.47353
 Alpha virt. eigenvalues --    0.17655   0.25365   0.28470   0.39457   0.76745
 Alpha virt. eigenvalues --    0.80210   0.84334   0.86274   0.89055   1.06637
 Alpha virt. eigenvalues --    1.16174   1.17847   1.21741   1.37753   2.51361

 Mulliken charges:
               1
     1  O   -0.779430
     2  H    0.409771
     3  H    0.364908
     4  O   -0.786528
     5  H    0.387958
     6  H    0.403321
 Sum of Mulliken charges =   0.00000

 Dipole moment (field-independent basis, Debye):
    X=             -0.6100    Y=              4.0650    Z=              0.0000  Tot=              4.1105
 Quadrupole moment (field-independent basis, Debye-Ang):
   XX=             -9.8479   YY=             -8.6334   ZZ=            -15.0070
   XY=              5.8841   XZ=              0.0000   YZ=              0.0000

 6273\MP4DQ=-33.9003518\MP4SDQ=-33.9024759\CCSD=-33.9034763\CCSD(T)=-33
 Normal termination of Gaussian 16 at Sun Dec 10 06:45:04 2023.
