 Gaussian 16, Revision A.03,
 Gaussian 16:  ES64L-G16RevA.03 25-Dec-2016

 ------------------
 #p CCSD(T)/CEP-31G
 ------------------

 ------------
 H2O_H2O_3216
 ------------
 Symbolic Z-matrix:
 Charge =  0 Multiplicity = 1

                         Standard orientation:
 ---------------------------------------------------------------------
 Center     Atomic      Atomic             Coordinates (Angstroms)
 Number     Number       Type             X           Y           Z
 ---------------------------------------------------------------------
      1          8           0        0.041138    2.388889   -0.000000
      2          1           0        0.039225    1.406290   -0.000000
      3          1           0       -0.887733    2.709365   -0.000000
      4          8           0        0.041138   -2.208962    0.000000
      5          1           0        0.891138   -2.701919    0.000000
      6          1           0       -0.700838   -2.853151    0.000000
 ---------------------------------------------------------------------

 SCF Done:  E(RHF) =  -33.6549678120     A.U. after   11 cycles
 E2 =    -0.2283026199D+00 EUMP2 =    -0.33883270431956D+02
 CCSD(T)
 CCSD(T)= -0.33900183299D+02

 The electronic state is 1-A'.
 Alpha  occ. eigenvalues --   -1.36619  -1.34124  -0.72263  -0.69750  -0.56539
 Alpha  occ. eigenvalues --   -0.53948  -0.51237  -0.48743
 Alpha virt. eigenvalues --    0.19025   0.22076   0.29572   0.32224   0.79331
 Alpha virt. eigenvalues --    0.81741   0.82324   0.84691   0.85389   0.87893
 Alpha virt. eigenvalues --    1.16415   1.19099   1.20837   1.24700   2.56263

 Mulliken charges:
               1
     1  O   -0.753551
     2  H    0.386564
     3  H    0.366441
     4  O   -0.751620
     5  H    0.377491
     6  H    0.374675
 Sum of Mulliken charges =  -0.00000

 Dipole moment (field-independent basis, Debye):
    X=             -1.8774    Y=             -4.2803    Z=              0.0000  Tot=              4.6740
 Quadrupole moment (field-independent basis, Debye-Ang):
   XX=             -9.4092   YY=             -6.2964   ZZ=            -14.9950
   XY=             -6.5723   XZ=              0.0000   YZ=             -0.0000

 MP4DQ=-33.894548\MP4SDQ=-33.8965794\CCSD=-33.8976216\CCSD(T)=-33.90018
 Normal termination of Gaussian 16 at Sun Dec 10 06:30:57 2023.
