 Gaussian 16, Revision A.03,
 Gaussian 16:  ES64L-G16RevA.03 25-Dec-2016

 ------------------
 #p CCSD(T)/CEP-31G
 ------------------

 ------------
 H2O_H2O_1948
 ------------
 Symbolic Z-matrix:
 Charge =  0 Multiplicity = 1

                         Standard orientation:
 ---------------------------------------------------------------------
 Center     Atomic      Atomic             Coordinates (Angstroms)
 Number     Number       Type             X           Y           Z
 ---------------------------------------------------------------------
      1          8           0       -0.016690    1.871332    0.000000
      2          1           0       -0.013071    0.888738    0.000000
      3          1           0        0.911624    2.193420    0.000000
      4          8           0       -0.016690   -1.707968    0.000000
      5          1           0       -0.996944   -1.775844    0.000000
      6          1           0        0.365424   -2.613229    0.000000
 ---------------------------------------------------------------------

 SCF Done:  E(RHF) =  -33.6585907051     A.U. after   11 cycles
 E2 =    -0.2285528306D+00 EUMP2 =    -0.33887143535737D+02
 CCSD(T)
 CCSD(T)= -0.33904038257D+02

 The electronic state is 1-A'.
 Alpha  occ. eigenvalues --   -1.37398  -1.33372  -0.73092  -0.69055  -0.57608
 Alpha  occ. eigenvalues --   -0.53239  -0.52054  -0.48043
 Alpha virt. eigenvalues --    0.17820   0.24081   0.29013   0.35171   0.78171
 Alpha virt. eigenvalues --    0.82162   0.82786   0.85890   0.87966   0.93749
 Alpha virt. eigenvalues --    1.15718   1.19640   1.20740   1.35386   2.52733

 Mulliken charges:
               1
     1  O   -0.770639
     2  H    0.401402
     3  H    0.366663
     4  O   -0.766782
     5  H    0.382332
     6  H    0.387025
 Sum of Mulliken charges =  -0.00000

 Dipole moment (field-independent basis, Debye):
    X=              0.7501    Y=             -4.0286    Z=              0.0000  Tot=              4.0978
 Quadrupole moment (field-independent basis, Debye-Ang):
   XX=             -9.7547   YY=             -8.1147   ZZ=            -15.0014
   XY=              6.5236   XZ=              0.0000   YZ=              0.0000

 649\MP4DQ=-33.8983115\MP4SDQ=-33.9003974\CCSD=-33.9014188\CCSD(T)=-33.
 Normal termination of Gaussian 16 at Sun Dec 10 06:55:39 2023.
