 Gaussian 16, Revision A.03,
 Gaussian 16:  ES64L-G16RevA.03 25-Dec-2016

 ------------------
 #p CCSD(T)/CEP-31G
 ------------------

 ------------
 H2O_H2O_4021
 ------------
 Symbolic Z-matrix:
 Charge =  0 Multiplicity = 1

                         Standard orientation:
 ---------------------------------------------------------------------
 Center     Atomic      Atomic             Coordinates (Angstroms)
 Number     Number       Type             X           Y           Z
 ---------------------------------------------------------------------
      1          8           0       -0.023179    2.702820    0.000000
      2          1           0       -0.020918    1.720221    0.000000
      3          1           0        0.905579    3.023624    0.000000
      4          8           0       -0.023179   -2.532416    0.000000
      5          1           0       -0.986457   -2.726330    0.000000
      6          1           0        0.472654   -3.380742    0.000000
 ---------------------------------------------------------------------

 SCF Done:  E(RHF) =  -33.6538586098     A.U. after   11 cycles
 E2 =    -0.2282779099D+00 EUMP2 =    -0.33882136519622D+02
 CCSD(T)
 CCSD(T)= -0.33899079425D+02

 The electronic state is 1-A'.
 Alpha  occ. eigenvalues --   -1.36352  -1.34596  -0.71994  -0.70233  -0.56204
 Alpha  occ. eigenvalues --   -0.54400  -0.50954  -0.49202
 Alpha virt. eigenvalues --    0.19458   0.21378   0.29771   0.31643   0.79601
 Alpha virt. eigenvalues --    0.81305   0.82381   0.84289   0.85607   0.87404
 Alpha virt. eigenvalues --    1.16637   1.18422   1.21054   1.23052   2.56581

 Mulliken charges:
               1
     1  O   -0.749191
     2  H    0.379933
     3  H    0.369203
     4  O   -0.748505
     5  H    0.374393
     6  H    0.374168
 Sum of Mulliken charges =   0.00000

 Dipole moment (field-independent basis, Debye):
    X=              1.0622    Y=             -4.0082    Z=              0.0000  Tot=              4.1466
 Quadrupole moment (field-independent basis, Debye-Ang):
   XX=             -9.5967   YY=             -6.3181   ZZ=            -14.9927
   XY=              8.8505   XZ=              0.0000   YZ=              0.0000

 8\MP4DQ=-33.8934484\MP4SDQ=-33.895472\CCSD=-33.8965223\CCSD(T)=-33.899
 Normal termination of Gaussian 16 at Sun Dec 10 06:45:22 2023.
