 Gaussian 16, Revision A.03,
 Gaussian 16:  ES64L-G16RevA.03 25-Dec-2016

 ------------------
 #p CCSD(T)/CEP-31G
 ------------------

 ------------
 H2O_H2O_1068
 ------------
 Symbolic Z-matrix:
 Charge =  0 Multiplicity = 1

                         Standard orientation:
 ---------------------------------------------------------------------
 Center     Atomic      Atomic             Coordinates (Angstroms)
 Number     Number       Type             X           Y           Z
 ---------------------------------------------------------------------
      1          8           0        0.033905    1.529958   -0.000000
      2          1           0        0.030421    0.547363   -0.000000
      3          1           0       -0.894453    1.851918   -0.000000
      4          8           0        0.033905   -1.352522    0.000000
      5          1           0        0.940372   -1.731764    0.000000
      6          1           0       -0.618814   -2.087004    0.000000
 ---------------------------------------------------------------------

 SCF Done:  E(RHF) =  -33.6632718299     A.U. after   11 cycles
 E2 =    -0.2289541414D+00 EUMP2 =    -0.33892225971243D+02
 CCSD(T)
 CCSD(T)= -0.33908723021D+02

 The electronic state is 1-A'.
 Alpha  occ. eigenvalues --   -1.38787  -1.31308  -0.74412  -0.68113  -0.59269
 Alpha  occ. eigenvalues --   -0.53524  -0.50908  -0.45973
 Alpha virt. eigenvalues --    0.17692   0.26440   0.28050   0.44509   0.75712
 Alpha virt. eigenvalues --    0.77697   0.86109   0.86197   0.93400   1.02178
 Alpha virt. eigenvalues --    1.15433   1.18435   1.22769   1.35617   2.52160

 Mulliken charges:
               1
     1  O   -0.787053
     2  H    0.431953
     3  H    0.352252
     4  O   -0.807441
     5  H    0.401790
     6  H    0.408499
 Sum of Mulliken charges =   0.00000

 Dipole moment (field-independent basis, Debye):
    X=             -1.5020    Y=             -4.6405    Z=              0.0000  Tot=              4.8776
 Quadrupole moment (field-independent basis, Debye-Ang):
   XX=             -9.3860   YY=             -8.6954   ZZ=            -15.0175
   XY=             -4.6265   XZ=              0.0000   YZ=             -0.0000

 005\MP4DQ=-33.9028884\MP4SDQ=-33.9049992\CCSD=-33.9059493\CCSD(T)=-33.
 Normal termination of Gaussian 16 at Sun Dec 10 06:38:36 2023.
