 Gaussian 16, Revision A.03,
 Gaussian 16:  ES64L-G16RevA.03 25-Dec-2016

 ------------------
 #p CCSD(T)/CEP-31G
 ------------------

 -----------
 H2O_H2O_658
 -----------
 Symbolic Z-matrix:
 Charge =  0 Multiplicity = 1

                         Standard orientation:
 ---------------------------------------------------------------------
 Center     Atomic      Atomic             Coordinates (Angstroms)
 Number     Number       Type             X           Y           Z
 ---------------------------------------------------------------------
      1          8           0        0.070255    1.366443    0.000000
      2          1           0        0.068748    0.383843    0.000000
      3          1           0       -0.858748    1.686535    0.000000
      4          8           0        0.070255   -1.196292   -0.000000
      5          1           0        0.560250   -2.048003   -0.000000
      6          1           0       -0.894332   -1.383586   -0.000000
 ---------------------------------------------------------------------

 SCF Done:  E(RHF) =  -33.6545663448     A.U. after   11 cycles
 E2 =    -0.2289774395D+00 EUMP2 =    -0.33883543784226D+02
 CCSD(T)
 CCSD(T)= -0.33899689627D+02

 The electronic state is 1-A'.
 Alpha  occ. eigenvalues --   -1.40421  -1.30542  -0.76335  -0.69575  -0.58919
 Alpha  occ. eigenvalues --   -0.54947  -0.49640  -0.45013
 Alpha virt. eigenvalues --    0.16936   0.26404   0.27733   0.50840   0.74267
 Alpha virt. eigenvalues --    0.76034   0.85345   0.88073   0.96113   1.06858
 Alpha virt. eigenvalues --    1.16061   1.20197   1.23146   1.36342   2.63817

 Mulliken charges:
               1
     1  O   -0.760428
     2  H    0.415203
     3  H    0.332205
     4  O   -0.827820
     5  H    0.447913
     6  H    0.392928
 Sum of Mulliken charges =   0.00000

 Dipole moment (field-independent basis, Debye):
    X=             -2.9933    Y=             -4.7406    Z=             -0.0000  Tot=              5.6066
 Quadrupole moment (field-independent basis, Debye-Ang):
   XX=            -10.0212   YY=             -9.3635   ZZ=            -15.0052
   XY=             -3.4679   XZ=             -0.0000   YZ=              0.0000

 1\MP4DQ=-33.8936931\MP4SDQ=-33.8959096\CCSD=-33.8967766\CCSD(T)=-33.89
 Normal termination of Gaussian 16 at Sun Dec 10 06:30:54 2023.
