 Gaussian 16, Revision A.03,
 Gaussian 16:  ES64L-G16RevA.03 25-Dec-2016

 ------------------
 #p CCSD(T)/CEP-31G
 ------------------

 ------------
 H2O_H2O_2141
 ------------
 Symbolic Z-matrix:
 Charge =  0 Multiplicity = 1

                         Standard orientation:
 ---------------------------------------------------------------------
 Center     Atomic      Atomic             Coordinates (Angstroms)
 Number     Number       Type             X           Y           Z
 ---------------------------------------------------------------------
      1          8           0        0.041178    1.960079   -0.000000
      2          1           0        0.038827    0.977480   -0.000000
      3          1           0       -0.887550    2.280969   -0.000000
      4          8           0        0.041178   -1.780189    0.000000
      5          1           0        0.890958   -2.273525    0.000000
      6          1           0       -0.701085   -2.424045    0.000000
 ---------------------------------------------------------------------

 SCF Done:  E(RHF) =  -33.6581197871     A.U. after   11 cycles
 E2 =    -0.2285220262D+00 EUMP2 =    -0.33886641813318D+02
 CCSD(T)
 CCSD(T)= -0.33903513897D+02

 The electronic state is 1-A'.
 Alpha  occ. eigenvalues --   -1.37251  -1.33235  -0.72899  -0.68880  -0.57425
 Alpha  occ. eigenvalues --   -0.53088  -0.51910  -0.47889
 Alpha virt. eigenvalues --    0.18243   0.23714   0.29110   0.34578   0.78494
 Alpha virt. eigenvalues --    0.82739   0.83256   0.86069   0.87587   0.89235
 Alpha virt. eigenvalues --    1.15855   1.20108   1.20450   1.31690   2.52493

 Mulliken charges:
               1
     1  O   -0.767654
     2  H    0.403129
     3  H    0.362274
     4  O   -0.761653
     5  H    0.383945
     6  H    0.379958
 Sum of Mulliken charges =  -0.00000

 Dipole moment (field-independent basis, Debye):
    X=             -1.8586    Y=             -4.4055    Z=              0.0000  Tot=              4.7815
 Quadrupole moment (field-independent basis, Debye-Ang):
   XX=             -9.4006   YY=             -7.3199   ZZ=            -15.0011
   XY=             -5.5321   XZ=              0.0000   YZ=             -0.0000

 0687\MP4DQ=-33.8978181\MP4SDQ=-33.8998861\CCSD=-33.9009112\CCSD(T)=-33
 Normal termination of Gaussian 16 at Sun Dec 10 06:59:22 2023.
