 Gaussian 16, Revision A.03,
 Gaussian 16:  ES64L-G16RevA.03 25-Dec-2016

 ------------------
 #p CCSD(T)/CEP-31G
 ------------------

 ------------
 H2O_H2O_3582
 ------------
 Symbolic Z-matrix:
 Charge =  0 Multiplicity = 1

                         Standard orientation:
 ---------------------------------------------------------------------
 Center     Atomic      Atomic             Coordinates (Angstroms)
 Number     Number       Type             X           Y           Z
 ---------------------------------------------------------------------
      1          8           0        0.073531    2.531415    0.000000
      2          1           0        0.072858    1.548813    0.000000
      3          1           0       -0.855743    2.850718    0.000000
      4          8           0        0.073531   -2.364465   -0.000000
      5          1           0        0.507521   -3.246031   -0.000000
      6          1           0       -0.901134   -2.489098   -0.000000
 ---------------------------------------------------------------------

 SCF Done:  E(RHF) =  -33.6534035365     A.U. after   11 cycles
 E2 =    -0.2283255370D+00 EUMP2 =    -0.33881729073539D+02
 CCSD(T)
 CCSD(T)= -0.33898684214D+02

 The electronic state is 1-A'.
 Alpha  occ. eigenvalues --   -1.36514  -1.34544  -0.72165  -0.70157  -0.56346
 Alpha  occ. eigenvalues --   -0.54316  -0.51107  -0.49135
 Alpha virt. eigenvalues --    0.19104   0.21529   0.29555   0.31718   0.79461
 Alpha virt. eigenvalues --    0.81377   0.82284   0.84408   0.85427   0.87646
 Alpha virt. eigenvalues --    1.16443   1.18519   1.20842   1.23582   2.56435

 Mulliken charges:
               1
     1  O   -0.747470
     2  H    0.381709
     3  H    0.365580
     4  O   -0.747226
     5  H    0.376960
     6  H    0.370447
 Sum of Mulliken charges =   0.00000

 Dipole moment (field-independent basis, Debye):
    X=             -3.3686    Y=             -3.9517    Z=             -0.0000  Tot=              5.1926
 Quadrupole moment (field-independent basis, Debye-Ang):
   XX=            -10.1692   YY=             -6.9025   ZZ=            -14.9916
   XY=             -4.4134   XZ=             -0.0000   YZ=              0.0000

 99\MP4DQ=-33.893046\MP4SDQ=-33.8950739\CCSD=-33.8961228\CCSD(T)=-33.89
 Normal termination of Gaussian 16 at Sun Dec 10 06:37:27 2023.
