 Gaussian 16, Revision A.03,
 Gaussian 16:  ES64L-G16RevA.03 25-Dec-2016

 ------------------
 #p CCSD(T)/CEP-31G
 ------------------

 -----------
 H2O_H2O_195
 -----------
 Symbolic Z-matrix:
 Charge =  0 Multiplicity = 1

                         Standard orientation:
 ---------------------------------------------------------------------
 Center     Atomic      Atomic             Coordinates (Angstroms)
 Number     Number       Type             X           Y           Z
 ---------------------------------------------------------------------
      1          8           0        0.026892    1.178583   -0.000000
      2          1           0        0.021740    0.195995   -0.000000
      3          1           0       -0.900918    1.502118   -0.000000
      4          8           0        0.026892   -1.005503    0.000000
      5          1           0        0.974666   -1.264792    0.000000
      6          1           0       -0.525754   -1.817961    0.000000
 ---------------------------------------------------------------------

 SCF Done:  E(RHF) =  -33.6209690734     A.U. after   11 cycles
 E2 =    -0.2275612016D+00 EUMP2 =    -0.33848530274960D+02
 CCSD(T)
 CCSD(T)= -0.33863370498D+02

 The electronic state is 1-A'.
 Alpha  occ. eigenvalues --   -1.44276  -1.27437  -0.80287  -0.74632  -0.57913
 Alpha  occ. eigenvalues --   -0.56187  -0.44978  -0.41621
 Alpha virt. eigenvalues --    0.16756   0.25339   0.29816   0.60933   0.73418
 Alpha virt. eigenvalues --    0.74083   0.88105   0.91223   0.92906   1.01965
 Alpha virt. eigenvalues --    1.14050   1.19618   1.29288   1.37351   2.89314

 Mulliken charges:
               1
     1  O   -0.754544
     2  H    0.332308
     3  H    0.324149
     4  O   -0.811362
     5  H    0.437127
     6  H    0.472322
 Sum of Mulliken charges =   0.00000

 Dipole moment (field-independent basis, Debye):
    X=             -1.1467    Y=             -5.4037    Z=              0.0000  Tot=              5.5240
 Quadrupole moment (field-independent basis, Debye-Ang):
   XX=             -9.3855   YY=            -10.3607   ZZ=            -14.9582
   XY=             -3.6088   XZ=              0.0000   YZ=             -0.0000

 504\MP4DQ=-33.8572716\MP4SDQ=-33.85955\CCSD=-33.8602126\CCSD(T)=-33.86
 Normal termination of Gaussian 16 at Sun Dec 10 06:21:53 2023.
