 Gaussian 16, Revision A.03,
 Gaussian 16:  ES64L-G16RevA.03 25-Dec-2016

 ------------------
 #p CCSD(T)/CEP-31G
 ------------------

 -----------
 H2O_H2O_589
 -----------
 Symbolic Z-matrix:
 Charge =  0 Multiplicity = 1

                         Standard orientation:
 ---------------------------------------------------------------------
 Center     Atomic      Atomic             Coordinates (Angstroms)
 Number     Number       Type             X           Y           Z
 ---------------------------------------------------------------------
      1          8           0        0.048706    1.342022   -0.000000
      2          1           0        0.045698    0.359425   -0.000000
      3          1           0       -0.879807    1.663533   -0.000000
      4          8           0        0.048706   -1.161767    0.000000
      5          1           0        0.826422   -1.762320    0.000000
      6          1           0       -0.771609   -1.702682    0.000000
 ---------------------------------------------------------------------

 SCF Done:  E(RHF) =  -33.6568197536     A.U. after   11 cycles
 E2 =    -0.2290010868D+00 EUMP2 =    -0.33885820840391D+02
 CCSD(T)
 CCSD(T)= -0.33901575142D+02

 The electronic state is 1-A'.
 Alpha  occ. eigenvalues --   -1.40681  -1.29559  -0.75914  -0.70836  -0.58542
 Alpha  occ. eigenvalues --   -0.55312  -0.48496  -0.44050
 Alpha virt. eigenvalues --    0.17130   0.26980   0.28039   0.53360   0.74156
 Alpha virt. eigenvalues --    0.74513   0.85340   0.88875   0.96479   1.00562
 Alpha virt. eigenvalues --    1.14463   1.18006   1.24165   1.36839   2.66151

 Mulliken charges:
               1
     1  O   -0.776570
     2  H    0.427260
     3  H    0.333091
     4  O   -0.832442
     5  H    0.432027
     6  H    0.416634
 Sum of Mulliken charges =  -0.00000

 Dipole moment (field-independent basis, Debye):
    X=             -2.0729    Y=             -5.0315    Z=              0.0000  Tot=              5.4417
 Quadrupole moment (field-independent basis, Debye-Ang):
   XX=             -9.3851   YY=             -9.5776   ZZ=            -15.0131
   XY=             -3.8335   XZ=              0.0000   YZ=             -0.0000

 771\MP4DQ=-33.8956151\MP4SDQ=-33.8977898\CCSD=-33.8986021\CCSD(T)=-33.
 Normal termination of Gaussian 16 at Sun Dec 10 06:29:36 2023.
