 Gaussian 16, Revision A.03,
 Gaussian 16:  ES64L-G16RevA.03 25-Dec-2016

 ------------------
 #p CCSD(T)/CEP-31G
 ------------------

 -----------
 H2O_H2O_993
 -----------
 Symbolic Z-matrix:
 Charge =  0 Multiplicity = 1

                         Standard orientation:
 ---------------------------------------------------------------------
 Center     Atomic      Atomic             Coordinates (Angstroms)
 Number     Number       Type             X           Y           Z
 ---------------------------------------------------------------------
      1          8           0        0.033911    1.500040   -0.000000
      2          1           0        0.030353    0.517445   -0.000000
      3          1           0       -0.894422    1.822070   -0.000000
      4          8           0        0.033911   -1.322610    0.000000
      5          1           0        0.940349   -1.701919    0.000000
      6          1           0       -0.618864   -2.057042    0.000000
 ---------------------------------------------------------------------

 SCF Done:  E(RHF) =  -33.6632176331     A.U. after   11 cycles
 E2 =    -0.2289613839D+00 EUMP2 =    -0.33892179016954D+02
 CCSD(T)
 CCSD(T)= -0.33908599504D+02

 The electronic state is 1-A'.
 Alpha  occ. eigenvalues --   -1.38993  -1.31085  -0.74606  -0.68235  -0.59345
 Alpha  occ. eigenvalues --   -0.53730  -0.50623  -0.45740
 Alpha virt. eigenvalues --    0.17638   0.26671   0.27922   0.45687   0.75450
 Alpha virt. eigenvalues --    0.77204   0.86049   0.86582   0.93962   1.02062
 Alpha virt. eigenvalues --    1.15546   1.18394   1.23035   1.36011   2.53346

 Mulliken charges:
               1
     1  O   -0.786898
     2  H    0.432498
     3  H    0.350731
     4  O   -0.812396
     5  H    0.404134
     6  H    0.411930
 Sum of Mulliken charges =  -0.00000

 Dipole moment (field-independent basis, Debye):
    X=             -1.4992    Y=             -4.6783    Z=              0.0000  Tot=              4.9126
 Quadrupole moment (field-independent basis, Debye-Ang):
   XX=             -9.3816   YY=             -8.8123   ZZ=            -15.0186
   XY=             -4.5344   XZ=             -0.0000   YZ=             -0.0000

 01\MP4DQ=-33.9027511\MP4SDQ=-33.9048675\CCSD=-33.9058032\CCSD(T)=-33.9
 Normal termination of Gaussian 16 at Sun Dec 10 06:37:11 2023.
