 Gaussian 16, Revision A.03,
 Gaussian 16:  ES64L-G16RevA.03 25-Dec-2016

 ------------------
 #p CCSD(T)/CEP-31G
 ------------------

 ------------
 H2O_H2O_2844
 ------------
 Symbolic Z-matrix:
 Charge =  0 Multiplicity = 1

                         Standard orientation:
 ---------------------------------------------------------------------
 Center     Atomic      Atomic             Coordinates (Angstroms)
 Number     Number       Type             X           Y           Z
 ---------------------------------------------------------------------
      1          8           0        0.030200    2.236963    0.000000
      2          1           0        0.027721    1.254364    0.000000
      3          1           0       -0.898486    2.557973    0.000000
      4          8           0        0.030200   -2.061363   -0.000000
      5          1           0        0.959856   -2.379556   -0.000000
      6          1           0       -0.572290   -2.837578   -0.000000
 ---------------------------------------------------------------------

 SCF Done:  E(RHF) =  -33.6558750581     A.U. after   11 cycles
 E2 =    -0.2283330890D+00 EUMP2 =    -0.33884208147118D+02
 CCSD(T)
 CCSD(T)= -0.33901106007D+02

 The electronic state is 1-A'.
 Alpha  occ. eigenvalues --   -1.36783  -1.33943  -0.72431  -0.69577  -0.56760
 Alpha  occ. eigenvalues --   -0.53789  -0.51413  -0.48576
 Alpha virt. eigenvalues --    0.18668   0.22491   0.29435   0.32600   0.79148
 Alpha virt. eigenvalues --    0.81907   0.82902   0.84518   0.85660   0.87982
 Alpha virt. eigenvalues --    1.16268   1.19458   1.20683   1.26773   2.55663

 Mulliken charges:
               1
     1  O   -0.757417
     2  H    0.389617
     3  H    0.366740
     4  O   -0.754344
     5  H    0.378390
     6  H    0.377014
 Sum of Mulliken charges =   0.00000

 Dipole moment (field-independent basis, Debye):
    X=             -1.3731    Y=             -4.2081    Z=             -0.0000  Tot=              4.4265
 Quadrupole moment (field-independent basis, Debye-Ang):
   XX=             -9.4672   YY=             -6.8643   ZZ=            -14.9967
   XY=             -6.8768   XZ=             -0.0000   YZ=             -0.0000

 038\MP4DQ=-33.8954594\MP4SDQ=-33.8975007\CCSD=-33.8985369\CCSD(T)=-33.
 Normal termination of Gaussian 16 at Sun Dec 10 06:24:11 2023.
