 Gaussian 16, Revision A.03,
 Gaussian 16:  ES64L-G16RevA.03 25-Dec-2016

 ------------------
 #p CCSD(T)/CEP-31G
 ------------------

 ------------
 H2O_H2O_2979
 ------------
 Symbolic Z-matrix:
 Charge =  0 Multiplicity = 1

                         Standard orientation:
 ---------------------------------------------------------------------
 Center     Atomic      Atomic             Coordinates (Angstroms)
 Number     Number       Type             X           Y           Z
 ---------------------------------------------------------------------
      1          8           0        0.082804   -2.285334    0.000000
      2          1           0        0.082414   -1.302733    0.000000
      3          1           0       -0.846562   -2.604370    0.000000
      4          8           0        0.082804    2.130818    0.000000
      5          1           0        0.336744    3.080039    0.000000
      6          1           0       -0.897468    2.063191    0.000000
 ---------------------------------------------------------------------

 SCF Done:  E(RHF) =  -33.6534353709     A.U. after   11 cycles
 E2 =    -0.2283998625D+00 EUMP2 =    -0.33881835233388D+02
 CCSD(T)
 CCSD(T)= -0.33898798432D+02

 The electronic state is 1-A'.
 Alpha  occ. eigenvalues --   -1.36778  -1.34510  -0.72445  -0.70106  -0.56615
 Alpha  occ. eigenvalues --   -0.54268  -0.51367  -0.49095
 Alpha virt. eigenvalues --    0.18204   0.22033   0.29300   0.31872   0.79209
 Alpha virt. eigenvalues --    0.81428   0.82525   0.84442   0.85413   0.87863
 Alpha virt. eigenvalues --    1.16034   1.18858   1.20609   1.26021   2.56197

 Mulliken charges:
               1
     1  O   -0.747858
     2  H    0.383611
     3  H    0.363651
     4  O   -0.747653
     5  H    0.379310
     6  H    0.368940
 Sum of Mulliken charges =   0.00000

 Dipole moment (field-independent basis, Debye):
    X=             -3.7840    Y=              3.6954    Z=              0.0000  Tot=              5.2891
 Quadrupole moment (field-independent basis, Debye-Ang):
   XX=            -10.6477   YY=             -8.0793   ZZ=            -14.9910
   XY=              3.3980   XZ=              0.0000   YZ=              0.0000

 3977\MP4DQ=-33.8931429\MP4SDQ=-33.8951833\CCSD=-33.8962263\CCSD(T)=-33
 Normal termination of Gaussian 16 at Sun Dec 10 06:26:37 2023.
