 Gaussian 16, Revision A.03,
 Gaussian 16:  ES64L-G16RevA.03 25-Dec-2016

 ------------------
 #p CCSD(T)/CEP-31G
 ------------------

 ------------
 H2O_H2O_1571
 ------------
 Symbolic Z-matrix:
 Charge =  0 Multiplicity = 1

                         Standard orientation:
 ---------------------------------------------------------------------
 Center     Atomic      Atomic             Coordinates (Angstroms)
 Number     Number       Type             X           Y           Z
 ---------------------------------------------------------------------
      1          8           0       -0.023295    1.725543    0.000000
      2          1           0       -0.019687    0.742948    0.000000
      3          1           0        0.905021    2.047620    0.000000
      4          8           0       -0.023295   -1.555203    0.000000
      5          1           0       -0.986306   -1.750436    0.000000
      6          1           0        0.473699   -2.402848    0.000000
 ---------------------------------------------------------------------

 SCF Done:  E(RHF) =  -33.6608262679     A.U. after   11 cycles
 E2 =    -0.2287006850D+00 EUMP2 =    -0.33889526952921D+02
 CCSD(T)
 CCSD(T)= -0.33906348054D+02

 The electronic state is 1-A'.
 Alpha  occ. eigenvalues --   -1.37832  -1.32639  -0.73528  -0.68447  -0.58281
 Alpha  occ. eigenvalues --   -0.52518  -0.52465  -0.47325
 Alpha virt. eigenvalues --    0.17869   0.25013   0.28692   0.38158   0.77308
 Alpha virt. eigenvalues --    0.80781   0.83946   0.86444   0.89240   0.99888
 Alpha virt. eigenvalues --    1.15472   1.18869   1.21450   1.35831   2.50644

 Mulliken charges:
               1
     1  O   -0.779620
     2  H    0.414460
     3  H    0.362421
     4  O   -0.779906
     5  H    0.387814
     6  H    0.394832
 Sum of Mulliken charges =  -0.00000

 Dipole moment (field-independent basis, Debye):
    X=              1.0443    Y=             -4.2878    Z=              0.0000  Tot=              4.4131
 Quadrupole moment (field-independent basis, Debye-Ang):
   XX=             -9.5700   YY=             -8.1928   ZZ=            -15.0072
   XY=              5.6533   XZ=              0.0000   YZ=              0.0000

 84\MP4DQ=-33.900579\MP4SDQ=-33.902677\CCSD=-33.9036857\CCSD(T)=-33.906
 Normal termination of Gaussian 16 at Sun Dec 10 06:48:30 2023.
