 Gaussian 16, Revision A.03,
 Gaussian 16:  ES64L-G16RevA.03 25-Dec-2016

 ------------------
 #p CCSD(T)/CEP-31G
 ------------------

 ------------
 H2O_H2O_1617
 ------------
 Symbolic Z-matrix:
 Charge =  0 Multiplicity = 1

                         Standard orientation:
 ---------------------------------------------------------------------
 Center     Atomic      Atomic             Coordinates (Angstroms)
 Number     Number       Type             X           Y           Z
 ---------------------------------------------------------------------
      1          8           0        0.037515    1.750137   -0.000000
      2          1           0        0.034678    0.767539   -0.000000
      3          1           0       -0.891054    2.071485   -0.000000
      4          8           0        0.037515   -1.571230    0.000000
      5          1           0        0.917526   -2.008366    0.000000
      6          1           0       -0.661390   -2.261909    0.000000
 ---------------------------------------------------------------------

 SCF Done:  E(RHF) =  -33.6608769922     A.U. after   11 cycles
 E2 =    -0.2287551784D+00 EUMP2 =    -0.33889632170608D+02
 CCSD(T)
 CCSD(T)= -0.33906426612D+02

 The electronic state is 1-A'.
 Alpha  occ. eigenvalues --   -1.37782  -1.32506  -0.73427  -0.68305  -0.58239
 Alpha  occ. eigenvalues --   -0.52479  -0.52326  -0.47182
 Alpha virt. eigenvalues --    0.18002   0.24931   0.28734   0.38040   0.77454
 Alpha virt. eigenvalues --    0.81051   0.83959   0.86334   0.90063   0.96095
 Alpha virt. eigenvalues --    1.15374   1.19553   1.21193   1.34020   2.50023

 Mulliken charges:
               1
     1  O   -0.779212
     2  H    0.418360
     3  H    0.358867
     4  O   -0.777007
     5  H    0.390277
     6  H    0.388714
 Sum of Mulliken charges =  -0.00000

 Dipole moment (field-independent basis, Debye):
    X=             -1.6791    Y=             -4.4851    Z=              0.0000  Tot=              4.7891
 Quadrupole moment (field-independent basis, Debye-Ang):
   XX=             -9.3897   YY=             -7.9368   ZZ=            -15.0076
   XY=             -5.1446   XZ=              0.0000   YZ=             -0.0000

 42\MP4DQ=-33.9006733\MP4SDQ=-33.9027584\CCSD=-33.9037672\CCSD(T)=-33.9
 Normal termination of Gaussian 16 at Sun Dec 10 06:49:25 2023.
