 Gaussian 16, Revision A.03,
 Gaussian 16:  ES64L-G16RevA.03 25-Dec-2016

 ------------------
 #p CCSD(T)/CEP-31G
 ------------------

 ------------
 H2O_H2O_3239
 ------------
 Symbolic Z-matrix:
 Charge =  0 Multiplicity = 1

                         Standard orientation:
 ---------------------------------------------------------------------
 Center     Atomic      Atomic             Coordinates (Angstroms)
 Number     Number       Type             X           Y           Z
 ---------------------------------------------------------------------
      1          8           0        0.048580    2.399112    0.000000
      2          1           0        0.046948    1.416512    0.000000
      3          1           0       -0.880383    2.719321    0.000000
      4          8           0        0.048580   -2.218721   -0.000000
      5          1           0        0.827137   -2.818184   -0.000000
      6          1           0       -0.770977   -2.760785   -0.000000
 ---------------------------------------------------------------------

 SCF Done:  E(RHF) =  -33.6547834221     A.U. after   11 cycles
 E2 =    -0.2283086107D+00 EUMP2 =    -0.33883092032759D+02
 CCSD(T)
 CCSD(T)= -0.33900009406D+02

 The electronic state is 1-A'.
 Alpha  occ. eigenvalues --   -1.36615  -1.34142  -0.72260  -0.69763  -0.56526
 Alpha  occ. eigenvalues --   -0.53957  -0.51230  -0.48757
 Alpha virt. eigenvalues --    0.19033   0.22041   0.29567   0.32193   0.79338
 Alpha virt. eigenvalues --    0.81730   0.82313   0.84739   0.85335   0.87909
 Alpha virt. eigenvalues --    1.16411   1.19061   1.20839   1.24590   2.56278

 Mulliken charges:
               1
     1  O   -0.752824
     2  H    0.386420
     3  H    0.365884
     4  O   -0.751068
     5  H    0.377708
     6  H    0.373880
 Sum of Mulliken charges =  -0.00000

 Dipole moment (field-independent basis, Debye):
    X=             -2.2182    Y=             -4.2907    Z=             -0.0000  Tot=              4.8302
 Quadrupole moment (field-independent basis, Debye-Ang):
   XX=             -9.4600   YY=             -6.2498   ZZ=            -14.9946
   XY=             -6.1008   XZ=             -0.0000   YZ=              0.0000

 207\MP4DQ=-33.8943736\MP4SDQ=-33.8964049\CCSD=-33.8974477\CCSD(T)=-33.
 Normal termination of Gaussian 16 at Sun Dec 10 06:31:22 2023.
