 Gaussian 16, Revision A.03,
 Gaussian 16:  ES64L-G16RevA.03 25-Dec-2016

 ------------------
 #p CCSD(T)/CEP-31G
 ------------------

 ------------
 H2O_H2O_2859
 ------------
 Symbolic Z-matrix:
 Charge =  0 Multiplicity = 1

                         Standard orientation:
 ---------------------------------------------------------------------
 Center     Atomic      Atomic             Coordinates (Angstroms)
 Number     Number       Type             X           Y           Z
 ---------------------------------------------------------------------
      1          8           0        0.066764    2.245569    0.000000
      2          1           0        0.065735    1.262969    0.000000
      3          1           0       -0.862394    2.565210    0.000000
      4          8           0        0.066764   -2.072472   -0.000000
      5          1           0        0.611813   -2.890047   -0.000000
      6          1           0       -0.883385   -2.322914   -0.000000
 ---------------------------------------------------------------------

 SCF Done:  E(RHF) =  -33.6548034095     A.U. after   11 cycles
 E2 =    -0.2283804277D+00 EUMP2 =    -0.33883183837199D+02
 CCSD(T)
 CCSD(T)= -0.33900109731D+02

 The electronic state is 1-A'.
 Alpha  occ. eigenvalues --   -1.36813  -1.34073  -0.72469  -0.69677  -0.56729
 Alpha  occ. eigenvalues --   -0.53871  -0.51425  -0.48680
 Alpha virt. eigenvalues --    0.18544   0.22335   0.29321   0.32440   0.79144
 Alpha virt. eigenvalues --    0.81818   0.82869   0.84861   0.85193   0.88120
 Alpha virt. eigenvalues --    1.16184   1.19266   1.20606   1.26661   2.55717

 Mulliken charges:
               1
     1  O   -0.753216
     2  H    0.388768
     3  H    0.363475
     4  O   -0.751318
     5  H    0.379953
     6  H    0.372337
 Sum of Mulliken charges =  -0.00000

 Dipole moment (field-independent basis, Debye):
    X=             -3.0440    Y=             -4.1521    Z=             -0.0000  Tot=              5.1484
 Quadrupole moment (field-independent basis, Debye-Ang):
   XX=             -9.8968   YY=             -7.0063   ZZ=            -14.9943
   XY=             -4.6400   XZ=             -0.0000   YZ=              0.0000

 06\MP4DQ=-33.8944568\MP4SDQ=-33.8964999\CCSD=-33.8975381\CCSD(T)=-33.9
 Normal termination of Gaussian 16 at Sun Dec 10 06:24:27 2023.
