 Gaussian 16, Revision A.03,
 Gaussian 16:  ES64L-G16RevA.03 25-Dec-2016

 ------------------
 #p CCSD(T)/CEP-31G
 ------------------

 ------------
 H2O_H2O_2557
 ------------
 Symbolic Z-matrix:
 Charge =  0 Multiplicity = 1

                         Standard orientation:
 ---------------------------------------------------------------------
 Center     Atomic      Atomic             Coordinates (Angstroms)
 Number     Number       Type             X           Y           Z
 ---------------------------------------------------------------------
      1          8           0        0.073543    2.122556    0.000000
      2          1           0        0.072734    1.139955    0.000000
      3          1           0       -0.855688    2.441986    0.000000
      4          8           0        0.073543   -1.955626    0.000000
      5          1           0        0.507412   -2.837252    0.000000
      6          1           0       -0.901140   -2.080125    0.000000
 ---------------------------------------------------------------------

 SCF Done:  E(RHF) =  -33.6549392679     A.U. after   11 cycles
 E2 =    -0.2284620824D+00 EUMP2 =    -0.33883401350248D+02
 CCSD(T)
 CCSD(T)= -0.33900340020D+02

 The electronic state is 1-A'.
 Alpha  occ. eigenvalues --   -1.36998  -1.34008  -0.72667  -0.69602  -0.56932
 Alpha  occ. eigenvalues --   -0.53794  -0.51609  -0.48612
 Alpha virt. eigenvalues --    0.18080   0.22700   0.29150   0.32791   0.78933
 Alpha virt. eigenvalues --    0.81927   0.83297   0.84916   0.86032   0.88271
 Alpha virt. eigenvalues --    1.15932   1.19453   1.20465   1.29312   2.55011

 Mulliken charges:
               1
     1  O   -0.754294
     2  H    0.391096
     3  H    0.361795
     4  O   -0.752160
     5  H    0.381979
     6  H    0.371584
 Sum of Mulliken charges =  -0.00000

 Dipole moment (field-independent basis, Debye):
    X=             -3.3469    Y=             -4.0365    Z=              0.0000  Tot=              5.2436
 Quadrupole moment (field-independent basis, Debye-Ang):
   XX=            -10.1752   YY=             -7.5643   ZZ=            -14.9942
   XY=             -4.0385   XZ=              0.0000   YZ=              0.0000

 9172\MP4DQ=-33.894665\MP4SDQ=-33.8967218\CCSD=-33.897756\CCSD(T)=-33.9
 Normal termination of Gaussian 16 at Sun Dec 10 06:19:02 2023.
