 Gaussian 16, Revision A.03,
 Gaussian 16:  ES64L-G16RevA.03 25-Dec-2016

 ------------------
 #p CCSD(T)/CEP-31G
 ------------------

 ------------
 H2O_H2O_1739
 ------------
 Symbolic Z-matrix:
 Charge =  0 Multiplicity = 1

                         Standard orientation:
 ---------------------------------------------------------------------
 Center     Atomic      Atomic             Coordinates (Angstroms)
 Number     Number       Type             X           Y           Z
 ---------------------------------------------------------------------
      1          8           0        0.048632    1.800769    0.000000
      2          1           0        0.046430    0.818170    0.000000
      3          1           0       -0.880145    2.121518    0.000000
      4          8           0        0.048632   -1.620434   -0.000000
      5          1           0        0.826840   -2.220349   -0.000000
      6          1           0       -0.771239   -2.162023   -0.000000
 ---------------------------------------------------------------------

 SCF Done:  E(RHF) =  -33.6598268343     A.U. after   11 cycles
 E2 =    -0.2287258957D+00 EUMP2 =    -0.33888552730050D+02
 CCSD(T)
 CCSD(T)= -0.33905381258D+02

 The electronic state is 1-A'.
 Alpha  occ. eigenvalues --   -1.37650  -1.32709  -0.73295  -0.68431  -0.58012
 Alpha  occ. eigenvalues --   -0.52528  -0.52331  -0.47369
 Alpha virt. eigenvalues --    0.18036   0.24588   0.28802   0.37020   0.77755
 Alpha virt. eigenvalues --    0.81799   0.83604   0.86046   0.90044   0.93548
 Alpha virt. eigenvalues --    1.15453   1.19969   1.20734   1.33513   2.50321

 Mulliken charges:
               1
     1  O   -0.774957
     2  H    0.415053
     3  H    0.357893
     4  O   -0.771194
     5  H    0.390516
     6  H    0.382689
 Sum of Mulliken charges =  -0.00000

 Dipole moment (field-independent basis, Debye):
    X=             -2.1797    Y=             -4.4931    Z=             -0.0000  Tot=              4.9939
 Quadrupole moment (field-independent basis, Debye-Ang):
   XX=             -9.4461   YY=             -7.7574   ZZ=            -15.0051
   XY=             -4.8550   XZ=              0.0000   YZ=              0.0000

 073\MP4DQ=-33.8996409\MP4SDQ=-33.9017224\CCSD=-33.9027374\CCSD(T)=-33.
 Normal termination of Gaussian 16 at Sun Dec 10 06:51:43 2023.
