 Gaussian 16, Revision A.03,
 Gaussian 16:  ES64L-G16RevA.03 25-Dec-2016

 ------------------
 #p CCSD(T)/CEP-31G
 ------------------

 ------------
 H2O_H2O_2165
 ------------
 Symbolic Z-matrix:
 Charge =  0 Multiplicity = 1

                         Standard orientation:
 ---------------------------------------------------------------------
 Center     Atomic      Atomic             Coordinates (Angstroms)
 Number     Number       Type             X           Y           Z
 ---------------------------------------------------------------------
      1          8           0        0.044892    1.970309    0.000000
      2          1           0        0.042721    0.987710    0.000000
      3          1           0       -0.883895    2.291028    0.000000
      4          8           0        0.044892   -1.789942   -0.000000
      5          1           0        0.860688   -2.337650   -0.000000
      6          1           0       -0.737783   -2.384018   -0.000000
 ---------------------------------------------------------------------

 SCF Done:  E(RHF) =  -33.6579177390     A.U. after   11 cycles
 E2 =    -0.2285198866D+00 EUMP2 =    -0.33886437625587D+02
 CCSD(T)
 CCSD(T)= -0.33903313053D+02

 The electronic state is 1-A'.
 Alpha  occ. eigenvalues --   -1.37237  -1.33262  -0.72885  -0.68900  -0.57395
 Alpha  occ. eigenvalues --   -0.53109  -0.51893  -0.47912
 Alpha virt. eigenvalues --    0.18254   0.23655   0.29113   0.34467   0.78526
 Alpha virt. eigenvalues --    0.82704   0.83399   0.85970   0.87435   0.89056
 Alpha virt. eigenvalues --    1.15866   1.20120   1.20408   1.31461   2.52595

 Mulliken charges:
               1
     1  O   -0.766773
     2  H    0.402685
     3  H    0.361865
     4  O   -0.760892
     5  H    0.384091
     6  H    0.379024
 Sum of Mulliken charges =  -0.00000

 Dipole moment (field-independent basis, Debye):
    X=             -2.0274    Y=             -4.4140    Z=             -0.0000  Tot=              4.8574
 Quadrupole moment (field-independent basis, Debye-Ang):
   XX=             -9.4180   YY=             -7.2776   ZZ=            -15.0007
   XY=             -5.3838   XZ=             -0.0000   YZ=              0.0000

 8696\MP4DQ=-33.897619\MP4SDQ=-33.8996862\CCSD=-33.9007119\CCSD(T)=-33.
 Normal termination of Gaussian 16 at Sun Dec 10 06:59:51 2023.
