 Gaussian 16, Revision A.03,
 Gaussian 16:  ES64L-G16RevA.03 25-Dec-2016

 ------------------
 #p CCSD(T)/CEP-31G
 ------------------

 ------------
 H2O_H2O_3173
 ------------
 Symbolic Z-matrix:
 Charge =  0 Multiplicity = 1

                         Standard orientation:
 ---------------------------------------------------------------------
 Center     Atomic      Atomic             Coordinates (Angstroms)
 Number     Number       Type             X           Y           Z
 ---------------------------------------------------------------------
      1          8           0       -0.016625    2.359968    0.000000
      2          1           0       -0.013782    1.377370    0.000000
      3          1           0        0.911942    2.681322    0.000000
      4          8           0       -0.016625   -2.196577    0.000000
      5          1           0       -0.996933   -2.263679    0.000000
      6          1           0        0.364772   -3.102139    0.000000
 ---------------------------------------------------------------------

 SCF Done:  E(RHF) =  -33.6549808576     A.U. after   11 cycles
 E2 =    -0.2282884970D+00 EUMP2 =    -0.33883269354671D+02
 CCSD(T)
 CCSD(T)= -0.33900186498D+02

 The electronic state is 1-A'.
 Alpha  occ. eigenvalues --   -1.36623  -1.34335  -0.72273  -0.69978  -0.56538
 Alpha  occ. eigenvalues --   -0.54170  -0.51239  -0.48959
 Alpha virt. eigenvalues --    0.18781   0.22014   0.29529   0.32060   0.79325
 Alpha virt. eigenvalues --    0.81532   0.82321   0.84354   0.85544   0.87678
 Alpha virt. eigenvalues --    1.16358   1.18981   1.20787   1.25093   2.56356

 Mulliken charges:
               1
     1  O   -0.753697
     2  H    0.383995
     3  H    0.369216
     4  O   -0.752321
     5  H    0.375924
     6  H    0.376884
 Sum of Mulliken charges =   0.00000

 Dipole moment (field-independent basis, Debye):
    X=              0.7578    Y=             -3.8839    Z=              0.0000  Tot=              3.9572
 Quadrupole moment (field-independent basis, Debye-Ang):
   XX=             -9.7678   YY=             -7.3673   ZZ=            -14.9947
   XY=              8.2617   XZ=              0.0000   YZ=              0.0000

 7958\MP4DQ=-33.8945492\MP4SDQ=-33.8965809\CCSD=-33.8976234\CCSD(T)=-33
 Normal termination of Gaussian 16 at Sun Dec 10 06:30:10 2023.
