 Gaussian 16, Revision A.03,
 Gaussian 16:  ES64L-G16RevA.03 25-Dec-2016

 ------------------
 #p CCSD(T)/CEP-31G
 ------------------

 ------------
 H2O_H2O_3301
 ------------
 Symbolic Z-matrix:
 Charge =  0 Multiplicity = 1

                         Standard orientation:
 ---------------------------------------------------------------------
 Center     Atomic      Atomic             Coordinates (Angstroms)
 Number     Number       Type             X           Y           Z
 ---------------------------------------------------------------------
      1          8           0        0.090684   -2.406383    0.000000
      2          1           0        0.090602   -1.423782    0.000000
      3          1           0       -0.838782   -2.725128    0.000000
      4          8           0        0.090684    2.267675    0.000000
      5          1           0        0.154867    3.248178    0.000000
      6          1           0       -0.857639    2.010402    0.000000
 ---------------------------------------------------------------------

 SCF Done:  E(RHF) =  -33.6524285927     A.U. after   11 cycles
 E2 =    -0.2283882022D+00 EUMP2 =    -0.33880816794880D+02
 CCSD(T)
 CCSD(T)= -0.33897804458D+02

 The electronic state is 1-A'.
 Alpha  occ. eigenvalues --   -1.36652  -1.34900  -0.72318  -0.70500  -0.56435
 Alpha  occ. eigenvalues --   -0.54635  -0.51228  -0.49471
 Alpha virt. eigenvalues --    0.18243   0.21617   0.29408   0.31345   0.79352
 Alpha virt. eigenvalues --    0.81065   0.82327   0.84048   0.85381   0.87514
 Alpha virt. eigenvalues --    1.16005   1.18374   1.20733   1.24146   2.55814

 Mulliken charges:
               1
     1  O   -0.743781
     2  H    0.378596
     3  H    0.364964
     4  O   -0.744382
     5  H    0.377674
     6  H    0.366929
 Sum of Mulliken charges =   0.00000

 Dipole moment (field-independent basis, Debye):
    X=             -4.1543    Y=              3.2964    Z=              0.0000  Tot=              5.3033
 Quadrupole moment (field-independent basis, Debye-Ang):
   XX=            -11.1357   YY=             -9.1382   ZZ=            -14.9888
   XY=              2.5891   XZ=              0.0000   YZ=              0.0000

 4122\MP4DQ=-33.8921537\MP4SDQ=-33.8941871\CCSD=-33.8952362\CCSD(T)=-33
 Normal termination of Gaussian 16 at Sun Dec 10 06:32:29 2023.
