 Gaussian 16, Revision A.03,
 Gaussian 16:  ES64L-G16RevA.03 25-Dec-2016

 ------------------
 #p CCSD(T)/CEP-31G
 ------------------

 ------------
 H2O_H2O_2097
 ------------
 Symbolic Z-matrix:
 Charge =  0 Multiplicity = 1

                         Standard orientation:
 ---------------------------------------------------------------------
 Center     Atomic      Atomic             Coordinates (Angstroms)
 Number     Number       Type             X           Y           Z
 ---------------------------------------------------------------------
      1          8           0       -0.019913    1.933181    0.000000
      2          1           0       -0.016560    0.950585    0.000000
      3          1           0        0.908487    2.255017    0.000000
      4          8           0       -0.019913   -1.766102    0.000000
      5          1           0       -0.993665   -1.897680    0.000000
      6          1           0        0.420352   -2.644551    0.000000
 ---------------------------------------------------------------------

 SCF Done:  E(RHF) =  -33.6581365042     A.U. after   11 cycles
 E2 =    -0.2285054099D+00 EUMP2 =    -0.33886641914066D+02
 CCSD(T)
 CCSD(T)= -0.33903533188D+02

 The electronic state is 1-A'.
 Alpha  occ. eigenvalues --   -1.37266  -1.33451  -0.72940  -0.69120  -0.57429
 Alpha  occ. eigenvalues --   -0.53322  -0.51920  -0.48116
 Alpha virt. eigenvalues --    0.17960   0.23769   0.29110   0.34497   0.78429
 Alpha virt. eigenvalues --    0.82576   0.82592   0.85770   0.87894   0.91009
 Alpha virt. eigenvalues --    1.15801   1.19870   1.20598   1.33743   2.53157

 Mulliken charges:
               1
     1  O   -0.768267
     2  H    0.399608
     3  H    0.366349
     4  O   -0.763538
     5  H    0.381680
     6  H    0.384169
 Sum of Mulliken charges =   0.00000

 Dipole moment (field-independent basis, Debye):
    X=              0.8968    Y=             -4.0946    Z=              0.0000  Tot=              4.1916
 Quadrupole moment (field-independent basis, Debye-Ang):
   XX=             -9.6632   YY=             -7.8592   ZZ=            -15.0007
   XY=              6.5448   XZ=              0.0000   YZ=              0.0000

 0762\MP4DQ=-33.8978264\MP4SDQ=-33.8999022\CCSD=-33.9009264\CCSD(T)=-33
 Normal termination of Gaussian 16 at Sun Dec 10 06:58:31 2023.
