 Gaussian 16, Revision A.03,
 Gaussian 16:  ES64L-G16RevA.03 25-Dec-2016

 ------------------
 #p CCSD(T)/CEP-31G
 ------------------

 ------------
 H2O_H2O_4293
 ------------
 Symbolic Z-matrix:
 Charge =  0 Multiplicity = 1

                         Standard orientation:
 ---------------------------------------------------------------------
 Center     Atomic      Atomic             Coordinates (Angstroms)
 Number     Number       Type             X           Y           Z
 ---------------------------------------------------------------------
      1          8           0        0.033756    2.816390    0.000000
      2          1           0        0.031915    1.833790    0.000000
      3          1           0       -0.895138    3.136797    0.000000
      4          8           0        0.033756   -2.638841   -0.000000
      5          1           0        0.940856   -3.016566   -0.000000
      6          1           0       -0.617734   -3.374413   -0.000000
 ---------------------------------------------------------------------

 SCF Done:  E(RHF) =  -33.6535950573     A.U. after   11 cycles
 E2 =    -0.2282880254D+00 EUMP2 =    -0.33881883082763D+02
 CCSD(T)
 CCSD(T)= -0.33898832599D+02

 The electronic state is 1-A'.
 Alpha  occ. eigenvalues --   -1.36292  -1.34613  -0.71932  -0.70246  -0.56131
 Alpha  occ. eigenvalues --   -0.54407  -0.50891  -0.49214
 Alpha virt. eigenvalues --    0.19551   0.21317   0.29825   0.31597   0.79662
 Alpha virt. eigenvalues --    0.81298   0.82478   0.84288   0.85692   0.87393
 Alpha virt. eigenvalues --    1.16687   1.18375   1.21123   1.22910   2.56644

 Mulliken charges:
               1
     1  O   -0.748163
     2  H    0.379488
     3  H    0.368651
     4  O   -0.747491
     5  H    0.374387
     6  H    0.373129
 Sum of Mulliken charges =  -0.00000

 Dipole moment (field-independent basis, Debye):
    X=             -1.5488    Y=             -4.1688    Z=             -0.0000  Tot=              4.4472
 Quadrupole moment (field-independent basis, Debye-Ang):
   XX=             -9.4367   YY=             -5.5264   ZZ=            -14.9923
   XY=             -8.2445   XZ=             -0.0000   YZ=              0.0000

 523\MP4DQ=-33.8932008\MP4SDQ=-33.8952243\CCSD=-33.8962757\CCSD(T)=-33.
 Normal termination of Gaussian 16 at Sun Dec 10 06:50:16 2023.
