 Gaussian 16, Revision A.03,
 Gaussian 16:  ES64L-G16RevA.03 25-Dec-2016

 ------------------
 #p CCSD(T)/CEP-31G
 ------------------

 ------------
 H2O_H2O_3912
 ------------
 Symbolic Z-matrix:
 Charge =  0 Multiplicity = 1

                         Standard orientation:
 ---------------------------------------------------------------------
 Center     Atomic      Atomic             Coordinates (Angstroms)
 Number     Number       Type             X           Y           Z
 ---------------------------------------------------------------------
      1          8           0        0.055974    2.667557    0.000000
      2          1           0        0.054757    1.684956    0.000000
      3          1           0       -0.873123    2.987374    0.000000
      4          8           0        0.055974   -2.488630   -0.000000
      5          1           0        0.749918   -3.184294   -0.000000
      6          1           0       -0.827142   -2.919456   -0.000000
 ---------------------------------------------------------------------

 SCF Done:  E(RHF) =  -33.6536667436     A.U. after   11 cycles
 E2 =    -0.2282978426D+00 EUMP2 =    -0.33881964586141D+02
 CCSD(T)
 CCSD(T)= -0.33898911299D+02

 The electronic state is 1-A'.
 Alpha  occ. eigenvalues --   -1.36396  -1.34487  -0.72039  -0.70110  -0.56241
 Alpha  occ. eigenvalues --   -0.54276  -0.50995  -0.49086
 Alpha virt. eigenvalues --    0.19400   0.21491   0.29722   0.31751   0.79564
 Alpha virt. eigenvalues --    0.81422   0.82346   0.84439   0.85573   0.87573
 Alpha virt. eigenvalues --    1.16586   1.18523   1.21018   1.23184   2.56549

 Mulliken charges:
               1
     1  O   -0.748455
     2  H    0.381469
     3  H    0.366899
     4  O   -0.747772
     5  H    0.375791
     6  H    0.372067
 Sum of Mulliken charges =   0.00000

 Dipole moment (field-independent basis, Debye):
    X=             -2.5658    Y=             -4.2174    Z=             -0.0000  Tot=              4.9366
 Quadrupole moment (field-independent basis, Debye-Ang):
   XX=             -9.5847   YY=             -5.7549   ZZ=            -14.9924
   XY=             -6.0631   XZ=             -0.0000   YZ=              0.0000

 \MP4DQ=-33.8932786\MP4SDQ=-33.8953033\CCSD=-33.8963533\CCSD(T)=-33.898
 Normal termination of Gaussian 16 at Sun Dec 10 06:43:24 2023.
