 Gaussian 16, Revision A.03,
 Gaussian 16:  ES64L-G16RevA.03 25-Dec-2016

 ------------------
 #p CCSD(T)/CEP-31G
 ------------------

 ------------
 H2O_H2O_1531
 ------------
 Symbolic Z-matrix:
 Charge =  0 Multiplicity = 1

                         Standard orientation:
 ---------------------------------------------------------------------
 Center     Atomic      Atomic             Coordinates (Angstroms)
 Number     Number       Type             X           Y           Z
 ---------------------------------------------------------------------
      1          8           0        0.076778    1.711666    0.000000
      2          1           0        0.075935    0.729065    0.000000
      3          1           0       -0.852442    2.031130    0.000000
      4          8           0        0.076778   -1.548495   -0.000000
      5          1           0        0.452025   -2.456622   -0.000000
      6          1           0       -0.903962   -1.608945   -0.000000
 ---------------------------------------------------------------------

 SCF Done:  E(RHF) =  -33.6574197342     A.U. after   11 cycles
 E2 =    -0.2288897811D+00 EUMP2 =    -0.33886309515300D+02
 CCSD(T)
 CCSD(T)= -0.33903239373D+02

 The electronic state is 1-A'.
 Alpha  occ. eigenvalues --   -1.38000  -1.33064  -0.73770  -0.68736  -0.58195
 Alpha  occ. eigenvalues --   -0.52769  -0.52622  -0.47663
 Alpha virt. eigenvalues --    0.17380   0.24692   0.28359   0.37870   0.77146
 Alpha virt. eigenvalues --    0.81062   0.83766   0.85271   0.90272   1.02100
 Alpha virt. eigenvalues --    1.15017   1.18461   1.21213   1.37572   2.50439

 Mulliken charges:
               1
     1  O   -0.766057
     2  H    0.410545
     3  H    0.352672
     4  O   -0.772036
     5  H    0.400730
     6  H    0.374146
 Sum of Mulliken charges =   0.00000

 Dipole moment (field-independent basis, Debye):
    X=             -3.4371    Y=             -4.1344    Z=             -0.0000  Tot=              5.3765
 Quadrupole moment (field-independent basis, Debye-Ang):
   XX=            -10.3410   YY=             -8.4442   ZZ=            -14.9993
   XY=             -3.4939   XZ=             -0.0000   YZ=              0.0000

 7104\MP4DQ=-33.8974283\MP4SDQ=-33.899553\CCSD=-33.9005647\CCSD(T)=-33.
 Normal termination of Gaussian 16 at Sun Dec 10 06:47:42 2023.
