 Gaussian 16, Revision A.03,
 Gaussian 16:  ES64L-G16RevA.03 25-Dec-2016

 ------------------
 #p CCSD(T)/CEP-31G
 ------------------

 ------------
 H2O_H2O_1574
 ------------
 Symbolic Z-matrix:
 Charge =  0 Multiplicity = 1

                         Standard orientation:
 ---------------------------------------------------------------------
 Center     Atomic      Atomic             Coordinates (Angstroms)
 Number     Number       Type             X           Y           Z
 ---------------------------------------------------------------------
      1          8           0        0.013611   -1.719511    0.000000
      2          1           0        0.009501   -0.736918    0.000000
      3          1           0       -0.914541   -2.042062    0.000000
      4          8           0        0.013611    1.560280    0.000000
      5          1           0        0.996204    1.564390    0.000000
      6          1           0       -0.308941    2.488433    0.000000
 ---------------------------------------------------------------------

 SCF Done:  E(RHF) =  -33.6599599474     A.U. after   11 cycles
 E2 =    -0.2286622301D+00 EUMP2 =    -0.33888622177507D+02
 CCSD(T)
 CCSD(T)= -0.33905495578D+02

 The electronic state is 1-A'.
 Alpha  occ. eigenvalues --   -1.37829  -1.32970  -0.73603  -0.68723  -0.58205
 Alpha  occ. eigenvalues --   -0.52799  -0.52492  -0.47656
 Alpha virt. eigenvalues --    0.17673   0.24931   0.28676   0.37751   0.77276
 Alpha virt. eigenvalues --    0.80929   0.83701   0.86181   0.88493   1.02376
 Alpha virt. eigenvalues --    1.15782   1.18588   1.21319   1.37704   2.51596

 Mulliken charges:
               1
     1  O   -0.776945
     2  H    0.407180
     3  H    0.366012
     4  O   -0.778591
     5  H    0.385513
     6  H    0.396831
 Sum of Mulliken charges =   0.00000

 Dipole moment (field-independent basis, Debye):
    X=             -0.6097    Y=              4.0111    Z=              0.0000  Tot=              4.0572
 Quadrupole moment (field-independent basis, Debye-Ang):
   XX=             -9.8516   YY=             -8.5117   ZZ=            -15.0047
   XY=              6.1516   XZ=              0.0000   YZ=              0.0000

 797\MP4DQ=-33.8997131\MP4SDQ=-33.9018252\CCSD=-33.9028353\CCSD(T)=-33.
 Normal termination of Gaussian 16 at Sun Dec 10 06:48:34 2023.
