 Gaussian 16, Revision A.03,
 Gaussian 16:  ES64L-G16RevA.03 25-Dec-2016

 ------------------
 #p CCSD(T)/CEP-31G
 ------------------

 ------------
 H2O_H2O_4695
 ------------
 Symbolic Z-matrix:
 Charge =  0 Multiplicity = 1

                         Standard orientation:
 ---------------------------------------------------------------------
 Center     Atomic      Atomic             Coordinates (Angstroms)
 Number     Number       Type             X           Y           Z
 ---------------------------------------------------------------------
      1          8           0        0.026609    2.973609   -0.000000
      2          1           0        0.024660    1.991009   -0.000000
      3          1           0       -0.902250    3.294118   -0.000000
      4          8           0        0.026609   -2.800354    0.000000
      5          1           0        0.975224   -3.056552    0.000000
      6          1           0       -0.523386   -3.614610    0.000000
 ---------------------------------------------------------------------

 SCF Done:  E(RHF) =  -33.6533019081     A.U. after   11 cycles
 E2 =    -0.2282962053D+00 EUMP2 =    -0.33881598113399D+02
 CCSD(T)
 CCSD(T)= -0.33898556255D+02

 The electronic state is 1-A'.
 Alpha  occ. eigenvalues --   -1.36214  -1.34766  -0.71853  -0.70402  -0.56034
 Alpha  occ. eigenvalues --   -0.54554  -0.50808  -0.49364
 Alpha virt. eigenvalues --    0.19634   0.21124   0.29889   0.31403   0.79742
 Alpha virt. eigenvalues --    0.81156   0.82609   0.84141   0.85784   0.87240
 Alpha virt. eigenvalues --    1.16753   1.18203   1.21195   1.22693   2.56724

 Mulliken charges:
               1
     1  O   -0.747008
     2  H    0.377605
     3  H    0.369397
     4  O   -0.746532
     5  H    0.373541
     6  H    0.372996
 Sum of Mulliken charges =  -0.00000

 Dipole moment (field-independent basis, Debye):
    X=             -1.2224    Y=             -4.0570    Z=              0.0000  Tot=              4.2372
 Quadrupole moment (field-independent basis, Debye-Ang):
   XX=             -9.5300   YY=             -5.5759   ZZ=            -14.9916
   XY=             -9.3756   XZ=              0.0000   YZ=             -0.0000

 55\MP4DQ=-33.8929228\MP4SDQ=-33.8949466\CCSD=-33.8959991\CCSD(T)=-33.8
 Normal termination of Gaussian 16 at Sun Dec 10 06:57:31 2023.
