 Gaussian 16, Revision A.03,
 Gaussian 16:  ES64L-G16RevA.03 25-Dec-2016

 ------------------
 #p CCSD(T)/CEP-31G
 ------------------

 ------------
 H2O_H2O_2335
 ------------
 Symbolic Z-matrix:
 Charge =  0 Multiplicity = 1

                         Standard orientation:
 ---------------------------------------------------------------------
 Center     Atomic      Atomic             Coordinates (Angstroms)
 Number     Number       Type             X           Y           Z
 ---------------------------------------------------------------------
      1          8           0        0.063252    2.037457   -0.000000
      2          1           0        0.061959    1.054856   -0.000000
      3          1           0       -0.865821    2.357346   -0.000000
      4          8           0        0.063252   -1.861972    0.000000
      5          1           0        0.660396   -2.642309    0.000000
      6          1           0       -0.868567   -2.173770    0.000000
 ---------------------------------------------------------------------

 SCF Done:  E(RHF) =  -33.6563382995     A.U. after   11 cycles
 E2 =    -0.2284992594D+00 EUMP2 =    -0.33884837558943D+02
 CCSD(T)
 CCSD(T)= -0.33901749373D+02

 The electronic state is 1-A'.
 Alpha  occ. eigenvalues --   -1.37133  -1.33609  -0.72794  -0.69214  -0.57169
 Alpha  occ. eigenvalues --   -0.53421  -0.51764  -0.48232
 Alpha virt. eigenvalues --    0.18167   0.23187   0.29114   0.33618   0.78726
 Alpha virt. eigenvalues --    0.82337   0.83662   0.85239   0.86848   0.88584
 Alpha virt. eigenvalues --    1.15891   1.19853   1.20393   1.30729   2.53723

 Mulliken charges:
               1
     1  O   -0.760200
     2  H    0.397285
     3  H    0.360996
     4  O   -0.756216
     5  H    0.383711
     6  H    0.374425
 Sum of Mulliken charges =  -0.00000

 Dipole moment (field-independent basis, Debye):
    X=             -2.8682    Y=             -4.2728    Z=              0.0000  Tot=              5.1462
 Quadrupole moment (field-independent basis, Debye-Ang):
   XX=             -9.7779   YY=             -7.3188   ZZ=            -14.9973
   XY=             -4.5865   XZ=              0.0000   YZ=             -0.0000

 3135\MP4DQ=-33.8960624\MP4SDQ=-33.898127\CCSD=-33.8991566\CCSD(T)=-33.
 Normal termination of Gaussian 16 at Sun Dec 10 07:04:24 2023.
