 Gaussian 16, Revision A.03,
 Gaussian 16:  ES64L-G16RevA.03 25-Dec-2016

 ------------------
 #p CCSD(T)/CEP-31G
 ------------------

 ------------
 H2O_H2O_1589
 ------------
 Symbolic Z-matrix:
 Charge =  0 Multiplicity = 1

                         Standard orientation:
 ---------------------------------------------------------------------
 Center     Atomic      Atomic             Coordinates (Angstroms)
 Number     Number       Type             X           Y           Z
 ---------------------------------------------------------------------
      1          8           0        0.048639    1.740934   -0.000000
      2          1           0        0.046358    0.758335   -0.000000
      3          1           0       -0.880111    2.061758   -0.000000
      4          8           0        0.048639   -1.560607    0.000000
      5          1           0        0.826799   -2.160584    0.000000
      6          1           0       -0.771275   -2.102129    0.000000
 ---------------------------------------------------------------------

 SCF Done:  E(RHF) =  -33.6606613137     A.U. after   11 cycles
 E2 =    -0.2288115875D+00 EUMP2 =    -0.33889472901219D+02
 CCSD(T)
 CCSD(T)= -0.33906263705D+02

 The electronic state is 1-A'.
 Alpha  occ. eigenvalues --   -1.37836  -1.32461  -0.73477  -0.68264  -0.58283
 Alpha  occ. eigenvalues --   -0.52530  -0.52257  -0.47125
 Alpha virt. eigenvalues --    0.17963   0.24956   0.28671   0.38291   0.77381
 Alpha virt. eigenvalues --    0.81016   0.84053   0.86026   0.90856   0.95719
 Alpha virt. eigenvalues --    1.15279   1.19838   1.20961   1.33798   2.49795

 Mulliken charges:
               1
     1  O   -0.778146
     2  H    0.420195
     3  H    0.356263
     4  O   -0.776888
     5  H    0.393575
     6  H    0.385001
 Sum of Mulliken charges =  -0.00000

 Dipole moment (field-independent basis, Debye):
    X=             -2.1721    Y=             -4.5283    Z=              0.0000  Tot=              5.0223
 Quadrupole moment (field-independent basis, Debye-Ang):
   XX=             -9.4418   YY=             -7.9422   ZZ=            -15.0073
   XY=             -4.7283   XZ=              0.0000   YZ=             -0.0000

 7797\MP4DQ=-33.9005048\MP4SDQ=-33.9025909\CCSD=-33.9035982\CCSD(T)=-33
 Normal termination of Gaussian 16 at Sun Dec 10 06:48:52 2023.
