 Gaussian 16, Revision A.03,
 Gaussian 16:  ES64L-G16RevA.03 25-Dec-2016

 ------------------
 #p CCSD(T)/CEP-31G
 ------------------

 -----------
 H2O_H2O_864
 -----------
 Symbolic Z-matrix:
 Charge =  0 Multiplicity = 1

                         Standard orientation:
 ---------------------------------------------------------------------
 Center     Atomic      Atomic             Coordinates (Angstroms)
 Number     Number       Type             X           Y           Z
 ---------------------------------------------------------------------
      1          8           0        0.048684    1.451725    0.000000
      2          1           0        0.045918    0.469128    0.000000
      3          1           0       -0.879909    1.773007    0.000000
      4          8           0        0.048684   -1.271446    0.000000
      5          1           0        0.826547   -1.871807    0.000000
      6          1           0       -0.771498   -1.812564    0.000000
 ---------------------------------------------------------------------

 SCF Done:  E(RHF) =  -33.6622454611     A.U. after   11 cycles
 E2 =    -0.2291300591D+00 EUMP2 =    -0.33891375520240D+02
 CCSD(T)
 CCSD(T)= -0.33907622359D+02

 The electronic state is 1-A'.
 Alpha  occ. eigenvalues --   -1.39429  -1.30657  -0.74920  -0.68752  -0.59264
 Alpha  occ. eigenvalues --   -0.54162  -0.50043  -0.45259
 Alpha virt. eigenvalues --    0.17449   0.27006   0.27679   0.47955   0.75008
 Alpha virt. eigenvalues --    0.76198   0.85401   0.87287   0.97032   0.99168
 Alpha virt. eigenvalues --    1.14895   1.18761   1.22936   1.36328   2.56085

 Mulliken charges:
               1
     1  O   -0.783806
     2  H    0.437093
     3  H    0.342686
     4  O   -0.818650
     5  H    0.418030
     6  H    0.404646
 Sum of Mulliken charges =  -0.00000

 Dipole moment (field-independent basis, Debye):
    X=             -2.1117    Y=             -4.8174    Z=              0.0000  Tot=              5.2599
 Quadrupole moment (field-independent basis, Debye-Ang):
   XX=             -9.4069   YY=             -9.0357   ZZ=            -15.0187
   XY=             -4.0936   XZ=              0.0000   YZ=              0.0000

 65\MP4DQ=-33.9017393\MP4SDQ=-33.9038706\CCSD=-33.9047712\CCSD(T)=-33.9
 Normal termination of Gaussian 16 at Sun Dec 10 06:34:46 2023.
