 Gaussian 16, Revision A.03,
 Gaussian 16:  ES64L-G16RevA.03 25-Dec-2016

 ------------------
 #p CCSD(T)/CEP-31G
 ------------------

 ------------
 H2O_H2O_2975
 ------------
 Symbolic Z-matrix:
 Charge =  0 Multiplicity = 1

                         Standard orientation:
 ---------------------------------------------------------------------
 Center     Atomic      Atomic             Coordinates (Angstroms)
 Number     Number       Type             X           Y           Z
 ---------------------------------------------------------------------
      1          8           0        0.092949   -2.273532    0.000000
      2          1           0        0.092949   -1.290930    0.000000
      3          1           0       -0.836544   -2.592198    0.000000
      4          8           0        0.092949    2.140745    0.000000
      5          1           0        0.092949    3.123346    0.000000
      6          1           0       -0.836544    1.822078    0.000000
 ---------------------------------------------------------------------

 SCF Done:  E(RHF) =  -33.6523116909     A.U. after   11 cycles
 E2 =    -0.2284438589D+00 EUMP2 =    -0.33880755549822D+02
 CCSD(T)
 CCSD(T)= -0.33897753386D+02

 The electronic state is 1-A'.
 Alpha  occ. eigenvalues --   -1.36807  -1.34917  -0.72486  -0.70506  -0.56587
 Alpha  occ. eigenvalues --   -0.54641  -0.51379  -0.49483
 Alpha virt. eigenvalues --    0.17509   0.22034   0.29237   0.31562   0.79201
 Alpha virt. eigenvalues --    0.81070   0.82467   0.84024   0.85557   0.87577
 Alpha virt. eigenvalues --    1.15667   1.18521   1.20589   1.26090   2.55731

 Mulliken charges:
               1
     1  O   -0.743537
     2  H    0.379027
     3  H    0.364107
     4  O   -0.744139
     5  H    0.378901
     6  H    0.365641
 Sum of Mulliken charges =  -0.00000

 Dipole moment (field-independent basis, Debye):
    X=             -4.2517    Y=              3.1739    Z=              0.0000  Tot=              5.3057
 Quadrupole moment (field-independent basis, Debye-Ang):
   XX=            -11.2955   YY=             -9.5892   ZZ=            -14.9880
   XY=              2.2954   XZ=              0.0000   YZ=              0.0000

 1\MP4DQ=-33.8920904\MP4SDQ=-33.894132\CCSD=-33.8951775\CCSD(T)=-33.897
 Normal termination of Gaussian 16 at Sun Dec 10 06:26:33 2023.
