 Gaussian 16, Revision A.03,
 Gaussian 16:  ES64L-G16RevA.03 25-Dec-2016

 ------------------
 #p CCSD(T)/CEP-31G
 ------------------

 -----------
 H2O_H2O_817
 -----------
 Symbolic Z-matrix:
 Charge =  0 Multiplicity = 1

                         Standard orientation:
 ---------------------------------------------------------------------
 Center     Atomic      Atomic             Coordinates (Angstroms)
 Number     Number       Type             X           Y           Z
 ---------------------------------------------------------------------
      1          8           0        0.037576    1.431010    0.000000
      2          1           0        0.034065    0.448415    0.000000
      3          1           0       -0.890772    1.752997   -0.000000
      4          8           0        0.037576   -1.252155    0.000000
      5          1           0        0.917286   -1.689896    0.000000
      6          1           0       -0.661803   -1.942355   -0.000000
 ---------------------------------------------------------------------

 SCF Done:  E(RHF) =  -33.6622088076     A.U. after   11 cycles
 E2 =    -0.2289985003D+00 EUMP2 =    -0.33891207307906D+02
 CCSD(T)
 CCSD(T)= -0.33907382595D+02

 The electronic state is 1-A'.
 Alpha  occ. eigenvalues --   -1.39584  -1.30459  -0.75097  -0.68900  -0.59291
 Alpha  occ. eigenvalues --   -0.54312  -0.49798  -0.45070
 Alpha virt. eigenvalues --    0.17475   0.27244   0.27586   0.48827   0.74854
 Alpha virt. eigenvalues --    0.75958   0.85768   0.87563   0.95867   1.00124
 Alpha virt. eigenvalues --    1.15433   1.18407   1.23589   1.36811   2.57416

 Mulliken charges:
               1
     1  O   -0.785022
     2  H    0.433358
     3  H    0.344965
     4  O   -0.823062
     5  H    0.412564
     6  H    0.417197
 Sum of Mulliken charges =  -0.00000

 Dipole moment (field-independent basis, Debye):
    X=             -1.6437    Y=             -4.8164    Z=             -0.0000  Tot=              5.0891
 Quadrupole moment (field-independent basis, Debye-Ang):
   XX=             -9.3486   YY=             -9.1149   ZZ=            -15.0198
   XY=             -4.2433   XZ=              0.0000   YZ=             -0.0000

 51\MP4DQ=-33.9014975\MP4SDQ=-33.9036293\CCSD=-33.90452\CCSD(T)=-33.907
 Normal termination of Gaussian 16 at Sun Dec 10 06:33:53 2023.
