 Gaussian 16, Revision A.03,
 Gaussian 16:  ES64L-G16RevA.03 25-Dec-2016

 ------------------
 #p CCSD(T)/CEP-31G
 ------------------

 ------------
 H2O_H2O_2933
 ------------
 Symbolic Z-matrix:
 Charge =  0 Multiplicity = 1

                         Standard orientation:
 ---------------------------------------------------------------------
 Center     Atomic      Atomic             Coordinates (Angstroms)
 Number     Number       Type             X           Y           Z
 ---------------------------------------------------------------------
      1          8           0        0.070201    2.273933   -0.000000
      2          1           0        0.069319    1.291332   -0.000000
      3          1           0       -0.859005    2.593434   -0.000000
      4          8           0        0.070201   -2.103692    0.000000
      5          1           0        0.560737   -2.955092    0.000000
      6          1           0       -0.894267   -2.291599    0.000000
 ---------------------------------------------------------------------

 SCF Done:  E(RHF) =  -33.6544568804     A.U. after   11 cycles
 E2 =    -0.2283754516D+00 EUMP2 =    -0.33882832331950D+02
 CCSD(T)
 CCSD(T)= -0.33899765975D+02

 The electronic state is 1-A'.
 Alpha  occ. eigenvalues --   -1.36779  -1.34178  -0.72436  -0.69781  -0.56674
 Alpha  occ. eigenvalues --   -0.53967  -0.51386  -0.48780
 Alpha virt. eigenvalues --    0.18551   0.22205   0.29327   0.32289   0.79186
 Alpha virt. eigenvalues --    0.81721   0.82686   0.84782   0.85225   0.88051
 Alpha virt. eigenvalues --    1.16194   1.19140   1.20616   1.26237   2.55923

 Mulliken charges:
               1
     1  O   -0.751805
     2  H    0.387348
     3  H    0.363635
     4  O   -0.750403
     5  H    0.379605
     6  H    0.371621
 Sum of Mulliken charges =   0.00000

 Dipole moment (field-independent basis, Debye):
    X=             -3.2034    Y=             -4.0765    Z=              0.0000  Tot=              5.1846
 Quadrupole moment (field-independent basis, Debye-Ang):
   XX=            -10.0290   YY=             -7.1180   ZZ=            -14.9936
   XY=             -4.4290   XZ=              0.0000   YZ=             -0.0000

 3651\MP4DQ=-33.8941149\MP4SDQ=-33.8961557\CCSD=-33.8971956\CCSD(T)=-33
 Normal termination of Gaussian 16 at Sun Dec 10 06:25:47 2023.
