 Gaussian 16, Revision A.03,
 Gaussian 16:  ES64L-G16RevA.03 25-Dec-2016

 ------------------
 #p CCSD(T)/CEP-31G
 ------------------

 ------------
 H2O_H2O_4365
 ------------
 Symbolic Z-matrix:
 Charge =  0 Multiplicity = 1

                         Standard orientation:
 ---------------------------------------------------------------------
 Center     Atomic      Atomic             Coordinates (Angstroms)
 Number     Number       Type             X           Y           Z
 ---------------------------------------------------------------------
      1          8           0        0.044828    2.847869   -0.000000
      2          1           0        0.043348    1.865268   -0.000000
      3          1           0       -0.884183    3.167935   -0.000000
      4          8           0        0.044828   -2.667439    0.000000
      5          1           0        0.861009   -3.214573    0.000000
      6          1           0       -0.737428   -3.262065    0.000000
 ---------------------------------------------------------------------

 SCF Done:  E(RHF) =  -33.6534434571     A.U. after   11 cycles
 E2 =    -0.2282958280D+00 EUMP2 =    -0.33881739285119D+02
 CCSD(T)
 CCSD(T)= -0.33898692678D+02

 The electronic state is 1-A'.
 Alpha  occ. eigenvalues --   -1.36282  -1.34614  -0.71922  -0.70244  -0.56112
 Alpha  occ. eigenvalues --   -0.54401  -0.50878  -0.49212
 Alpha virt. eigenvalues --    0.19559   0.21305   0.29829   0.31585   0.79675
 Alpha virt. eigenvalues --    0.81302   0.82507   0.84296   0.85713   0.87410
 Alpha virt. eigenvalues --    1.16691   1.18363   1.21133   1.22886   2.56654

 Mulliken charges:
               1
     1  O   -0.747578
     2  H    0.379460
     3  H    0.368099
     4  O   -0.746961
     5  H    0.374586
     6  H    0.372395
 Sum of Mulliken charges =   0.00000

 Dipole moment (field-independent basis, Debye):
    X=             -2.0578    Y=             -4.2355    Z=              0.0000  Tot=              4.7089
 Quadrupole moment (field-independent basis, Debye-Ang):
   XX=             -9.4284   YY=             -5.2271   ZZ=            -14.9920
   XY=             -7.3531   XZ=              0.0000   YZ=             -0.0000

 122\MP4DQ=-33.8930601\MP4SDQ=-33.8950838\CCSD=-33.8961355\CCSD(T)=-33.
 Normal termination of Gaussian 16 at Sun Dec 10 06:51:34 2023.
