 Gaussian 16, Revision A.03,
 Gaussian 16:  ES64L-G16RevA.03 25-Dec-2016

 ------------------
 #p CCSD(T)/CEP-31G
 ------------------

 ------------
 H2O_H2O_3665
 ------------
 Symbolic Z-matrix:
 Charge =  0 Multiplicity = 1

                         Standard orientation:
 ---------------------------------------------------------------------
 Center     Atomic      Atomic             Coordinates (Angstroms)
 Number     Number       Type             X           Y           Z
 ---------------------------------------------------------------------
      1          8           0        0.044844    2.568647    0.000000
      2          1           0        0.043197    1.586047    0.000000
      3          1           0       -0.884114    2.888871    0.000000
      4          8           0        0.044844   -2.388233   -0.000000
      5          1           0        0.860931   -2.935506   -0.000000
      6          1           0       -0.737515   -2.982726   -0.000000
 ---------------------------------------------------------------------

 SCF Done:  E(RHF) =  -33.6541795430     A.U. after   11 cycles
 E2 =    -0.2282881779D+00 EUMP2 =    -0.33882467720837D+02
 CCSD(T)
 CCSD(T)= -0.33899400154D+02

 The electronic state is 1-A'.
 Alpha  occ. eigenvalues --   -1.36459  -1.34352  -0.72101  -0.69978  -0.56334
 Alpha  occ. eigenvalues --   -0.54157  -0.51066  -0.48959
 Alpha virt. eigenvalues --    0.19312   0.21690   0.29691   0.31919   0.79495
 Alpha virt. eigenvalues --    0.81538   0.82250   0.84559   0.85500   0.87680
 Alpha virt. eigenvalues --    1.16544   1.18719   1.20977   1.23530   2.56506

 Mulliken charges:
               1
     1  O   -0.750430
     2  H    0.383168
     3  H    0.367081
     4  O   -0.749331
     5  H    0.376163
     6  H    0.373350
 Sum of Mulliken charges =  -0.00000

 Dipole moment (field-independent basis, Debye):
    X=             -2.0524    Y=             -4.2630    Z=             -0.0000  Tot=              4.7314
 Quadrupole moment (field-independent basis, Debye-Ang):
   XX=             -9.4268   YY=             -5.8621   ZZ=            -14.9935
   XY=             -6.7285   XZ=             -0.0000   YZ=              0.0000

 181\MP4DQ=-33.8937689\MP4SDQ=-33.8957944\CCSD=-33.8968421\CCSD(T)=-33.
 Normal termination of Gaussian 16 at Sun Dec 10 06:38:57 2023.
