 Gaussian 16, Revision A.03,
 Gaussian 16:  ES64L-G16RevA.03 25-Dec-2016

 ------------------
 #p CCSD(T)/CEP-31G
 ------------------

 ------------
 H2O_H2O_4587
 ------------
 Symbolic Z-matrix:
 Charge =  0 Multiplicity = 1

                         Standard orientation:
 ---------------------------------------------------------------------
 Center     Atomic      Atomic             Coordinates (Angstroms)
 Number     Number       Type             X           Y           Z
 ---------------------------------------------------------------------
      1          8           0        0.055964    2.936806    0.000000
      2          1           0        0.054862    1.954205    0.000000
      3          1           0       -0.873171    3.256514    0.000000
      4          8           0        0.055964   -2.757865   -0.000000
      5          1           0        0.749988   -3.453448   -0.000000
      6          1           0       -0.827103   -3.188795   -0.000000
 ---------------------------------------------------------------------

 SCF Done:  E(RHF) =  -33.6531236998     A.U. after   11 cycles
 E2 =    -0.2283087668D+00 EUMP2 =    -0.33881432466549D+02
 CCSD(T)
 CCSD(T)= -0.33898394830D+02

 The electronic state is 1-A'.
 Alpha  occ. eigenvalues --   -1.36245  -1.34705  -0.71885  -0.70332  -0.56057
 Alpha  occ. eigenvalues --   -0.54481  -0.50837  -0.49297
 Alpha virt. eigenvalues --    0.19588   0.21188   0.29847   0.31466   0.79717
 Alpha virt. eigenvalues --    0.81224   0.82590   0.84219   0.85762   0.87345
 Alpha virt. eigenvalues --    1.16714   1.18254   1.21158   1.22760   2.56690

 Mulliken charges:
               1
     1  O   -0.746338
     2  H    0.378443
     3  H    0.367887
     4  O   -0.745928
     5  H    0.374416
     6  H    0.371520
 Sum of Mulliken charges =   0.00000

 Dipole moment (field-independent basis, Debye):
    X=             -2.5715    Y=             -4.1956    Z=             -0.0000  Tot=              4.9209
 Quadrupole moment (field-independent basis, Debye-Ang):
   XX=             -9.5849   YY=             -5.1623   ZZ=            -14.9913
   XY=             -6.5260   XZ=             -0.0000   YZ=              0.0000

 137\MP4DQ=-33.8927602\MP4SDQ=-33.8947845\CCSD=-33.8958371\CCSD(T)=-33.
 Normal termination of Gaussian 16 at Sun Dec 10 06:55:34 2023.
