 Gaussian 16, Revision A.03,
 Gaussian 16:  ES64L-G16RevA.03 25-Dec-2016

 ------------------
 #p CCSD(T)/CEP-31G
 ------------------

 -----------
 H2O_H2O_208
 -----------
 Symbolic Z-matrix:
 Charge =  0 Multiplicity = 1

                         Standard orientation:
 ---------------------------------------------------------------------
 Center     Atomic      Atomic             Coordinates (Angstroms)
 Number     Number       Type             X           Y           Z
 ---------------------------------------------------------------------
      1          8           0        0.070276    1.186931   -0.000000
      2          1           0        0.068524    0.204331   -0.000000
      3          1           0       -0.858647    1.507255   -0.000000
      4          8           0        0.070276   -1.016815    0.000000
      5          1           0        0.560059   -1.868648    0.000000
      6          1           0       -0.894356   -1.203868   -0.000000
 ---------------------------------------------------------------------

 SCF Done:  E(RHF) =  -33.6194298296     A.U. after   11 cycles
 E2 =    -0.2282960529D+00 EUMP2 =    -0.33847725882479D+02
 CCSD(T)
 CCSD(T)= -0.33862818215D+02

 The electronic state is 1-A'.
 Alpha  occ. eigenvalues --   -1.44244  -1.28266  -0.80526  -0.74128  -0.57811
 Alpha  occ. eigenvalues --   -0.56097  -0.46091  -0.42378
 Alpha virt. eigenvalues --    0.16256   0.24784   0.29597   0.59955   0.73307
 Alpha virt. eigenvalues --    0.74334   0.87649   0.90722   0.95399   1.07230
 Alpha virt. eigenvalues --    1.12372   1.21022   1.26023   1.35308   2.93688

 Mulliken charges:
               1
     1  O   -0.730661
     2  H    0.343631
     3  H    0.307960
     4  O   -0.814997
     5  H    0.483131
     6  H    0.410937
 Sum of Mulliken charges =   0.00000

 Dipole moment (field-independent basis, Debye):
    X=             -2.8584    Y=             -5.2839    Z=              0.0000  Tot=              6.0075
 Quadrupole moment (field-independent basis, Debye-Ang):
   XX=             -9.9788   YY=            -10.2909   ZZ=            -14.9497
   XY=             -3.1947   XZ=              0.0000   YZ=             -0.0000

 1\MP4DQ=-33.8566041\MP4SDQ=-33.8589747\CCSD=-33.8596533\CCSD(T)=-33.86
 Normal termination of Gaussian 16 at Sun Dec 10 06:22:09 2023.
