 Gaussian 16, Revision A.03,
 Gaussian 16:  ES64L-G16RevA.03 25-Dec-2016

 ------------------
 #p CCSD(T)/CEP-31G
 ------------------

 ------------
 H2O_H2O_3200
 ------------
 Symbolic Z-matrix:
 Charge =  0 Multiplicity = 1

                         Standard orientation:
 ---------------------------------------------------------------------
 Center     Atomic      Atomic             Coordinates (Angstroms)
 Number     Number       Type             X           Y           Z
 ---------------------------------------------------------------------
      1          8           0        0.092949   -2.363279    0.000000
      2          1           0        0.092949   -1.380678    0.000000
      3          1           0       -0.836544   -2.681946    0.000000
      4          8           0        0.092949    2.230492    0.000000
      5          1           0        0.092949    3.213093    0.000000
      6          1           0       -0.836544    1.911826    0.000000
 ---------------------------------------------------------------------

 SCF Done:  E(RHF) =  -33.6522223186     A.U. after   11 cycles
 E2 =    -0.2284097821D+00 EUMP2 =    -0.33880632100673D+02
 CCSD(T)
 CCSD(T)= -0.33897627797D+02

 The electronic state is 1-A'.
 Alpha  occ. eigenvalues --   -1.36702  -1.34973  -0.72372  -0.70570  -0.56475
 Alpha  occ. eigenvalues --   -0.54700  -0.51274  -0.49540
 Alpha virt. eigenvalues --    0.17901   0.21741   0.29329   0.31370   0.79309
 Alpha virt. eigenvalues --    0.81004   0.82353   0.83969   0.85405   0.87488
 Alpha virt. eigenvalues --    1.15824   1.18372   1.20667   1.24648   2.55526

 Mulliken charges:
               1
     1  O   -0.743024
     2  H    0.377955
     3  H    0.364822
     4  O   -0.743728
     5  H    0.377944
     6  H    0.366031
 Sum of Mulliken charges =  -0.00000

 Dipole moment (field-independent basis, Debye):
    X=             -4.2569    Y=              3.1606    Z=              0.0000  Tot=              5.3020
 Quadrupole moment (field-independent basis, Debye-Ang):
   XX=            -11.2925   YY=             -9.5989   ZZ=            -14.9881
   XY=              2.2979   XZ=              0.0000   YZ=              0.0000

 26\MP4DQ=-33.8919727\MP4SDQ=-33.8940084\CCSD=-33.895057\CCSD(T)=-33.89
 Normal termination of Gaussian 16 at Sun Dec 10 06:30:40 2023.
