 Gaussian 16, Revision A.03,
 Gaussian 16:  ES64L-G16RevA.03 25-Dec-2016

 ------------------
 #p CCSD(T)/CEP-31G
 ------------------

 ------------
 H2O_H2O_2259
 ------------
 Symbolic Z-matrix:
 Charge =  0 Multiplicity = 1

                         Standard orientation:
 ---------------------------------------------------------------------
 Center     Atomic      Atomic             Coordinates (Angstroms)
 Number     Number       Type             X           Y           Z
 ---------------------------------------------------------------------
      1          8           0        0.066776    2.006235   -0.000000
      2          1           0        0.065618    1.023634   -0.000000
      3          1           0       -0.862341    2.325996   -0.000000
      4          8           0        0.066776   -1.833155    0.000000
      5          1           0        0.611718   -2.650800    0.000000
      6          1           0       -0.883407   -2.083472    0.000000
 ---------------------------------------------------------------------

 SCF Done:  E(RHF) =  -33.6563000639     A.U. after   11 cycles
 E2 =    -0.2285342561D+00 EUMP2 =    -0.33884834320002D+02
 CCSD(T)
 CCSD(T)= -0.33901754450D+02

 The electronic state is 1-A'.
 Alpha  occ. eigenvalues --   -1.37196  -1.33605  -0.72863  -0.69206  -0.57235
 Alpha  occ. eigenvalues --   -0.53407  -0.51824  -0.48225
 Alpha virt. eigenvalues --    0.18041   0.23289   0.29051   0.33803   0.78637
 Alpha virt. eigenvalues --    0.82381   0.83440   0.85240   0.87803   0.88667
 Alpha virt. eigenvalues --    1.15799   1.19857   1.20359   1.31625   2.53458

 Mulliken charges:
               1
     1  O   -0.760284
     2  H    0.398025
     3  H    0.360267
     4  O   -0.756618
     5  H    0.384668
     6  H    0.373941
 Sum of Mulliken charges =  -0.00000

 Dipole moment (field-independent basis, Debye):
    X=             -3.0263    Y=             -4.2258    Z=              0.0000  Tot=              5.1977
 Quadrupole moment (field-independent basis, Debye-Ang):
   XX=             -9.8986   YY=             -7.4920   ZZ=            -14.9971
   XY=             -4.3460   XZ=              0.0000   YZ=             -0.0000

 311\MP4DQ=-33.8960577\MP4SDQ=-33.8981272\CCSD=-33.8991561\CCSD(T)=-33.
 Normal termination of Gaussian 16 at Sun Dec 10 07:02:47 2023.
