 Gaussian 16, Revision A.03,
 Gaussian 16:  ES64L-G16RevA.03 25-Dec-2016

 ------------------
 #p CCSD(T)/CEP-31G
 ------------------

 ----------
 H2O_H2O_30
 ----------
 Symbolic Z-matrix:
 Charge =  0 Multiplicity = 1

                         Standard orientation:
 ---------------------------------------------------------------------
 Center     Atomic      Atomic             Coordinates (Angstroms)
 Number     Number       Type             X           Y           Z
 ---------------------------------------------------------------------
      1          8           0        0.079899   -1.111068    0.000000
      2          1           0        0.078822   -0.128467    0.000000
      3          1           0       -0.849244   -1.430754    0.000000
      4          8           0        0.079899    0.952102    0.000000
      5          1           0        0.394725    1.882903    0.000000
      6          1           0       -0.902694    0.948045    0.000000
 ---------------------------------------------------------------------

 SCF Done:  E(RHF) =  -33.5718948362     A.U. after   11 cycles
 E2 =    -0.2276870379D+00 EUMP2 =    -0.33799581874078D+02
 CCSD(T)
 CCSD(T)= -0.33814499456D+02

 The electronic state is 1-A'.
 Alpha  occ. eigenvalues --   -1.47559  -1.27803  -0.84936  -0.74694  -0.59519
 Alpha  occ. eigenvalues --   -0.54724  -0.44887  -0.41688
 Alpha virt. eigenvalues --    0.15805   0.23066   0.30523   0.61646   0.73038
 Alpha virt. eigenvalues --    0.74459   0.90231   0.91315   0.96150   1.08322
 Alpha virt. eigenvalues --    1.09499   1.20524   1.28869   1.45115   3.11445

 Mulliken charges:
               1
     1  O   -0.687160
     2  H    0.217938
     3  H    0.294762
     4  O   -0.739418
     5  H    0.507145
     6  H    0.406733
 Sum of Mulliken charges =  -0.00000

 Dipole moment (field-independent basis, Debye):
    X=             -3.2122    Y=              5.3384    Z=              0.0000  Tot=              6.2303
 Quadrupole moment (field-independent basis, Debye-Ang):
   XX=            -10.4460   YY=            -10.6278   ZZ=            -14.8810
   XY=              2.7778   XZ=              0.0000   YZ=              0.0000

 85\MP4DQ=-33.8080631\MP4SDQ=-33.8106217\CCSD=-33.81123\CCSD(T)=-33.814
 Normal termination of Gaussian 16 at Sun Dec 10 06:18:36 2023.
