 Gaussian 16, Revision A.03,
 Gaussian 16:  ES64L-G16RevA.03 25-Dec-2016

 ------------------
 #p CCSD(T)/CEP-31G
 ------------------

 ------------
 H2O_H2O_4904
 ------------
 Symbolic Z-matrix:
 Charge =  0 Multiplicity = 1

                         Standard orientation:
 ---------------------------------------------------------------------
 Center     Atomic      Atomic             Coordinates (Angstroms)
 Number     Number       Type             X           Y           Z
 ---------------------------------------------------------------------
      1          8           0        0.082797    3.053182    0.000000
      2          1           0        0.082507    2.070580    0.000000
      3          1           0       -0.846603    3.372122    0.000000
      4          8           0        0.082797   -2.898649    0.000000
      5          1           0        0.336833   -3.847844    0.000000
      6          1           0       -0.897482   -2.831122    0.000000
 ---------------------------------------------------------------------

 SCF Done:  E(RHF) =  -33.6523335038     A.U. after   11 cycles
 E2 =    -0.2283436454D+00 EUMP2 =    -0.33880677149207D+02
 CCSD(T)
 CCSD(T)= -0.33897662679D+02

 The electronic state is 1-A'.
 Alpha  occ. eigenvalues --   -1.36214  -1.35032  -0.71857  -0.70655  -0.55982
 Alpha  occ. eigenvalues --   -0.54779  -0.50793  -0.49610
 Alpha virt. eigenvalues --    0.19570   0.20809   0.29832   0.31060   0.79765
 Alpha virt. eigenvalues --    0.80927   0.82721   0.83938   0.85815   0.87087
 Alpha virt. eigenvalues --    1.16712   1.17891   1.21163   1.22380   2.56706

 Mulliken charges:
               1
     1  O   -0.743287
     2  H    0.375521
     3  H    0.367764
     4  O   -0.743389
     5  H    0.374011
     6  H    0.369380
 Sum of Mulliken charges =  -0.00000

 Dipole moment (field-independent basis, Debye):
    X=             -3.8111    Y=             -3.6189    Z=              0.0000  Tot=              5.2555
 Quadrupole moment (field-independent basis, Debye-Ang):
   XX=            -10.6353   YY=             -7.3152   ZZ=            -14.9894
   XY=             -3.7695   XZ=              0.0000   YZ=              0.0000

 791\MP4DQ=-33.892022\MP4SDQ=-33.8940482\CCSD=-33.8951026\CCSD(T)=-33.8
 Normal termination of Gaussian 16 at Sun Dec 10 07:01:43 2023.
