 Gaussian 16, Revision A.03,
 Gaussian 16:  ES64L-G16RevA.03 25-Dec-2016

 ------------------
 #p CCSD(T)/CEP-31G
 ------------------

 ------------
 H2O_H2O_3962
 ------------
 Symbolic Z-matrix:
 Charge =  0 Multiplicity = 1

                         Standard orientation:
 ---------------------------------------------------------------------
 Center     Atomic      Atomic             Coordinates (Angstroms)
 Number     Number       Type             X           Y           Z
 ---------------------------------------------------------------------
      1          8           0        0.055974    2.687502    0.000000
      2          1           0        0.054766    1.704901    0.000000
      3          1           0       -0.873127    3.007310    0.000000
      4          8           0        0.055974   -2.508573    0.000000
      5          1           0        0.749924   -3.204231    0.000000
      6          1           0       -0.827138   -2.939407    0.000000
 ---------------------------------------------------------------------

 SCF Done:  E(RHF) =  -33.6536163817     A.U. after   11 cycles
 E2 =    -0.2282980901D+00 EUMP2 =    -0.33881914471803D+02
 CCSD(T)
 CCSD(T)= -0.33898862631D+02

 The electronic state is 1-A'.
 Alpha  occ. eigenvalues --   -1.36383  -1.34506  -0.72025  -0.70129  -0.56225
 Alpha  occ. eigenvalues --   -0.54293  -0.50981  -0.49104
 Alpha virt. eigenvalues --    0.19420   0.21463   0.29733   0.31726   0.79578
 Alpha virt. eigenvalues --    0.81405   0.82366   0.84419   0.85589   0.87553
 Alpha virt. eigenvalues --    1.16597   1.18497   1.21030   1.23134   2.56559

 Mulliken charges:
               1
     1  O   -0.748260
     2  H    0.381199
     3  H    0.366987
     4  O   -0.747607
     5  H    0.375667
     6  H    0.372014
 Sum of Mulliken charges =   0.00000

 Dipole moment (field-independent basis, Debye):
    X=             -2.5663    Y=             -4.2153    Z=              0.0000  Tot=              4.9351
 Quadrupole moment (field-independent basis, Debye-Ang):
   XX=             -9.5847   YY=             -5.7110   ZZ=            -14.9923
   XY=             -6.0974   XZ=              0.0000   YZ=              0.0000

 4815\MP4DQ=-33.8932299\MP4SDQ=-33.8952544\CCSD=-33.8963047\CCSD(T)=-33
 Normal termination of Gaussian 16 at Sun Dec 10 06:44:18 2023.
