 Gaussian 16, Revision A.03,
 Gaussian 16:  ES64L-G16RevA.03 25-Dec-2016

 ------------------
 #p CCSD(T)/CEP-31G
 ------------------

 ------------
 H2O_H2O_3278
 ------------
 Symbolic Z-matrix:
 Charge =  0 Multiplicity = 1

                         Standard orientation:
 ---------------------------------------------------------------------
 Center     Atomic      Atomic             Coordinates (Angstroms)
 Number     Number       Type             X           Y           Z
 ---------------------------------------------------------------------
      1          8           0        0.085600   -2.402326    0.000000
      2          1           0        0.085332   -1.419725    0.000000
      3          1           0       -0.843806   -2.721246    0.000000
      4          8           0        0.085600    2.252728    0.000000
      5          1           0        0.277034    3.216501    0.000000
      6          1           0       -0.888165    2.121254    0.000000
 ---------------------------------------------------------------------

 SCF Done:  E(RHF) =  -33.6529094740     A.U. after   11 cycles
 E2 =    -0.2283716491D+00 EUMP2 =    -0.33881281123168D+02
 CCSD(T)
 CCSD(T)= -0.33898254054D+02

 The electronic state is 1-A'.
 Alpha  occ. eigenvalues --   -1.36649  -1.34713  -0.72311  -0.70315  -0.56455
 Alpha  occ. eigenvalues --   -0.54463  -0.51232  -0.49293
 Alpha virt. eigenvalues --    0.18485   0.21666   0.29419   0.31537   0.79346
 Alpha virt. eigenvalues --    0.81233   0.82319   0.84234   0.85365   0.87649
 Alpha virt. eigenvalues --    1.16151   1.18528   1.20729   1.24324   2.56207

 Mulliken charges:
               1
     1  O   -0.745645
     2  H    0.380646
     3  H    0.364711
     4  O   -0.745938
     5  H    0.377940
     6  H    0.368286
 Sum of Mulliken charges =  -0.00000

 Dipole moment (field-independent basis, Debye):
    X=             -3.9192    Y=              3.5571    Z=              0.0000  Tot=              5.2928
 Quadrupole moment (field-independent basis, Debye-Ang):
   XX=            -10.8101   YY=             -8.3200   ZZ=            -14.9900
   XY=              3.1684   XZ=              0.0000   YZ=              0.0000

 8622\MP4DQ=-33.8926061\MP4SDQ=-33.8946393\CCSD=-33.895687\CCSD(T)=-33.
 Normal termination of Gaussian 16 at Sun Dec 10 06:32:04 2023.
