 Gaussian 16, Revision A.03,
 Gaussian 16:  ES64L-G16RevA.03 25-Dec-2016

 ------------------
 #p CCSD(T)/CEP-31G
 ------------------

 ------------
 H2O_H2O_2469
 ------------
 Symbolic Z-matrix:
 Charge =  0 Multiplicity = 1

                         Standard orientation:
 ---------------------------------------------------------------------
 Center     Atomic      Atomic             Coordinates (Angstroms)
 Number     Number       Type             X           Y           Z
 ---------------------------------------------------------------------
      1          8           0        0.030217    2.087378   -0.000000
      2          1           0        0.027553    1.104780   -0.000000
      3          1           0       -0.898409    2.408563   -0.000000
      4          8           0        0.030217   -1.911790    0.000000
      5          1           0        0.959811   -2.230159    0.000000
      6          1           0       -0.572421   -2.687892    0.000000
 ---------------------------------------------------------------------

 SCF Done:  E(RHF) =  -33.6569645180     A.U. after   11 cycles
 E2 =    -0.2284063538D+00 EUMP2 =    -0.33885370871810D+02
 CCSD(T)
 CCSD(T)= -0.33902258267D+02

 The electronic state is 1-A'.
 Alpha  occ. eigenvalues --   -1.37001  -1.33643  -0.72652  -0.69282  -0.57060
 Alpha  occ. eigenvalues --   -0.53503  -0.51645  -0.48290
 Alpha virt. eigenvalues --    0.18365   0.23075   0.29291   0.33340   0.78872
 Alpha virt. eigenvalues --    0.82230   0.83510   0.85073   0.86318   0.88230
 Alpha virt. eigenvalues --    1.16071   1.19861   1.20536   1.29645   2.54376

 Mulliken charges:
               1
     1  O   -0.762392
     2  H    0.395022
     3  H    0.365611
     4  O   -0.757649
     5  H    0.380369
     6  H    0.379040
 Sum of Mulliken charges =   0.00000

 Dipole moment (field-independent basis, Debye):
    X=             -1.3684    Y=             -4.2509    Z=              0.0000  Tot=              4.4658
 Quadrupole moment (field-independent basis, Debye-Ang):
   XX=             -9.4638   YY=             -7.1841   ZZ=            -14.9987
   XY=             -6.4384   XZ=              0.0000   YZ=             -0.0000

 344\MP4DQ=-33.8965895\MP4SDQ=-33.8986454\CCSD=-33.8996753\CCSD(T)=-33.
 Normal termination of Gaussian 16 at Sun Dec 10 07:06:54 2023.
