 Gaussian 16, Revision A.03,
 Gaussian 16:  ES64L-G16RevA.03 25-Dec-2016

 ------------------
 #p CCSD(T)/CEP-31G
 ------------------

 ------------
 H2O_H2O_2086
 ------------
 Symbolic Z-matrix:
 Charge =  0 Multiplicity = 1

                         Standard orientation:
 ---------------------------------------------------------------------
 Center     Atomic      Atomic             Coordinates (Angstroms)
 Number     Number       Type             X           Y           Z
 ---------------------------------------------------------------------
      1          8           0        0.059666    1.938785    0.000000
      2          1           0        0.058138    0.956185    0.000000
      3          1           0       -0.869330    2.258897   -0.000000
      4          8           0        0.059666   -1.761374    0.000000
      5          1           0        0.706391   -2.501140    0.000000
      6          1           0       -0.849855   -2.133231   -0.000000
 ---------------------------------------------------------------------

 SCF Done:  E(RHF) =  -33.6574765643     A.U. after   11 cycles
 E2 =    -0.2285820176D+00 EUMP2 =    -0.33886058581928D+02
 CCSD(T)
 CCSD(T)= -0.33902953784D+02

 The electronic state is 1-A'.
 Alpha  occ. eigenvalues --   -1.37324  -1.33294  -0.72984  -0.68917  -0.57463
 Alpha  occ. eigenvalues --   -0.53111  -0.51970  -0.47929
 Alpha virt. eigenvalues --    0.18083   0.23711   0.28996   0.34686   0.78406
 Alpha virt. eigenvalues --    0.82749   0.83185   0.85564   0.88988   0.89252
 Alpha virt. eigenvalues --    1.15723   1.20142   1.20269   1.32442   2.52305

 Mulliken charges:
               1
     1  O   -0.765262
     2  H    0.403508
     3  H    0.359547
     4  O   -0.760627
     5  H    0.386422
     6  H    0.376412
 Sum of Mulliken charges =  -0.00000

 Dipole moment (field-independent basis, Debye):
    X=             -2.6946    Y=             -4.3579    Z=             -0.0000  Tot=              5.1237
 Quadrupole moment (field-independent basis, Debye-Ang):
   XX=             -9.6710   YY=             -7.4740   ZZ=            -14.9997
   XY=             -4.6302   XZ=              0.0000   YZ=             -0.0000

 01\MP4DQ=-33.8972449\MP4SDQ=-33.899319\CCSD=-33.9003445\CCSD(T)=-33.90
 Normal termination of Gaussian 16 at Sun Dec 10 06:58:18 2023.
