 Gaussian 16, Revision A.03,
 Gaussian 16:  ES64L-G16RevA.03 25-Dec-2016

 ------------------
 #p CCSD(T)/CEP-31G
 ------------------

 -----------
 H2O_H2O_188
 -----------
 Symbolic Z-matrix:
 Charge =  0 Multiplicity = 1

                         Standard orientation:
 ---------------------------------------------------------------------
 Center     Atomic      Atomic             Coordinates (Angstroms)
 Number     Number       Type             X           Y           Z
 ---------------------------------------------------------------------
      1          8           0        0.052448    1.182180    0.000000
      2          1           0        0.049289    0.199584    0.000000
      3          1           0       -0.876016    1.503833    0.000000
      4          8           0        0.052448   -1.002463   -0.000000
      5          1           0        0.789121   -1.652709   -0.000000
      6          1           0       -0.801562   -1.488439   -0.000000
 ---------------------------------------------------------------------

 SCF Done:  E(RHF) =  -33.6215410472     A.U. after   11 cycles
 E2 =    -0.2281668406D+00 EUMP2 =    -0.33849707887728D+02
 CCSD(T)
 CCSD(T)= -0.33864473858D+02

 The electronic state is 1-A'.
 Alpha  occ. eigenvalues --   -1.44303  -1.27394  -0.78646  -0.76937  -0.58056
 Alpha  occ. eigenvalues --   -0.55516  -0.44925  -0.41480
 Alpha virt. eigenvalues --    0.16387   0.25447   0.29839   0.60988   0.73348
 Alpha virt. eigenvalues --    0.73420   0.86373   0.91308   0.92746   1.06462
 Alpha virt. eigenvalues --    1.12421   1.16534   1.27729   1.34834   2.89757

 Mulliken charges:
               1
     1  O   -0.752498
     2  H    0.354678
     3  H    0.309330
     4  O   -0.805867
     5  H    0.460524
     6  H    0.433833
 Sum of Mulliken charges =  -0.00000

 Dipole moment (field-independent basis, Debye):
    X=             -2.1339    Y=             -5.5547    Z=             -0.0000  Tot=              5.9505
 Quadrupole moment (field-independent basis, Debye-Ang):
   XX=             -9.3981   YY=            -10.4973   ZZ=            -14.9569
   XY=             -3.3945   XZ=             -0.0000   YZ=              0.0000

 4\MP4DQ=-33.8583234\MP4SDQ=-33.8606363\CCSD=-33.8612691\CCSD(T)=-33.86
 Normal termination of Gaussian 16 at Sun Dec 10 06:21:45 2023.
