 Gaussian 16, Revision A.03,
 Gaussian 16:  ES64L-G16RevA.03 25-Dec-2016

 ------------------
 #p CCSD(T)/CEP-31G
 ------------------

 ------------
 H2O_H2O_3095
 ------------
 Symbolic Z-matrix:
 Charge =  0 Multiplicity = 1

                         Standard orientation:
 ---------------------------------------------------------------------
 Center     Atomic      Atomic             Coordinates (Angstroms)
 Number     Number       Type             X           Y           Z
 ---------------------------------------------------------------------
      1          8           0        0.026658    2.335392   -0.000000
      2          1           0        0.024156    1.352793   -0.000000
      3          1           0       -0.902020    2.656424   -0.000000
      4          8           0        0.026658   -2.162167    0.000000
      5          1           0        0.975128   -2.418899    0.000000
      6          1           0       -0.523796   -2.976112    0.000000
 ---------------------------------------------------------------------

 SCF Done:  E(RHF) =  -33.6552818081     A.U. after   11 cycles
 E2 =    -0.2283005173D+00 EUMP2 =    -0.33883582325426D+02
 CCSD(T)
 CCSD(T)= -0.33900490307D+02

 The electronic state is 1-A'.
 Alpha  occ. eigenvalues --   -1.36661  -1.34142  -0.72307  -0.69778  -0.56597
 Alpha  occ. eigenvalues --   -0.53979  -0.51282  -0.48768
 Alpha virt. eigenvalues --    0.18859   0.22160   0.29513   0.32281   0.79283
 Alpha virt. eigenvalues --    0.81716   0.82421   0.84514   0.85536   0.87835
 Alpha virt. eigenvalues --    1.16370   1.19162   1.20766   1.25386   2.56181

 Mulliken charges:
               1
     1  O   -0.754875
     2  H    0.386486
     3  H    0.367738
     4  O   -0.752803
     5  H    0.377090
     6  H    0.376364
 Sum of Mulliken charges =  -0.00000

 Dipole moment (field-independent basis, Debye):
    X=             -1.2147    Y=             -4.1274    Z=              0.0000  Tot=              4.3024
 Quadrupole moment (field-independent basis, Debye-Ang):
   XX=             -9.5229   YY=             -6.8005   ZZ=            -14.9955
   XY=             -7.4106   XZ=              0.0000   YZ=             -0.0000

 0978\MP4DQ=-33.8948524\MP4SDQ=-33.8968861\CCSD=-33.8979266\CCSD(T)=-33
 Normal termination of Gaussian 16 at Sun Dec 10 06:28:46 2023.
