 Gaussian 16, Revision A.03,
 Gaussian 16:  ES64L-G16RevA.03 25-Dec-2016

 ------------------
 #p CCSD(T)/CEP-31G
 ------------------

 ------------
 H2O_H2O_4370
 ------------
 Symbolic Z-matrix:
 Charge =  0 Multiplicity = 1

                         Standard orientation:
 ---------------------------------------------------------------------
 Center     Atomic      Atomic             Coordinates (Angstroms)
 Number     Number       Type             X           Y           Z
 ---------------------------------------------------------------------
      1          8           0        0.026617    2.843971    0.000000
      2          1           0        0.024577    1.861372    0.000000
      3          1           0       -0.902212    3.164567   -0.000000
      4          8           0        0.026617   -2.670722    0.000000
      5          1           0        0.975208   -2.927008    0.000000
      6          1           0       -0.523453   -3.484926   -0.000000
 ---------------------------------------------------------------------

 SCF Done:  E(RHF) =  -33.6535429854     A.U. after   11 cycles
 E2 =    -0.2282873367D+00 EUMP2 =    -0.33881830322076D+02
 CCSD(T)
 CCSD(T)= -0.33898781737D+02

 The electronic state is 1-A'.
 Alpha  occ. eigenvalues --   -1.36275  -1.34677  -0.71915  -0.70313  -0.56109
 Alpha  occ. eigenvalues --   -0.54472  -0.50872  -0.49278
 Alpha virt. eigenvalues --    0.19569   0.21243   0.29839   0.31523   0.79680
 Alpha virt. eigenvalues --    0.81236   0.82508   0.84221   0.85707   0.87322
 Alpha virt. eigenvalues --    1.16703   1.18308   1.21137   1.22832   2.56660

 Mulliken charges:
               1
     1  O   -0.747958
     2  H    0.378750
     3  H    0.369190
     4  O   -0.747373
     5  H    0.373984
     6  H    0.373407
 Sum of Mulliken charges =  -0.00000

 Dipole moment (field-independent basis, Debye):
    X=             -1.2215    Y=             -4.0648    Z=             -0.0000  Tot=              4.2444
 Quadrupole moment (field-independent basis, Debye-Ang):
   XX=             -9.5291   YY=             -5.8253   ZZ=            -14.9921
   XY=             -8.9766   XZ=              0.0000   YZ=             -0.0000

 13\MP4DQ=-33.8931496\MP4SDQ=-33.8951731\CCSD=-33.8962248\CCSD(T)=-33.8
 Normal termination of Gaussian 16 at Sun Dec 10 06:51:39 2023.
