 Gaussian 16, Revision A.03,
 Gaussian 16:  ES64L-G16RevA.03 25-Dec-2016

 ------------------
 #p CCSD(T)/CEP-31G
 ------------------

 ------------
 H2O_H2O_2293
 ------------
 Symbolic Z-matrix:
 Charge =  0 Multiplicity = 1

                         Standard orientation:
 ---------------------------------------------------------------------
 Center     Atomic      Atomic             Coordinates (Angstroms)
 Number     Number       Type             X           Y           Z
 ---------------------------------------------------------------------
      1          8           0        0.033825    2.018611   -0.000000
      2          1           0        0.031223    1.036013   -0.000000
      3          1           0       -0.894821    2.339738   -0.000000
      4          8           0        0.033825   -1.841114    0.000000
      5          1           0        0.940632   -2.219542    0.000000
      6          1           0       -0.618234   -2.576182    0.000000
 ---------------------------------------------------------------------

 SCF Done:  E(RHF) =  -33.6575945340     A.U. after   11 cycles
 E2 =    -0.2284588659D+00 EUMP2 =    -0.33886053399922D+02
 CCSD(T)
 CCSD(T)= -0.33902933776D+02

 The electronic state is 1-A'.
 Alpha  occ. eigenvalues --   -1.37126  -1.33439  -0.72776  -0.69081  -0.57243
 Alpha  occ. eigenvalues --   -0.53300  -0.51778  -0.48091
 Alpha virt. eigenvalues --    0.18290   0.23408   0.29208   0.33920   0.78690
 Alpha virt. eigenvalues --    0.82474   0.83423   0.85755   0.86823   0.88638
 Alpha virt. eigenvalues --    1.15966   1.20027   1.20475   1.30891   2.53451

 Mulliken charges:
               1
     1  O   -0.765278
     2  H    0.398911
     3  H    0.364290
     4  O   -0.759707
     5  H    0.381899
     6  H    0.379884
 Sum of Mulliken charges =  -0.00000

 Dipole moment (field-independent basis, Debye):
    X=             -1.5291    Y=             -4.3224    Z=              0.0000  Tot=              4.5849
 Quadrupole moment (field-independent basis, Debye-Ang):
   XX=             -9.4243   YY=             -7.2610   ZZ=            -15.0000
   XY=             -6.0454   XZ=              0.0000   YZ=             -0.0000

 4983\MP4DQ=-33.8972513\MP4SDQ=-33.8993142\CCSD=-33.9003414\CCSD(T)=-33
 Normal termination of Gaussian 16 at Sun Dec 10 07:03:38 2023.
