 Gaussian 16, Revision A.03,
 Gaussian 16:  ES64L-G16RevA.03 25-Dec-2016

 ------------------
 #p CCSD(T)/CEP-31G
 ------------------

 ------------
 H2O_H2O_4849
 ------------
 Symbolic Z-matrix:
 Charge =  0 Multiplicity = 1

                         Standard orientation:
 ---------------------------------------------------------------------
 Center     Atomic      Atomic             Coordinates (Angstroms)
 Number     Number       Type             X           Y           Z
 ---------------------------------------------------------------------
      1          8           0       -0.013463    3.025853    0.000000
      2          1           0       -0.011176    2.043254    0.000000
      3          1           0        0.915285    3.346682    0.000000
      4          8           0       -0.013463   -2.866572    0.000000
      5          1           0       -0.996063   -2.868859    0.000000
      6          1           0        0.307366   -3.795321    0.000000
 ---------------------------------------------------------------------

 SCF Done:  E(RHF) =  -33.6531426196     A.U. after   10 cycles
 E2 =    -0.2282992490D+00 EUMP2 =    -0.33881441868629D+02
 CCSD(T)
 CCSD(T)= -0.33898405364D+02

 The electronic state is 1-A'.
 Alpha  occ. eigenvalues --   -1.36189  -1.34927  -0.71829  -0.70566  -0.55997
 Alpha  occ. eigenvalues --   -0.54712  -0.50780  -0.49523
 Alpha virt. eigenvalues --    0.19651   0.20946   0.29910   0.31215   0.79770
 Alpha virt. eigenvalues --    0.81002   0.82661   0.83988   0.85805   0.87077
 Alpha virt. eigenvalues --    1.16772   1.18038   1.21218   1.22512   2.56744

 Mulliken charges:
               1
     1  O   -0.746375
     2  H    0.376042
     3  H    0.370331
     4  O   -0.746116
     5  H    0.372754
     6  H    0.373364
 Sum of Mulliken charges =   0.00000

 Dipole moment (field-independent basis, Debye):
    X=              0.6190    Y=             -3.7252    Z=              0.0000  Tot=              3.7763
 Quadrupole moment (field-independent basis, Debye-Ang):
   XX=             -9.8776   YY=             -6.8175   ZZ=            -14.9912
   XY=             10.9787   XZ=              0.0000   YZ=              0.0000

 238\MP4DQ=-33.8927705\MP4SDQ=-33.8947946\CCSD=-33.8958477\CCSD(T)=-33.
 Normal termination of Gaussian 16 at Sun Dec 10 07:00:30 2023.
