 Gaussian 16, Revision A.03,
 Gaussian 16:  ES64L-G16RevA.03 25-Dec-2016

 ------------------
 #p CCSD(T)/CEP-31G
 ------------------

 ------------
 H2O_H2O_3764
 ------------
 Symbolic Z-matrix:
 Charge =  0 Multiplicity = 1

                         Standard orientation:
 ---------------------------------------------------------------------
 Center     Atomic      Atomic             Coordinates (Angstroms)
 Number     Number       Type             X           Y           Z
 ---------------------------------------------------------------------
      1          8           0        0.048567    2.608530   -0.000000
      2          1           0        0.047072    1.625929   -0.000000
      3          1           0       -0.880440    2.928610   -0.000000
      4          8           0        0.048567   -2.428124    0.000000
      5          1           0        0.827207   -3.027480    0.000000
      6          1           0       -0.770913   -2.970302    0.000000
 ---------------------------------------------------------------------

 SCF Done:  E(RHF) =  -33.6539881906     A.U. after   11 cycles
 E2 =    -0.2282906340D+00 EUMP2 =    -0.33882278824610D+02
 CCSD(T)
 CCSD(T)= -0.33899216493D+02

 The electronic state is 1-A'.
 Alpha  occ. eigenvalues --   -1.36432  -1.34399  -0.72074  -0.70025  -0.56295
 Alpha  occ. eigenvalues --   -0.54199  -0.51036  -0.49004
 Alpha virt. eigenvalues --    0.19355   0.21615   0.29708   0.31858   0.79524
 Alpha virt. eigenvalues --    0.81497   0.82282   0.84519   0.85530   0.87641
 Alpha virt. eigenvalues --    1.16563   1.18645   1.20999   1.23377   2.56526

 Mulliken charges:
               1
     1  O   -0.749691
     2  H    0.382530
     3  H    0.367024
     4  O   -0.748746
     5  H    0.376003
     6  H    0.372880
 Sum of Mulliken charges =  -0.00000

 Dipole moment (field-independent basis, Debye):
    X=             -2.2242    Y=             -4.2582    Z=              0.0000  Tot=              4.8041
 Quadrupole moment (field-independent basis, Debye-Ang):
   XX=             -9.4613   YY=             -5.7747   ZZ=            -14.9931
   XY=             -6.5335   XZ=              0.0000   YZ=             -0.0000

 8349\MP4DQ=-33.8935849\MP4SDQ=-33.8956099\CCSD=-33.8966586\CCSD(T)=-33
 Normal termination of Gaussian 16 at Sun Dec 10 06:40:44 2023.
