 Gaussian 16, Revision A.03,
 Gaussian 16:  ES64L-G16RevA.03 25-Dec-2016

 ------------------
 #p CCSD(T)/CEP-31G
 ------------------

 ------------
 H2O_H2O_4583
 ------------
 Symbolic Z-matrix:
 Charge =  0 Multiplicity = 1

                         Standard orientation:
 ---------------------------------------------------------------------
 Center     Atomic      Atomic             Coordinates (Angstroms)
 Number     Number       Type             X           Y           Z
 ---------------------------------------------------------------------
      1          8           0        0.070183    2.932095    0.000000
      2          1           0        0.069505    1.949494    0.000000
      3          1           0       -0.859089    3.251403    0.000000
      4          8           0        0.070183   -2.761825   -0.000000
      5          1           0        0.560897   -3.613122   -0.000000
      6          1           0       -0.894245   -2.949933   -0.000000
 ---------------------------------------------------------------------

 SCF Done:  E(RHF) =  -33.6528197104     A.U. after   11 cycles
 E2 =    -0.2283224560D+00 EUMP2 =    -0.33881142166388D+02
 CCSD(T)
 CCSD(T)= -0.33898113348D+02

 The electronic state is 1-A'.
 Alpha  occ. eigenvalues --   -1.36257  -1.34805  -0.71900  -0.70428  -0.56053
 Alpha  occ. eigenvalues --   -0.54568  -0.50844  -0.49391
 Alpha virt. eigenvalues --    0.19553   0.21074   0.29815   0.31344   0.79712
 Alpha virt. eigenvalues --    0.81136   0.82613   0.84138   0.85750   0.87283
 Alpha virt. eigenvalues --    1.16690   1.18141   1.21132   1.22654   2.56671

 Mulliken charges:
               1
     1  O   -0.745175
     2  H    0.377681
     3  H    0.367487
     4  O   -0.745026
     5  H    0.374546
     6  H    0.370487
 Sum of Mulliken charges =  -0.00000

 Dipole moment (field-independent basis, Debye):
    X=             -3.2264    Y=             -3.9935    Z=             -0.0000  Tot=              5.1339
 Quadrupole moment (field-independent basis, Debye-Ang):
   XX=            -10.0237   YY=             -5.9537   ZZ=            -14.9905
   XY=             -5.1297   XZ=             -0.0000   YZ=              0.0000

 13\MP4DQ=-33.8924763\MP4SDQ=-33.8945013\CCSD=-33.8955546\CCSD(T)=-33.8
 Normal termination of Gaussian 16 at Sun Dec 10 06:55:29 2023.
