 Gaussian 16, Revision A.03,
 Gaussian 16:  ES64L-G16RevA.03 25-Dec-2016

 ------------------
 #p CCSD(T)/CEP-31G
 ------------------

 ------------
 H2O_H2O_4419
 ------------
 Symbolic Z-matrix:
 Charge =  0 Multiplicity = 1

                         Standard orientation:
 ---------------------------------------------------------------------
 Center     Atomic      Atomic             Coordinates (Angstroms)
 Number     Number       Type             X           Y           Z
 ---------------------------------------------------------------------
      1          8           0        0.030150    2.865210    0.000000
      2          1           0        0.028232    1.882610    0.000000
      3          1           0       -0.898719    3.185690    0.000000
      4          8           0        0.030150   -2.689576   -0.000000
      5          1           0        0.959987   -3.007238   -0.000000
      6          1           0       -0.571898   -3.466136   -0.000000
 ---------------------------------------------------------------------

 SCF Done:  E(RHF) =  -33.6535009147     A.U. after   11 cycles
 E2 =    -0.2282898374D+00 EUMP2 =    -0.33881790752111D+02
 CCSD(T)
 CCSD(T)= -0.33898743127D+02

 The electronic state is 1-A'.
 Alpha  occ. eigenvalues --   -1.36266  -1.34669  -0.71905  -0.70304  -0.56098
 Alpha  occ. eigenvalues --   -0.54462  -0.50863  -0.49269
 Alpha virt. eigenvalues --    0.19581   0.21246   0.29847   0.31528   0.79689
 Alpha virt. eigenvalues --    0.81245   0.82523   0.84232   0.85722   0.87334
 Alpha virt. eigenvalues --    1.16710   1.18312   1.21147   1.22828   2.56671

 Mulliken charges:
               1
     1  O   -0.747793
     2  H    0.378788
     3  H    0.368990
     4  O   -0.747195
     5  H    0.374052
     6  H    0.373158
 Sum of Mulliken charges =   0.00000

 Dipole moment (field-independent basis, Debye):
    X=             -1.3839    Y=             -4.1199    Z=             -0.0000  Tot=              4.3461
 Quadrupole moment (field-independent basis, Debye-Ang):
   XX=             -9.4751   YY=             -5.5825   ZZ=            -14.9921
   XY=             -8.7096   XZ=             -0.0000   YZ=              0.0000

 627\MP4DQ=-33.8931109\MP4SDQ=-33.8951344\CCSD=-33.8961862\CCSD(T)=-33.
 Normal termination of Gaussian 16 at Sun Dec 10 06:52:32 2023.
