 Gaussian 16, Revision A.03,
 Gaussian 16:  ES64L-G16RevA.03 25-Dec-2016

 ------------------
 #p CCSD(T)/CEP-31G
 ------------------

 -----------
 H2O_H2O_542
 -----------
 Symbolic Z-matrix:
 Charge =  0 Multiplicity = 1

                         Standard orientation:
 ---------------------------------------------------------------------
 Center     Atomic      Atomic             Coordinates (Angstroms)
 Number     Number       Type             X           Y           Z
 ---------------------------------------------------------------------
      1          8           0        0.037605    1.321308    0.000000
      2          1           0        0.033781    0.338714    0.000000
      3          1           0       -0.890641    1.643589    0.000000
      4          8           0        0.037605   -1.142477   -0.000000
      5          1           0        0.917176   -1.580497   -0.000000
      6          1           0       -0.661994   -1.832454   -0.000000
 ---------------------------------------------------------------------

 SCF Done:  E(RHF) =  -33.6552773069     A.U. after   11 cycles
 E2 =    -0.2287743149D+00 EUMP2 =    -0.33884051621740D+02
 CCSD(T)
 CCSD(T)= -0.33899699223D+02

 The electronic state is 1-A'.
 Alpha  occ. eigenvalues --   -1.40952  -1.29290  -0.76243  -0.71165  -0.58430
 Alpha  occ. eigenvalues --   -0.55538  -0.48119  -0.43778
 Alpha virt. eigenvalues --    0.17164   0.26879   0.28266   0.54382   0.74044
 Alpha virt. eigenvalues --    0.74430   0.85873   0.89179   0.95720   1.00100
 Alpha virt. eigenvalues --    1.15331   1.18037   1.24924   1.37050   2.68206

 Mulliken charges:
               1
     1  O   -0.776832
     2  H    0.418743
     3  H    0.335388
     4  O   -0.834802
     5  H    0.425127
     6  H    0.432376
 Sum of Mulliken charges =   0.00000

 Dipole moment (field-independent basis, Debye):
    X=             -1.6193    Y=             -5.0497    Z=             -0.0000  Tot=              5.3030
 Quadrupole moment (field-independent basis, Debye-Ang):
   XX=             -9.3238   YY=             -9.6597   ZZ=            -15.0115
   XY=             -3.9148   XZ=             -0.0000   YZ=              0.0000

 995\MP4DQ=-33.8937383\MP4SDQ=-33.8959128\CCSD=-33.8967113\CCSD(T)=-33.
 Normal termination of Gaussian 16 at Sun Dec 10 06:28:43 2023.
