 Gaussian 16, Revision A.03,
 Gaussian 16:  ES64L-G16RevA.03 25-Dec-2016

 ------------------
 #p CCSD(T)/CEP-31G
 ------------------

 ------------
 H2O_H2O_3001
 ------------
 Symbolic Z-matrix:
 Charge =  0 Multiplicity = 1

                         Standard orientation:
 ---------------------------------------------------------------------
 Center     Atomic      Atomic             Coordinates (Angstroms)
 Number     Number       Type             X           Y           Z
 ---------------------------------------------------------------------
      1          8           0        0.090685   -2.286720    0.000000
      2          1           0        0.090598   -1.304118    0.000000
      3          1           0       -0.838780   -2.605468    0.000000
      4          8           0        0.090685    2.148012    0.000000
      5          1           0        0.154864    3.128515    0.000000
      6          1           0       -0.857637    1.890735    0.000000
 ---------------------------------------------------------------------

 SCF Done:  E(RHF) =  -33.6525908250     A.U. after   11 cycles
 E2 =    -0.2284267505D+00 EUMP2 =    -0.33881017575518D+02
 CCSD(T)
 CCSD(T)= -0.33898005990D+02

 The electronic state is 1-A'.
 Alpha  occ. eigenvalues --   -1.36787  -1.34815  -0.72462  -0.70407  -0.56580
 Alpha  occ. eigenvalues --   -0.54548  -0.51363  -0.49386
 Alpha virt. eigenvalues --    0.17755   0.21989   0.29289   0.31567   0.79217
 Alpha virt. eigenvalues --    0.81158   0.82459   0.84127   0.85505   0.87651
 Alpha virt. eigenvalues --    1.15795   1.18601   1.20620   1.25860   2.55980

 Mulliken charges:
               1
     1  O   -0.744590
     2  H    0.380138
     3  H    0.364020
     4  O   -0.745055
     5  H    0.378920
     6  H    0.366567
 Sum of Mulliken charges =  -0.00000

 Dipole moment (field-independent basis, Debye):
    X=             -4.1478    Y=              3.3143    Z=              0.0000  Tot=              5.3093
 Quadrupole moment (field-independent basis, Debye-Ang):
   XX=            -11.1393   YY=             -9.1608   ZZ=            -14.9888
   XY=              2.5734   XZ=              0.0000   YZ=              0.0000

 051\MP4DQ=-33.8923461\MP4SDQ=-33.8943865\CCSD=-33.8954318\CCSD(T)=-33.
 Normal termination of Gaussian 16 at Sun Dec 10 06:27:05 2023.
