 Gaussian 16, Revision A.03,
 Gaussian 16:  ES64L-G16RevA.03 25-Dec-2016

 ------------------
 #p CCSD(T)/CEP-31G
 ------------------

 ------------
 H2O_H2O_1240
 ------------
 Symbolic Z-matrix:
 Charge =  0 Multiplicity = 1

                         Standard orientation:
 ---------------------------------------------------------------------
 Center     Atomic      Atomic             Coordinates (Angstroms)
 Number     Number       Type             X           Y           Z
 ---------------------------------------------------------------------
      1          8           0        0.044940    1.601324   -0.000000
      2          1           0        0.042239    0.618726   -0.000000
      3          1           0       -0.883673    1.922544   -0.000000
      4          8           0        0.044940   -1.421006    0.000000
      5          1           0        0.860441   -1.969154    0.000000
      6          1           0       -0.738055   -2.014659    0.000000
 ---------------------------------------------------------------------

 SCF Done:  E(RHF) =  -33.6626807883     A.U. after   11 cycles
 E2 =    -0.2289975979D+00 EUMP2 =    -0.33891678386198D+02
 CCSD(T)
 CCSD(T)= -0.33908299353D+02

 The electronic state is 1-A'.
 Alpha  occ. eigenvalues --   -1.38407  -1.31721  -0.74015  -0.68022  -0.58972
 Alpha  occ. eigenvalues --   -0.53137  -0.51411  -0.46385
 Alpha virt. eigenvalues --    0.17782   0.25907   0.28298   0.42177   0.76313
 Alpha virt. eigenvalues --    0.78791   0.85411   0.85918   0.93217   0.99494
 Alpha virt. eigenvalues --    1.14995   1.19337   1.21853   1.34414   2.50255

 Mulliken charges:
               1
     1  O   -0.784952
     2  H    0.431738
     3  H    0.352070
     4  O   -0.795103
     5  H    0.401523
     6  H    0.394725
 Sum of Mulliken charges =   0.00000

 Dipole moment (field-independent basis, Debye):
    X=             -1.9875    Y=             -4.6349    Z=              0.0000  Tot=              5.0431
 Quadrupole moment (field-independent basis, Debye-Ang):
   XX=             -9.3906   YY=             -8.4186   ZZ=            -15.0141
   XY=             -4.5282   XZ=              0.0000   YZ=             -0.0000

 7933\MP4DQ=-33.9024926\MP4SDQ=-33.9045911\CCSD=-33.9055648\CCSD(T)=-33
 Normal termination of Gaussian 16 at Sun Dec 10 06:41:55 2023.
