 Gaussian 16, Revision A.03,
 Gaussian 16:  ES64L-G16RevA.03 25-Dec-2016

 ------------------
 #p CCSD(T)/CEP-31G
 ------------------

 -----------
 H2O_H2O_653
 -----------
 Symbolic Z-matrix:
 Charge =  0 Multiplicity = 1

                         Standard orientation:
 ---------------------------------------------------------------------
 Center     Atomic      Atomic             Coordinates (Angstroms)
 Number     Number       Type             X           Y           Z
 ---------------------------------------------------------------------
      1          8           0        0.085617   -1.355254    0.000000
      2          1           0        0.085130   -0.372653    0.000000
      3          1           0       -0.843718   -1.674381    0.000000
      4          8           0        0.085617    1.205694    0.000000
      5          1           0        0.276836    2.169510    0.000000
      6          1           0       -0.888120    1.074003    0.000000
 ---------------------------------------------------------------------

 SCF Done:  E(RHF) =  -33.6462842163     A.U. after   11 cycles
 E2 =    -0.2289456684D+00 EUMP2 =    -0.33875229884627D+02
 CCSD(T)
 CCSD(T)= -0.33891743742D+02

 The electronic state is 1-A'.
 Alpha  occ. eigenvalues --   -1.40694  -1.31669  -0.77519  -0.68778  -0.59201
 Alpha  occ. eigenvalues --   -0.54948  -0.50826  -0.46073
 Alpha virt. eigenvalues --    0.16576   0.25394   0.27802   0.49553   0.74045
 Alpha virt. eigenvalues --    0.77459   0.85374   0.87444   0.94379   1.10520
 Alpha virt. eigenvalues --    1.14589   1.23379   1.31511   1.37472   2.61550

 Mulliken charges:
               1
     1  O   -0.730177
     2  H    0.368517
     3  H    0.333241
     4  O   -0.799805
     5  H    0.450969
     6  H    0.377257
 Sum of Mulliken charges =   0.00000

 Dipole moment (field-independent basis, Debye):
    X=             -3.7018    Y=              4.2485    Z=              0.0000  Tot=              5.6349
 Quadrupole moment (field-independent basis, Debye-Ang):
   XX=            -10.8718   YY=             -9.5041   ZZ=            -14.9882
   XY=              2.7485   XZ=              0.0000   YZ=              0.0000

 122\MP4DQ=-33.8856535\MP4SDQ=-33.887955\CCSD=-33.8888424\CCSD(T)=-33.8
 Normal termination of Gaussian 16 at Sun Dec 10 06:30:48 2023.
