 Gaussian 16, Revision A.03,
 Gaussian 16:  ES64L-G16RevA.03 25-Dec-2016

 ------------------
 #p CCSD(T)/CEP-31G
 ------------------

 ------------
 H2O_H2O_2432
 ------------
 Symbolic Z-matrix:
 Charge =  0 Multiplicity = 1

                         Standard orientation:
 ---------------------------------------------------------------------
 Center     Atomic      Atomic             Coordinates (Angstroms)
 Number     Number       Type             X           Y           Z
 ---------------------------------------------------------------------
      1          8           0        0.073544    2.072694   -0.000000
      2          1           0        0.072716    1.090093   -0.000000
      3          1           0       -0.855680    2.392144   -0.000000
      4          8           0        0.073544   -1.905768    0.000000
      5          1           0        0.507395   -2.787402    0.000000
      6          1           0       -0.901140   -2.030248    0.000000
 ---------------------------------------------------------------------

 SCF Done:  E(RHF) =  -33.6552200337     A.U. after   11 cycles
 E2 =    -0.2284979005D+00 EUMP2 =    -0.33883717934116D+02
 CCSD(T)
 CCSD(T)= -0.33900657714D+02

 The electronic state is 1-A'.
 Alpha  occ. eigenvalues --   -1.37082  -1.33916  -0.72755  -0.69507  -0.57039
 Alpha  occ. eigenvalues --   -0.53701  -0.51695  -0.48522
 Alpha virt. eigenvalues --    0.17970   0.22905   0.29093   0.33083   0.78821
 Alpha virt. eigenvalues --    0.82044   0.83353   0.84983   0.86779   0.88385
 Alpha virt. eigenvalues --    1.15844   1.19560   1.20422   1.30508   2.54538

 Mulliken charges:
               1
     1  O   -0.755683
     2  H    0.392974
     3  H    0.361085
     4  O   -0.753238
     5  H    0.383029
     6  H    0.371833
 Sum of Mulliken charges =  -0.00000

 Dipole moment (field-independent basis, Debye):
    X=             -3.3429    Y=             -4.0521    Z=              0.0000  Tot=              5.2530
 Quadrupole moment (field-independent basis, Debye-Ang):
   XX=            -10.1761   YY=             -7.6495   ZZ=            -14.9947
   XY=             -3.9927   XZ=              0.0000   YZ=             -0.0000

 54\MP4DQ=-33.8949723\MP4SDQ=-33.8970353\CCSD=-33.8980676\CCSD(T)=-33.9
 Normal termination of Gaussian 16 at Sun Dec 10 07:06:13 2023.
