 Gaussian 16, Revision A.03,
 Gaussian 16:  ES64L-G16RevA.03 25-Dec-2016

 ------------------
 #p CCSD(T)/CEP-31G
 ------------------

 ------------
 H2O_H2O_1622
 ------------
 Symbolic Z-matrix:
 Charge =  0 Multiplicity = 1

                         Standard orientation:
 ---------------------------------------------------------------------
 Center     Atomic      Atomic             Coordinates (Angstroms)
 Number     Number       Type             X           Y           Z
 ---------------------------------------------------------------------
      1          8           0       -0.019946    1.743707    0.000000
      2          1           0       -0.016210    0.761113    0.000000
      3          1           0        0.908329    2.065906    0.000000
      4          8           0       -0.019946   -1.576644    0.000000
      5          1           0       -0.993646   -1.708602    0.000000
      6          1           0        0.420661   -2.454922    0.000000
 ---------------------------------------------------------------------

 SCF Done:  E(RHF) =  -33.6603476175     A.U. after   11 cycles
 E2 =    -0.2286680964D+00 EUMP2 =    -0.33889015713979D+02
 CCSD(T)
 CCSD(T)= -0.33905863372D+02

 The electronic state is 1-A'.
 Alpha  occ. eigenvalues --   -1.37763  -1.32817  -0.73475  -0.68587  -0.58163
 Alpha  occ. eigenvalues --   -0.52654  -0.52440  -0.47502
 Alpha virt. eigenvalues --    0.17826   0.24864   0.28739   0.37591   0.77437
 Alpha virt. eigenvalues --    0.81031   0.83713   0.86370   0.88807   0.99684
 Alpha virt. eigenvalues --    1.15550   1.18920   1.21323   1.36345   2.51062

 Mulliken charges:
               1
     1  O   -0.777972
     2  H    0.411096
     3  H    0.363924
     4  O   -0.777630
     5  H    0.386399
     6  H    0.394183
 Sum of Mulliken charges =  -0.00000

 Dipole moment (field-independent basis, Debye):
    X=              0.8945    Y=             -4.1933    Z=              0.0000  Tot=              4.2876
 Quadrupole moment (field-independent basis, Debye-Ang):
   XX=             -9.6542   YY=             -8.2364   ZZ=            -15.0058
   XY=              5.8823   XZ=              0.0000   YZ=              0.0000

 \MP4DQ=-33.9000972\MP4SDQ=-33.9021971\CCSD=-33.9032087\CCSD(T)=-33.905
 Normal termination of Gaussian 16 at Sun Dec 10 06:49:31 2023.
