 Gaussian 16, Revision A.03,
 Gaussian 16:  ES64L-G16RevA.03 25-Dec-2016

 ------------------
 #p CCSD(T)/CEP-31G
 ------------------

 -----------
 H2O_H2O_540
 -----------
 Symbolic Z-matrix:
 Charge =  0 Multiplicity = 1

                         Standard orientation:
 ---------------------------------------------------------------------
 Center     Atomic      Atomic             Coordinates (Angstroms)
 Number     Number       Type             X           Y           Z
 ---------------------------------------------------------------------
      1          8           0        0.044997    1.322083   -0.000000
      2          1           0        0.041683    0.339487   -0.000000
      3          1           0       -0.883416    1.643882   -0.000000
      4          8           0        0.044997   -1.141821    0.000000
      5          1           0        0.860154   -1.690478    0.000000
      6          1           0       -0.738369   -1.734987    0.000000
 ---------------------------------------------------------------------

 SCF Done:  E(RHF) =  -33.6551189601     A.U. after   11 cycles
 E2 =    -0.2289042173D+00 EUMP2 =    -0.33884023177399D+02
 CCSD(T)
 CCSD(T)= -0.33899657642D+02

 The electronic state is 1-A'.
 Alpha  occ. eigenvalues --   -1.40972  -1.29289  -0.76122  -0.71387  -0.58321
 Alpha  occ. eigenvalues --   -0.55565  -0.48111  -0.43758
 Alpha virt. eigenvalues --    0.17097   0.26875   0.28251   0.54449   0.74033
 Alpha virt. eigenvalues --    0.74251   0.85507   0.89191   0.95918   1.00596
 Alpha virt. eigenvalues --    1.14565   1.17813   1.24626   1.36824   2.68350

 Mulliken charges:
               1
     1  O   -0.775910
     2  H    0.422575
     3  H    0.332229
     4  O   -0.833614
     5  H    0.431346
     6  H    0.423375
 Sum of Mulliken charges =   0.00000

 Dipole moment (field-independent basis, Debye):
    X=             -1.9156    Y=             -5.0817    Z=              0.0000  Tot=              5.4308
 Quadrupole moment (field-independent basis, Debye-Ang):
   XX=             -9.3410   YY=             -9.6834   ZZ=            -15.0109
   XY=             -3.8258   XZ=              0.0000   YZ=             -0.0000

 2\MP4DQ=-33.8936872\MP4SDQ=-33.8958674\CCSD=-33.8966604\CCSD(T)=-33.89
 Normal termination of Gaussian 16 at Sun Dec 10 06:28:41 2023.
