 Gaussian 16, Revision A.03,
 Gaussian 16:  ES64L-G16RevA.03 25-Dec-2016

 ------------------
 #p CCSD(T)/CEP-31G
 ------------------

 ----------
 H2O_H2O_46
 ----------
 Symbolic Z-matrix:
 Charge =  0 Multiplicity = 1

                         Standard orientation:
 ---------------------------------------------------------------------
 Center     Atomic      Atomic             Coordinates (Angstroms)
 Number     Number       Type             X           Y           Z
 ---------------------------------------------------------------------
      1          8           0       -0.023480    1.117210    0.000000
      2          1           0       -0.017745    0.134626    0.000000
      3          1           0        0.904138    1.441296    0.000000
      4          8           0       -0.023480   -0.946972    0.000000
      5          1           0       -0.986066   -1.144290    0.000000
      6          1           0        0.475349   -1.793540    0.000000
 ---------------------------------------------------------------------

 SCF Done:  E(RHF) =  -33.5861501875     A.U. after   11 cycles
 E2 =    -0.2266772588D+00 EUMP2 =    -0.33812827446351D+02
 CCSD(T)
 CCSD(T)= -0.33827340307D+02

 The electronic state is 1-A'.
 Alpha  occ. eigenvalues --   -1.46766  -1.26484  -0.83362  -0.76034  -0.59360
 Alpha  occ. eigenvalues --   -0.54812  -0.43077  -0.40440
 Alpha virt. eigenvalues --    0.16542   0.24411   0.30566   0.62585   0.73271
 Alpha virt. eigenvalues --    0.73889   0.88536   0.92105   0.92282   1.04259
 Alpha virt. eigenvalues --    1.11944   1.19472   1.31342   1.42579   3.00159

 Mulliken charges:
               1
     1  O   -0.740204
     2  H    0.246300
     3  H    0.317294
     4  O   -0.757790
     5  H    0.445226
     6  H    0.489173
 Sum of Mulliken charges =  -0.00000

 Dipole moment (field-independent basis, Debye):
    X=              0.9829    Y=             -5.6251    Z=              0.0000  Tot=              5.7103
 Quadrupole moment (field-independent basis, Debye-Ang):
   XX=             -9.4162   YY=            -10.6838   ZZ=            -14.9105
   XY=              3.4610   XZ=              0.0000   YZ=              0.0000

 5\MP4DQ=-33.8211501\MP4SDQ=-33.8235126\CCSD=-33.8241094\CCSD(T)=-33.82
 Normal termination of Gaussian 16 at Sun Dec 10 06:18:55 2023.
