 Gaussian 16, Revision A.03,
 Gaussian 16:  ES64L-G16RevA.03 25-Dec-2016

 ------------------
 #p CCSD(T)/CEP-31G
 ------------------

 ------------
 H2O_H2O_2063
 ------------
 Symbolic Z-matrix:
 Charge =  0 Multiplicity = 1

                         Standard orientation:
 ---------------------------------------------------------------------
 Center     Atomic      Atomic             Coordinates (Angstroms)
 Number     Number       Type             X           Y           Z
 ---------------------------------------------------------------------
      1          8           0        0.052331    1.930141   -0.000000
      2          1           0        0.050455    0.947541   -0.000000
      3          1           0       -0.876553    2.250580   -0.000000
      4          8           0        0.052331   -1.750287    0.000000
      5          1           0        0.789852   -2.399570    0.000000
      6          1           0       -0.801044   -2.237379    0.000000
 ---------------------------------------------------------------------

 SCF Done:  E(RHF) =  -33.6580383980     A.U. after   11 cycles
 E2 =    -0.2285753811D+00 EUMP2 =    -0.33886613779151D+02
 CCSD(T)
 CCSD(T)= -0.33903491320D+02

 The electronic state is 1-A'.
 Alpha  occ. eigenvalues --   -1.37332  -1.33179  -0.72984  -0.68817  -0.57513
 Alpha  occ. eigenvalues --   -0.53012  -0.51988  -0.47825
 Alpha virt. eigenvalues --    0.18161   0.23826   0.29020   0.34909   0.78375
 Alpha virt. eigenvalues --    0.82855   0.83148   0.85811   0.88673   0.89453
 Alpha virt. eigenvalues --    1.15754   1.20191   1.20322   1.32207   2.52041

 Mulliken charges:
               1
     1  O   -0.767475
     2  H    0.405058
     3  H    0.360171
     4  O   -0.762042
     5  H    0.386022
     6  H    0.378267
 Sum of Mulliken charges =  -0.00000

 Dipole moment (field-independent basis, Debye):
    X=             -2.3607    Y=             -4.4198    Z=              0.0000  Tot=              5.0108
 Quadrupole moment (field-independent basis, Debye-Ang):
   XX=             -9.5074   YY=             -7.4067   ZZ=            -15.0010
   XY=             -4.9598   XZ=              0.0000   YZ=             -0.0000

 0392\MP4DQ=-33.8977848\MP4SDQ=-33.899857\CCSD=-33.9008813\CCSD(T)=-33.
 Normal termination of Gaussian 16 at Sun Dec 10 06:57:50 2023.
