 Gaussian 16, Revision A.03,
 Gaussian 16:  ES64L-G16RevA.03 25-Dec-2016

 ------------------
 #p CCSD(T)/CEP-31G
 ------------------

 ------------
 H2O_H2O_2159
 ------------
 Symbolic Z-matrix:
 Charge =  0 Multiplicity = 1

                         Standard orientation:
 ---------------------------------------------------------------------
 Center     Atomic      Atomic             Coordinates (Angstroms)
 Number     Number       Type             X           Y           Z
 ---------------------------------------------------------------------
      1          8           0        0.066778    1.966345    0.000000
      2          1           0        0.065595    0.983745    0.000000
      3          1           0       -0.862331    2.286130    0.000000
      4          8           0        0.066778   -1.793268   -0.000000
      5          1           0        0.611700   -2.610928   -0.000000
      6          1           0       -0.883411   -2.043563   -0.000000
 ---------------------------------------------------------------------

 SCF Done:  E(RHF) =  -33.6566240943     A.U. after   11 cycles
 E2 =    -0.2285713091D+00 EUMP2 =    -0.33885195403428D+02
 CCSD(T)
 CCSD(T)= -0.33902114138D+02

 The electronic state is 1-A'.
 Alpha  occ. eigenvalues --   -1.37275  -1.33507  -0.72946  -0.69112  -0.57346
 Alpha  occ. eigenvalues --   -0.53307  -0.51907  -0.48129
 Alpha virt. eigenvalues --    0.17980   0.23482   0.28995   0.34195   0.78507
 Alpha virt. eigenvalues --    0.82525   0.83246   0.85318   0.88737   0.89002
 Alpha virt. eigenvalues --    1.15717   1.19918   1.20336   1.32477   2.52940

 Mulliken charges:
               1
     1  O   -0.761820
     2  H    0.400160
     3  H    0.359550
     4  O   -0.758125
     5  H    0.385902
     6  H    0.374334
 Sum of Mulliken charges =  -0.00000

 Dipole moment (field-independent basis, Debye):
    X=             -3.0221    Y=             -4.2413    Z=             -0.0000  Tot=              5.2079
 Quadrupole moment (field-independent basis, Debye-Ang):
   XX=             -9.8988   YY=             -7.5783   ZZ=            -14.9977
   XY=             -4.2974   XZ=              0.0000   YZ=              0.0000

 6623\MP4DQ=-33.896407\MP4SDQ=-33.8984815\CCSD=-33.8995089\CCSD(T)=-33.
 Normal termination of Gaussian 16 at Sun Dec 10 06:59:44 2023.
