 Gaussian 16, Revision A.03,
 Gaussian 16:  ES64L-G16RevA.03 25-Dec-2016

 ------------------
 #p CCSD(T)/CEP-31G
 ------------------

 -----------
 H2O_H2O_112
 -----------
 Symbolic Z-matrix:
 Charge =  0 Multiplicity = 1

                         Standard orientation:
 ---------------------------------------------------------------------
 Center     Atomic      Atomic             Coordinates (Angstroms)
 Number     Number       Type             X           Y           Z
 ---------------------------------------------------------------------
      1          8           0        0.056132    1.151727    0.000000
      2          1           0        0.053179    0.169130    0.000000
      3          1           0       -0.872399    1.473186    0.000000
      4          8           0        0.056132   -0.972998   -0.000000
      5          1           0        0.748845   -1.669887   -0.000000
      6          1           0       -0.827744   -1.402264   -0.000000
 ---------------------------------------------------------------------

 SCF Done:  E(RHF) =  -33.6063957967     A.U. after   11 cycles
 E2 =    -0.2278871268D+00 EUMP2 =    -0.33834282923539D+02
 CCSD(T)
 CCSD(T)= -0.33848895196D+02

 The electronic state is 1-A'.
 Alpha  occ. eigenvalues --   -1.45444  -1.26990  -0.80213  -0.77670  -0.58772
 Alpha  occ. eigenvalues --   -0.54724  -0.44102  -0.40946
 Alpha virt. eigenvalues --    0.16173   0.24972   0.30229   0.61809   0.73242
 Alpha virt. eigenvalues --    0.73534   0.86499   0.91727   0.92386   1.08054
 Alpha virt. eigenvalues --    1.11793   1.16785   1.28890   1.34890   2.95990

 Mulliken charges:
               1
     1  O   -0.742991
     2  H    0.322104
     3  H    0.302412
     4  O   -0.785188
     5  H    0.470039
     6  H    0.433624
 Sum of Mulliken charges =   0.00000

 Dipole moment (field-independent basis, Debye):
    X=             -2.2553    Y=             -5.6694    Z=             -0.0000  Tot=              6.1015
 Quadrupole moment (field-independent basis, Debye-Ang):
   XX=             -9.4673   YY=            -10.6672   ZZ=            -14.9340
   XY=             -3.2903   XZ=             -0.0000   YZ=              0.0000

 861\MP4DQ=-33.8426802\MP4SDQ=-33.8450489\CCSD=-33.845647\CCSD(T)=-33.8
 Normal termination of Gaussian 16 at Sun Dec 10 06:20:15 2023.
