 Gaussian 16, Revision A.03,
 Gaussian 16:  ES64L-G16RevA.03 25-Dec-2016

 ------------------
 #p CCSD(T)/CEP-31G
 ------------------

 -----------
 H2O_H2O_888
 -----------
 Symbolic Z-matrix:
 Charge =  0 Multiplicity = 1

                         Standard orientation:
 ---------------------------------------------------------------------
 Center     Atomic      Atomic             Coordinates (Angstroms)
 Number     Number       Type             X           Y           Z
 ---------------------------------------------------------------------
      1          8           0       -0.052389    1.461427    0.000000
      2          1           0       -0.049873    0.478829    0.000000
      3          1           0        0.876285    1.782472    0.000000
      4          8           0       -0.052389   -1.281642    0.000000
      5          1           0       -0.789488   -1.931405    0.000000
      6          1           0        0.801303   -1.768177    0.000000
 ---------------------------------------------------------------------

 SCF Done:  E(RHF) =  -33.6620687381     A.U. after   11 cycles
 E2 =    -0.2291437568D+00 EUMP2 =    -0.33891212494875D+02
 CCSD(T)
 CCSD(T)= -0.33907508680D+02

 The electronic state is 1-A'.
 Alpha  occ. eigenvalues --   -1.39355  -1.30790  -0.74879  -0.68651  -0.59264
 Alpha  occ. eigenvalues --   -0.54081  -0.50198  -0.45390
 Alpha virt. eigenvalues --    0.17438   0.26879   0.27703   0.47446   0.75084
 Alpha virt. eigenvalues --    0.76435   0.85344   0.87125   0.96539   1.00188
 Alpha virt. eigenvalues --    1.14897   1.18823   1.22689   1.36188   2.55501

 Mulliken charges:
               1
     1  O   -0.782652
     2  H    0.436868
     3  H    0.342452
     4  O   -0.816841
     5  H    0.419576
     6  H    0.400597
 Sum of Mulliken charges =   0.00000

 Dipole moment (field-independent basis, Debye):
    X=              2.2708    Y=             -4.7919    Z=              0.0000  Tot=              5.3027
 Quadrupole moment (field-independent basis, Debye-Ang):
   XX=             -9.4669   YY=             -8.9905   ZZ=            -15.0178
   XY=              4.0445   XZ=              0.0000   YZ=              0.0000

 613\MP4DQ=-33.9016259\MP4SDQ=-33.9037589\CCSD=-33.904667\CCSD(T)=-33.9
 Normal termination of Gaussian 16 at Sun Dec 10 06:35:13 2023.
