 Gaussian 16, Revision A.03,
 Gaussian 16:  ES64L-G16RevA.03 25-Dec-2016

 ------------------
 #p CCSD(T)/CEP-31G
 ------------------

 ------------
 H2O_H2O_4249
 ------------
 Symbolic Z-matrix:
 Charge =  0 Multiplicity = 1

                         Standard orientation:
 ---------------------------------------------------------------------
 Center     Atomic      Atomic             Coordinates (Angstroms)
 Number     Number       Type             X           Y           Z
 ---------------------------------------------------------------------
      1          8           0       -0.013480    2.786524    0.000000
      2          1           0       -0.010990    1.803926    0.000000
      3          1           0        0.915203    3.107545    0.000000
      4          8           0       -0.013480   -2.627249    0.000000
      5          1           0       -0.996079   -2.629738    0.000000
      6          1           0        0.307541   -3.555932    0.000000
 ---------------------------------------------------------------------

 SCF Done:  E(RHF) =  -33.6535524537     A.U. after   11 cycles
 E2 =    -0.2282824705D+00 EUMP2 =    -0.33881834924181D+02
 CCSD(T)
 CCSD(T)= -0.33898787410D+02

 The electronic state is 1-A'.
 Alpha  occ. eigenvalues --   -1.36300  -1.34786  -0.71943  -0.70428  -0.56132
 Alpha  occ. eigenvalues --   -0.54585  -0.50897  -0.49389
 Alpha virt. eigenvalues --    0.19508   0.21153   0.29817   0.31405   0.79656
 Alpha virt. eigenvalues --    0.81127   0.82484   0.84107   0.85652   0.87212
 Alpha virt. eigenvalues --    1.16674   1.18212   1.21110   1.22754   2.56598

 Mulliken charges:
               1
     1  O   -0.747995
     2  H    0.377781
     3  H    0.370193
     4  O   -0.747633
     5  H    0.373402
     6  H    0.374253
 Sum of Mulliken charges =  -0.00000

 Dipole moment (field-independent basis, Debye):
    X=              0.6186    Y=             -3.7379    Z=              0.0000  Tot=              3.7887
 Quadrupole moment (field-independent basis, Debye-Ang):
   XX=             -9.8760   YY=             -7.1150   ZZ=            -14.9920
   XY=             10.0978   XZ=              0.0000   YZ=              0.0000

 4063\MP4DQ=-33.8931546\MP4SDQ=-33.8951782\CCSD=-33.89623\CCSD(T)=-33.8
 Normal termination of Gaussian 16 at Sun Dec 10 06:49:29 2023.
