 Gaussian 16, Revision A.03,
 Gaussian 16:  ES64L-G16RevA.03 25-Dec-2016

 ------------------
 #p CCSD(T)/CEP-31G
 ------------------

 ------------
 H2O_H2O_2820
 ------------
 Symbolic Z-matrix:
 Charge =  0 Multiplicity = 1

                         Standard orientation:
 ---------------------------------------------------------------------
 Center     Atomic      Atomic             Coordinates (Angstroms)
 Number     Number       Type             X           Y           Z
 ---------------------------------------------------------------------
      1          8           0        0.026670    2.225697    0.000000
      2          1           0        0.024039    1.243099    0.000000
      3          1           0       -0.901967    2.546851    0.000000
      4          8           0        0.026670   -2.052480    0.000000
      5          1           0        0.975105   -2.309336    0.000000
      6          1           0       -0.523891   -2.866353    0.000000
 ---------------------------------------------------------------------

 SCF Done:  E(RHF) =  -33.6559186303     A.U. after   11 cycles
 E2 =    -0.2283338201D+00 EUMP2 =    -0.33884252450335D+02
 CCSD(T)
 CCSD(T)= -0.33901150923D+02

 The electronic state is 1-A'.
 Alpha  occ. eigenvalues --   -1.36793  -1.33964  -0.72442  -0.69602  -0.56771
 Alpha  occ. eigenvalues --   -0.53813  -0.51423  -0.48599
 Alpha virt. eigenvalues --    0.18605   0.22510   0.29420   0.32605   0.79136
 Alpha virt. eigenvalues --    0.81886   0.82909   0.84498   0.85749   0.87945
 Alpha virt. eigenvalues --    1.16249   1.19460   1.20671   1.27037   2.55660

 Mulliken charges:
               1
     1  O   -0.757642
     2  H    0.389391
     3  H    0.367176
     4  O   -0.754611
     5  H    0.378217
     6  H    0.377469
 Sum of Mulliken charges =   0.00000

 Dipole moment (field-independent basis, Debye):
    X=             -1.2120    Y=             -4.1523    Z=              0.0000  Tot=              4.3256
 Quadrupole moment (field-independent basis, Debye-Ang):
   XX=             -9.5208   YY=             -7.0137   ZZ=            -14.9967
   XY=             -7.0725   XZ=              0.0000   YZ=              0.0000

 73\MP4DQ=-33.895503\MP4SDQ=-33.8975451\CCSD=-33.8985809\CCSD(T)=-33.90
 Normal termination of Gaussian 16 at Sun Dec 10 06:23:45 2023.
