 Gaussian 16, Revision A.03,
 Gaussian 16:  ES64L-G16RevA.03 25-Dec-2016

 ------------------
 #p CCSD(T)/CEP-31G
 ------------------

 ------------
 H2O_H2O_3935
 ------------
 Symbolic Z-matrix:
 Charge =  0 Multiplicity = 1

                         Standard orientation:
 ---------------------------------------------------------------------
 Center     Atomic      Atomic             Coordinates (Angstroms)
 Number     Number       Type             X           Y           Z
 ---------------------------------------------------------------------
      1          8           0        0.063224    2.675681   -0.000000
      2          1           0        0.062249    1.693080   -0.000000
      3          1           0       -0.865953    2.995269    0.000000
      4          8           0        0.063224   -2.500155   -0.000000
      5          1           0        0.660621   -3.280298   -0.000000
      6          1           0       -0.868494   -2.812255    0.000000
 ---------------------------------------------------------------------

 SCF Done:  E(RHF) =  -33.6534544520     A.U. after   11 cycles
 E2 =    -0.2283058836D+00 EUMP2 =    -0.33881760335633D+02
 CCSD(T)
 CCSD(T)= -0.33898713168D+02

 The electronic state is 1-A'.
 Alpha  occ. eigenvalues --   -1.36396  -1.34547  -0.72041  -0.70167  -0.56229
 Alpha  occ. eigenvalues --   -0.54327  -0.50992  -0.49142
 Alpha virt. eigenvalues --    0.19384   0.21421   0.29703   0.31682   0.79569
 Alpha virt. eigenvalues --    0.81370   0.82369   0.84388   0.85571   0.87542
 Alpha virt. eigenvalues --    1.16577   1.18451   1.20999   1.23125   2.56542

 Mulliken charges:
               1
     1  O   -0.747642
     2  H    0.380921
     3  H    0.366645
     4  O   -0.747166
     5  H    0.375850
     6  H    0.371392
 Sum of Mulliken charges =   0.00000

 Dipole moment (field-independent basis, Debye):
    X=             -2.8993    Y=             -4.1369    Z=              0.0000  Tot=              5.0517
 Quadrupole moment (field-independent basis, Debye-Ang):
   XX=             -9.7759   YY=             -5.9981   ZZ=            -14.9919
   XY=             -5.4734   XZ=             -0.0000   YZ=              0.0000

 3314\MP4DQ=-33.893079\MP4SDQ=-33.895104\CCSD=-33.8961546\CCSD(T)=-33.8
 Normal termination of Gaussian 16 at Sun Dec 10 06:43:49 2023.
