 Gaussian 16, Revision A.03,
 Gaussian 16:  ES64L-G16RevA.03 25-Dec-2016

 ------------------
 #p CCSD(T)/CEP-31G
 ------------------

 ------------
 H2O_H2O_2423
 ------------
 Symbolic Z-matrix:
 Charge =  0 Multiplicity = 1

                         Standard orientation:
 ---------------------------------------------------------------------
 Center     Atomic      Atomic             Coordinates (Angstroms)
 Number     Number       Type             X           Y           Z
 ---------------------------------------------------------------------
      1          8           0       -0.016661    2.060804    0.000000
      2          1           0       -0.013388    1.078208    0.000000
      3          1           0        0.911766    2.382564    0.000000
      4          8           0       -0.016661   -1.897428    0.000000
      5          1           0       -0.996939   -1.964958    0.000000
      6          1           0        0.365133   -2.802823    0.000000
 ---------------------------------------------------------------------

 SCF Done:  E(RHF) =  -33.6568192329     A.U. after   11 cycles
 E2 =    -0.2284083776D+00 EUMP2 =    -0.33885227610504D+02
 CCSD(T)
 CCSD(T)= -0.33902129352D+02

 The electronic state is 1-A'.
 Alpha  occ. eigenvalues --   -1.37020  -1.33845  -0.72686  -0.69498  -0.57064
 Alpha  occ. eigenvalues --   -0.53711  -0.51658  -0.48496
 Alpha virt. eigenvalues --    0.18038   0.23120   0.29269   0.33224   0.78835
 Alpha virt. eigenvalues --    0.82058   0.82996   0.84994   0.87476   0.87991
 Alpha virt. eigenvalues --    1.15978   1.19746   1.20551   1.30987   2.54818

 Mulliken charges:
               1
     1  O   -0.762134
     2  H    0.392365
     3  H    0.368082
     4  O   -0.758327
     5  H    0.379065
     6  H    0.380950
 Sum of Mulliken charges =  -0.00000

 Dipole moment (field-independent basis, Debye):
    X=              0.7530    Y=             -3.9556    Z=              0.0000  Tot=              4.0266
 Quadrupole moment (field-independent basis, Debye-Ang):
   XX=             -9.7611   YY=             -7.8076   ZZ=            -14.9980
   XY=              7.2021   XZ=              0.0000   YZ=              0.0000

 99\MP4DQ=-33.8964532\MP4SDQ=-33.898513\CCSD=-33.8995426\CCSD(T)=-33.90
 Normal termination of Gaussian 16 at Sun Dec 10 07:06:03 2023.
