 Gaussian 16, Revision A.03,
 Gaussian 16:  ES64L-G16RevA.03 25-Dec-2016

 ------------------
 #p CCSD(T)/CEP-31G
 ------------------

 ------------
 H2O_H2O_1991
 ------------
 Symbolic Z-matrix:
 Charge =  0 Multiplicity = 1

                         Standard orientation:
 ---------------------------------------------------------------------
 Center     Atomic      Atomic             Coordinates (Angstroms)
 Number     Number       Type             X           Y           Z
 ---------------------------------------------------------------------
      1          8           0        0.041185    1.900244    0.000000
      2          1           0        0.038756    0.917646    0.000000
      3          1           0       -0.887517    2.221208    0.000000
      4          8           0        0.041185   -1.720360   -0.000000
      5          1           0        0.890926   -2.213763   -0.000000
      6          1           0       -0.701129   -2.364158   -0.000000
 ---------------------------------------------------------------------

 SCF Done:  E(RHF) =  -33.6588027697     A.U. after   11 cycles
 E2 =    -0.2285828052D+00 EUMP2 =    -0.33887385574927D+02
 CCSD(T)
 CCSD(T)= -0.33904245464D+02

 The electronic state is 1-A'.
 Alpha  occ. eigenvalues --   -1.37381  -1.33051  -0.73028  -0.68716  -0.57623
 Alpha  occ. eigenvalues --   -0.52902  -0.52048  -0.47712
 Alpha virt. eigenvalues --    0.18171   0.24037   0.29016   0.35349   0.78262
 Alpha virt. eigenvalues --    0.82766   0.83013   0.86180   0.88513   0.90507
 Alpha virt. eigenvalues --    1.15732   1.20054   1.20566   1.32594   2.51654

 Mulliken charges:
               1
     1  O   -0.770683
     2  H    0.407093
     3  H    0.361287
     4  O   -0.764775
     5  H    0.385557
     6  H    0.381520
 Sum of Mulliken charges =  -0.00000

 Dipole moment (field-independent basis, Debye):
    X=             -1.8548    Y=             -4.4308    Z=             -0.0000  Tot=              4.8033
 Quadrupole moment (field-independent basis, Debye-Ang):
   XX=             -9.3980   YY=             -7.4809   ZZ=            -15.0026
   XY=             -5.3849   XZ=             -0.0000   YZ=              0.0000

 \MP4DQ=-33.8985349\MP4SDQ=-33.900608\CCSD=-33.9016302\CCSD(T)=-33.9042
 Normal termination of Gaussian 16 at Sun Dec 10 06:56:27 2023.
