 Gaussian 16, Revision A.03,
 Gaussian 16:  ES64L-G16RevA.03 25-Dec-2016

 ------------------
 #p CCSD(T)/CEP-31G
 ------------------

 ------------
 H2O_H2O_3299
 ------------
 Symbolic Z-matrix:
 Charge =  0 Multiplicity = 1

                         Standard orientation:
 ---------------------------------------------------------------------
 Center     Atomic      Atomic             Coordinates (Angstroms)
 Number     Number       Type             X           Y           Z
 ---------------------------------------------------------------------
      1          8           0       -0.013513    2.407586    0.000000
      2          1           0       -0.010617    1.424989    0.000000
      3          1           0        0.915037    2.728990    0.000000
      4          8           0       -0.013513   -2.248322    0.000000
      5          1           0       -0.996110   -2.251218    0.000000
      6          1           0        0.307892   -3.176873    0.000000
 ---------------------------------------------------------------------

 SCF Done:  E(RHF) =  -33.6546798948     A.U. after   11 cycles
 E2 =    -0.2282800329D+00 EUMP2 =    -0.33882959927718D+02
 CCSD(T)
 CCSD(T)= -0.33899884350D+02

 The electronic state is 1-A'.
 Alpha  occ. eigenvalues --   -1.36572  -1.34457  -0.72223  -0.70102  -0.56469
 Alpha  occ. eigenvalues --   -0.54287  -0.51183  -0.49078
 Alpha virt. eigenvalues --    0.18845   0.21856   0.29575   0.31888   0.79379
 Alpha virt. eigenvalues --    0.81418   0.82257   0.84285   0.85493   0.87583
 Alpha virt. eigenvalues --    1.16386   1.18817   1.20836   1.24517   2.56407

 Mulliken charges:
               1
     1  O   -0.752475
     2  H    0.382352
     3  H    0.369778
     4  O   -0.751525
     5  H    0.375210
     6  H    0.376660
 Sum of Mulliken charges =  -0.00000

 Dipole moment (field-independent basis, Debye):
    X=              0.6167    Y=             -3.7764    Z=              0.0000  Tot=              3.8264
 Quadrupole moment (field-independent basis, Debye-Ang):
   XX=             -9.8716   YY=             -7.5792   ZZ=            -14.9941
   XY=              8.7037   XZ=              0.0000   YZ=              0.0000

 965\MP4DQ=-33.8942489\MP4SDQ=-33.8962781\CCSD=-33.8973227\CCSD(T)=-33.
 Normal termination of Gaussian 16 at Sun Dec 10 06:32:27 2023.
