 Gaussian 16, Revision A.03,
 Gaussian 16:  ES64L-G16RevA.03 25-Dec-2016

 ------------------
 #p CCSD(T)/CEP-31G
 ------------------

 -----------
 H2O_H2O_251
 -----------
 Symbolic Z-matrix:
 Charge =  0 Multiplicity = 1

                         Standard orientation:
 ---------------------------------------------------------------------
 Center     Atomic      Atomic             Coordinates (Angstroms)
 Number     Number       Type             X           Y           Z
 ---------------------------------------------------------------------
      1          8           0        0.090691   -1.189799    0.000000
      2          1           0        0.090519   -0.207198    0.000000
      3          1           0       -0.838747   -1.508628    0.000000
      4          8           0        0.090691    1.051107    0.000000
      5          1           0        0.154785    2.031615    0.000000
      6          1           0       -0.857609    0.793748    0.000000
 ---------------------------------------------------------------------

 SCF Done:  E(RHF) =  -33.6049874504     A.U. after   11 cycles
 E2 =    -0.2287244543D+00 EUMP2 =    -0.33833711904672D+02
 CCSD(T)
 CCSD(T)= -0.33849542422D+02

 The electronic state is 1-A'.
 Alpha  occ. eigenvalues --   -1.44561  -1.30474  -0.82784  -0.69990  -0.57914
 Alpha  occ. eigenvalues --   -0.57379  -0.48881  -0.44631
 Alpha virt. eigenvalues --    0.16138   0.23607   0.29183   0.57296   0.73056
 Alpha virt. eigenvalues --    0.76452   0.87916   0.89300   0.95657   1.10769
 Alpha virt. eigenvalues --    1.12401   1.23573   1.26239   1.47625   2.83851

 Mulliken charges:
               1
     1  O   -0.674816
     2  H    0.256525
     3  H    0.315076
     4  O   -0.753228
     5  H    0.479371
     6  H    0.377072
 Sum of Mulliken charges =   0.00000

 Dipole moment (field-independent basis, Debye):
    X=             -3.8173    Y=              4.4363    Z=              0.0000  Tot=              5.8526
 Quadrupole moment (field-independent basis, Debye-Ang):
   XX=            -11.1955   YY=            -10.2377   ZZ=            -14.9258
   XY=              2.2846   XZ=              0.0000   YZ=              0.0000

 8\MP4DQ=-33.8431606\MP4SDQ=-33.8456733\CCSD=-33.8463845\CCSD(T)=-33.84
 Normal termination of Gaussian 16 at Sun Dec 10 06:23:00 2023.
