 Gaussian 16, Revision A.03,
 Gaussian 16:  ES64L-G16RevA.03 25-Dec-2016

 ------------------
 #p CCSD(T)/CEP-31G
 ------------------

 -----------
 H2O_H2O_826
 -----------
 Symbolic Z-matrix:
 Charge =  0 Multiplicity = 1

                         Standard orientation:
 ---------------------------------------------------------------------
 Center     Atomic      Atomic             Coordinates (Angstroms)
 Number     Number       Type             X           Y           Z
 ---------------------------------------------------------------------
      1          8           0        0.090689   -1.419156    0.000000
      2          1           0        0.090546   -0.436555    0.000000
      3          1           0       -0.838758   -1.737958    0.000000
      4          8           0        0.090689    1.280459    0.000000
      5          1           0        0.154812    2.260965    0.000000
      6          1           0       -0.857619    1.023128    0.000000
 ---------------------------------------------------------------------

 SCF Done:  E(RHF) =  -33.6475224059     A.U. after   11 cycles
 E2 =    -0.2292525737D+00 EUMP2 =    -0.33876774979566D+02
 CCSD(T)
 CCSD(T)= -0.33893604608D+02

 The electronic state is 1-A'.
 Alpha  occ. eigenvalues --   -1.39958  -1.32778  -0.76806  -0.68505  -0.59261
 Alpha  occ. eigenvalues --   -0.54270  -0.52133  -0.47210
 Alpha virt. eigenvalues --    0.16529   0.25219   0.27671   0.45788   0.74479
 Alpha virt. eigenvalues --    0.78753   0.84956   0.86191   0.92192   1.11786
 Alpha virt. eigenvalues --    1.14225   1.23472   1.32780   1.36491   2.53885

 Mulliken charges:
               1
     1  O   -0.730569
     2  H    0.366053
     3  H    0.340209
     4  O   -0.774980
     5  H    0.431695
     6  H    0.367591
 Sum of Mulliken charges =   0.00000

 Dipole moment (field-independent basis, Debye):
    X=             -3.9821    Y=              3.8334    Z=              0.0000  Tot=              5.5274
 Quadrupole moment (field-independent basis, Debye-Ang):
   XX=            -11.2107   YY=             -9.5740   ZZ=            -14.9864
   XY=              2.4066   XZ=              0.0000   YZ=              0.0000

 21\MP4DQ=-33.88754\MP4SDQ=-33.8898302\CCSD=-33.8907524\CCSD(T)=-33.893
 Normal termination of Gaussian 16 at Sun Dec 10 06:34:03 2023.
