 Gaussian 16, Revision A.03,
 Gaussian 16:  ES64L-G16RevA.03 25-Dec-2016

 ------------------
 #p CCSD(T)/CEP-31G
 ------------------

 ------------
 H2O_H2O_4975
 ------------
 Symbolic Z-matrix:
 Charge =  0 Multiplicity = 1

                         Standard orientation:
 ---------------------------------------------------------------------
 Center     Atomic      Atomic             Coordinates (Angstroms)
 Number     Number       Type             X           Y           Z
 ---------------------------------------------------------------------
      1          8           0        0.092949   -3.071286    0.000000
      2          1           0        0.092949   -2.088685    0.000000
      3          1           0       -0.836544   -3.389953    0.000000
      4          8           0        0.092949    2.938499    0.000000
      5          1           0        0.092949    3.921101    0.000000
      6          1           0       -0.836544    2.619832    0.000000
 ---------------------------------------------------------------------

 SCF Done:  E(RHF) =  -33.6519313782     A.U. after   11 cycles
 E2 =    -0.2283639264D+00 EUMP2 =    -0.33880295304674D+02
 CCSD(T)
 CCSD(T)= -0.33897293208D+02

 The electronic state is 1-A'.
 Alpha  occ. eigenvalues --   -1.36218  -1.35246  -0.71862  -0.70867  -0.55966
 Alpha  occ. eigenvalues --   -0.54979  -0.50791  -0.49817
 Alpha virt. eigenvalues --    0.19527   0.20575   0.29799   0.30808   0.79770
 Alpha virt. eigenvalues --    0.80729   0.82761   0.83750   0.85830   0.86905
 Alpha virt. eigenvalues --    1.16688   1.17662   1.21141   1.22146   2.56654

 Mulliken charges:
               1
     1  O   -0.741728
     2  H    0.373753
     3  H    0.367974
     4  O   -0.741963
     5  H    0.373734
     6  H    0.368229
 Sum of Mulliken charges =  -0.00000

 Dipole moment (field-independent basis, Debye):
    X=             -4.2811    Y=              3.1093    Z=              0.0000  Tot=              5.2911
 Quadrupole moment (field-independent basis, Debye-Ang):
   XX=            -11.2786   YY=             -9.6456   ZZ=            -14.9883
   XY=              2.3101   XZ=              0.0000   YZ=              0.0000

 9082\MP4DQ=-33.8916491\MP4SDQ=-33.8936766\CCSD=-33.8947317\CCSD(T)=-33
 Normal termination of Gaussian 16 at Sun Dec 10 07:03:50 2023.
