 Gaussian 16, Revision A.03,
 Gaussian 16:  ES64L-G16RevA.03 25-Dec-2016

 ------------------
 #p CCSD(T)/CEP-31G
 ------------------

 ------------
 H2O_H2O_2836
 ------------
 Symbolic Z-matrix:
 Charge =  0 Multiplicity = 1

                         Standard orientation:
 ---------------------------------------------------------------------
 Center     Atomic      Atomic             Coordinates (Angstroms)
 Number     Number       Type             X           Y           Z
 ---------------------------------------------------------------------
      1          8           0        0.059647    2.237956    0.000000
      2          1           0        0.058331    1.255355    0.000000
      3          1           0       -0.869419    2.557866   -0.000000
      4          8           0        0.059647   -2.060519    0.000000
      5          1           0        0.706532   -2.800144    0.000000
      6          1           0       -0.849794   -2.432573   -0.000000
 ---------------------------------------------------------------------

 SCF Done:  E(RHF) =  -33.6552260792     A.U. after   11 cycles
 E2 =    -0.2283711179D+00 EUMP2 =    -0.33883597197144D+02
 CCSD(T)
 CCSD(T)= -0.33900511270D+02

 The electronic state is 1-A'.
 Alpha  occ. eigenvalues --   -1.36816  -1.33961  -0.72468  -0.69571  -0.56758
 Alpha  occ. eigenvalues --   -0.53773  -0.51435  -0.48577
 Alpha virt. eigenvalues --    0.18627   0.22435   0.29363   0.32560   0.79132
 Alpha virt. eigenvalues --    0.81915   0.83001   0.84826   0.85205   0.88158
 Alpha virt. eigenvalues --    1.16214   1.19380   1.20636   1.26674   2.55582

 Mulliken charges:
               1
     1  O   -0.754858
     2  H    0.390010
     3  H    0.363778
     4  O   -0.752348
     5  H    0.379917
     6  H    0.373502
 Sum of Mulliken charges =  -0.00000

 Dipole moment (field-independent basis, Debye):
    X=             -2.7174    Y=             -4.2581    Z=             -0.0000  Tot=              5.0513
 Quadrupole moment (field-independent basis, Debye-Ang):
   XX=             -9.6725   YY=             -6.7815   ZZ=            -14.9953
   XY=             -5.0960   XZ=              0.0000   YZ=             -0.0000

 1075\MP4DQ=-33.8948601\MP4SDQ=-33.8969032\CCSD=-33.8979403\CCSD(T)=-33
 Normal termination of Gaussian 16 at Sun Dec 10 06:24:02 2023.
