 Gaussian 16, Revision A.03,
 Gaussian 16:  ES64L-G16RevA.03 25-Dec-2016

 ------------------
 #p CCSD(T)/CEP-31G
 ------------------

 -----------
 H2O_H2O_429
 -----------
 Symbolic Z-matrix:
 Charge =  0 Multiplicity = 1

                         Standard orientation:
 ---------------------------------------------------------------------
 Center     Atomic      Atomic             Coordinates (Angstroms)
 Number     Number       Type             X           Y           Z
 ---------------------------------------------------------------------
      1          8           0        0.082831   -1.268169    0.000000
      2          1           0        0.082108   -0.285568    0.000000
      3          1           0       -0.846428   -1.587519    0.000000
      4          8           0        0.082831    1.113710    0.000000
      5          1           0        0.336450    2.063017    0.000000
      6          1           0       -0.897418    1.045750    0.000000
 ---------------------------------------------------------------------

 SCF Done:  E(RHF) =  -33.6359055814     A.U. after   11 cycles
 E2 =    -0.2286441593D+00 EUMP2 =    -0.33864549740741D+02
 CCSD(T)
 CCSD(T)= -0.33880569741D+02

 The electronic state is 1-A'.
 Alpha  occ. eigenvalues --   -1.42197  -1.30460  -0.79271  -0.70057  -0.58380
 Alpha  occ. eigenvalues --   -0.56132  -0.49201  -0.44760
 Alpha virt. eigenvalues --    0.16420   0.24923   0.28481   0.54538   0.73532
 Alpha virt. eigenvalues --    0.76230   0.86281   0.88858   0.96224   1.09149
 Alpha virt. eigenvalues --    1.14285   1.23691   1.27564   1.39492   2.76060

 Mulliken charges:
               1
     1  O   -0.718827
     2  H    0.349577
     3  H    0.322861
     4  O   -0.812498
     5  H    0.472519
     6  H    0.386369
 Sum of Mulliken charges =   0.00000

 Dipole moment (field-independent basis, Debye):
    X=             -3.5021    Y=              4.5997    Z=              0.0000  Tot=              5.7812
 Quadrupole moment (field-independent basis, Debye-Ang):
   XX=            -10.6869   YY=             -9.7727   ZZ=            -14.9736
   XY=              2.8490   XZ=              0.0000   YZ=              0.0000

 756\MP4DQ=-33.8743985\MP4SDQ=-33.8767517\CCSD=-33.8775614\CCSD(T)=-33.
 Normal termination of Gaussian 16 at Sun Dec 10 06:26:30 2023.
