 Gaussian 16, Revision A.03,
 Gaussian 16:  ES64L-G16RevA.03 25-Dec-2016

 ------------------
 #p CCSD(T)/CEP-31G
 ------------------

 ------------
 H2O_H2O_3627
 ------------
 Symbolic Z-matrix:
 Charge =  0 Multiplicity = 1

                         Standard orientation:
 ---------------------------------------------------------------------
 Center     Atomic      Atomic             Coordinates (Angstroms)
 Number     Number       Type             X           Y           Z
 ---------------------------------------------------------------------
      1          8           0        0.088231   -2.539067    0.000000
      2          1           0        0.088068   -1.556466    0.000000
      3          1           0       -0.841210   -2.857887    0.000000
      4          8           0        0.088231    2.394745    0.000000
      5          1           0        0.216325    3.368961    0.000000
      6          1           0       -0.874873    2.199968    0.000000
 ---------------------------------------------------------------------

 SCF Done:  E(RHF) =  -33.6524889070     A.U. after   11 cycles
 E2 =    -0.2283588438D+00 EUMP2 =    -0.33880847750745D+02
 CCSD(T)
 CCSD(T)= -0.33897830871D+02

 The electronic state is 1-A'.
 Alpha  occ. eigenvalues --   -1.36526  -1.34896  -0.72183  -0.70504  -0.56309
 Alpha  occ. eigenvalues --   -0.54638  -0.51104  -0.49471
 Alpha virt. eigenvalues --    0.18816   0.21300   0.29532   0.31270   0.79469
 Alpha virt. eigenvalues --    0.81061   0.82351   0.84068   0.85430   0.87410
 Alpha virt. eigenvalues --    1.16291   1.18201   1.20854   1.23165   2.56069

 Mulliken charges:
               1
     1  O   -0.743952
     2  H    0.378141
     3  H    0.365705
     4  O   -0.744422
     5  H    0.376646
     6  H    0.367882
 Sum of Mulliken charges =   0.00000

 Dipole moment (field-independent basis, Debye):
    X=             -4.0469    Y=              3.4143    Z=              0.0000  Tot=              5.2948
 Quadrupole moment (field-independent basis, Debye-Ang):
   XX=            -10.9713   YY=             -8.6467   ZZ=            -14.9892
   XY=              2.9117   XZ=              0.0000   YZ=              0.0000

 4437\MP4DQ=-33.8921863\MP4SDQ=-33.8942155\CCSD=-33.8952668\CCSD(T)=-33
 Normal termination of Gaussian 16 at Sun Dec 10 06:38:16 2023.
