 Gaussian 16, Revision A.03,
 Gaussian 16:  ES64L-G16RevA.03 25-Dec-2016

 ------------------
 #p CCSD(T)/CEP-31G
 ------------------

 ------------
 H2O_H2O_3272
 ------------
 Symbolic Z-matrix:
 Charge =  0 Multiplicity = 1

                         Standard orientation:
 ---------------------------------------------------------------------
 Center     Atomic      Atomic             Coordinates (Angstroms)
 Number     Number       Type             X           Y           Z
 ---------------------------------------------------------------------
      1          8           0       -0.019856    2.401873    0.000000
      2          1           0       -0.017180    1.419275    0.000000
      3          1           0        0.908766    2.723069    0.000000
      4          8           0       -0.019856   -2.234767    0.000000
      5          1           0       -0.993698   -2.365674    0.000000
      6          1           0        0.419802   -3.113520    0.000000
 ---------------------------------------------------------------------

 SCF Done:  E(RHF) =  -33.6548636167     A.U. after   11 cycles
 E2 =    -0.2282835470D+00 EUMP2 =    -0.33883147163685D+02
 CCSD(T)
 CCSD(T)= -0.33900065347D+02

 The electronic state is 1-A'.
 Alpha  occ. eigenvalues --   -1.36584  -1.34329  -0.72232  -0.69969  -0.56493
 Alpha  occ. eigenvalues --   -0.54160  -0.51199  -0.48951
 Alpha virt. eigenvalues --    0.18938   0.21926   0.29561   0.32043   0.79365
 Alpha virt. eigenvalues --    0.81540   0.82267   0.84407   0.85506   0.87683
 Alpha virt. eigenvalues --    1.16418   1.18919   1.20816   1.24647   2.56392

 Mulliken charges:
               1
     1  O   -0.753181
     2  H    0.383899
     3  H    0.368871
     4  O   -0.751824
     5  H    0.375936
     6  H    0.376299
 Sum of Mulliken charges =   0.00000

 Dipole moment (field-independent basis, Debye):
    X=              0.9058    Y=             -3.9666    Z=              0.0000  Tot=              4.0687
 Quadrupole moment (field-independent basis, Debye-Ang):
   XX=             -9.6749   YY=             -7.0631   ZZ=            -14.9946
   XY=              8.1410   XZ=              0.0000   YZ=              0.0000

 773\MP4DQ=-33.8944305\MP4SDQ=-33.8964603\CCSD=-33.8975039\CCSD(T)=-33.
 Normal termination of Gaussian 16 at Sun Dec 10 06:31:58 2023.
