 Gaussian 16, Revision A.03,
 Gaussian 16:  ES64L-G16RevA.03 25-Dec-2016

 ------------------
 #p CCSD(T)/CEP-31G
 ------------------

 -----------
 H2O_H2O_150
 -----------
 Symbolic Z-matrix:
 Charge =  0 Multiplicity = 1

                         Standard orientation:
 ---------------------------------------------------------------------
 Center     Atomic      Atomic             Coordinates (Angstroms)
 Number     Number       Type             X           Y           Z
 ---------------------------------------------------------------------
      1          8           0        0.092949   -1.146703    0.000000
      2          1           0        0.092949   -0.164102    0.000000
      3          1           0       -0.836544   -1.465370    0.000000
      4          8           0        0.092949    1.013916    0.000000
      5          1           0        0.092950    1.996518    0.000000
      6          1           0       -0.836544    0.695250    0.000000
 ---------------------------------------------------------------------

 SCF Done:  E(RHF) =  -33.5801195341     A.U. after   11 cycles
 E2 =    -0.2288672607D+00 EUMP2 =    -0.33808986794762D+02
 CCSD(T)
 CCSD(T)= -0.33824575953D+02

 The electronic state is 1-A'.
 Alpha  occ. eigenvalues --   -1.46373  -1.30223  -0.84881  -0.70270  -0.58236
 Alpha  occ. eigenvalues --   -0.57398  -0.48331  -0.44313
 Alpha virt. eigenvalues --    0.16060   0.22953   0.29622   0.58675   0.72893
 Alpha virt. eigenvalues --    0.76409   0.89165   0.89626   0.95332   1.10923
 Alpha virt. eigenvalues --    1.11649   1.22402   1.26437   1.49718   2.87698

 Mulliken charges:
               1
     1  O   -0.654906
     2  H    0.199421
     3  H    0.309351
     4  O   -0.708915
     5  H    0.481431
     6  H    0.373619
 Sum of Mulliken charges =   0.00000

 Dipole moment (field-independent basis, Debye):
    X=             -3.8866    Y=              4.4417    Z=              0.0000  Tot=              5.9021
 Quadrupole moment (field-independent basis, Debye-Ang):
   XX=            -11.3391   YY=            -10.5161   ZZ=            -14.8910
   XY=              2.0726   XZ=              0.0000   YZ=              0.0000

 93\MP4DQ=-33.8180578\MP4SDQ=-33.8206704\CCSD=-33.8213026\CCSD(T)=-33.8
 Normal termination of Gaussian 16 at Sun Dec 10 06:20:59 2023.
