 Gaussian 16, Revision A.03,
 Gaussian 16:  ES64L-G16RevA.03 25-Dec-2016

 ------------------
 #p CCSD(T)/CEP-31G
 ------------------

 ------------
 H2O_H2O_3426
 ------------
 Symbolic Z-matrix:
 Charge =  0 Multiplicity = 1

                         Standard orientation:
 ---------------------------------------------------------------------
 Center     Atomic      Atomic             Coordinates (Angstroms)
 Number     Number       Type             X           Y           Z
 ---------------------------------------------------------------------
      1          8           0        0.090684   -2.456243    0.000000
      2          1           0        0.090604   -1.473641    0.000000
      3          1           0       -0.838782   -2.774986    0.000000
      4          8           0        0.090684    2.317534    0.000000
      5          1           0        0.154869    3.298037    0.000000
      6          1           0       -0.857640    2.060263    0.000000
 ---------------------------------------------------------------------

 SCF Done:  E(RHF) =  -33.6523724039     A.U. after   11 cycles
 E2 =    -0.2283782398D+00 EUMP2 =    -0.33880750643659D+02
 CCSD(T)
 CCSD(T)= -0.33897738777D+02

 The electronic state is 1-A'.
 Alpha  occ. eigenvalues --   -1.36604  -1.34931  -0.72266  -0.70534  -0.56382
 Alpha  occ. eigenvalues --   -0.54667  -0.51179  -0.49503
 Alpha virt. eigenvalues --    0.18434   0.21477   0.29451   0.31278   0.79400
 Alpha virt. eigenvalues --    0.81033   0.82325   0.84025   0.85386   0.87452
 Alpha virt. eigenvalues --    1.16094   1.18279   1.20778   1.23664   2.55802

 Mulliken charges:
               1
     1  O   -0.743529
     2  H    0.378064
     3  H    0.365303
     4  O   -0.744133
     5  H    0.377222
     6  H    0.367073
 Sum of Mulliken charges =   0.00000

 Dipole moment (field-independent basis, Debye):
    X=             -4.1567    Y=              3.2902    Z=              0.0000  Tot=              5.3013
 Quadrupole moment (field-independent basis, Debye-Ang):
   XX=            -11.1343   YY=             -9.1286   ZZ=            -14.9887
   XY=              2.5956   XZ=              0.0000   YZ=              0.0000

 \MP4DQ=-33.8920902\MP4SDQ=-33.8941218\CCSD=-33.8951721\CCSD(T)=-33.897
 Normal termination of Gaussian 16 at Sun Dec 10 06:34:42 2023.
