 Gaussian 16, Revision A.03,
 Gaussian 16:  ES64L-G16RevA.03 25-Dec-2016

 ------------------
 #p CCSD(T)/CEP-31G
 ------------------

 -----------
 H2O_H2O_373
 -----------
 Symbolic Z-matrix:
 Charge =  0 Multiplicity = 1

                         Standard orientation:
 ---------------------------------------------------------------------
 Center     Atomic      Atomic             Coordinates (Angstroms)
 Number     Number       Type             X           Y           Z
 ---------------------------------------------------------------------
      1          8           0        0.016852   -1.243074    0.000000
      2          1           0        0.011276   -0.260489    0.000000
      3          1           0       -0.910817   -1.567010    0.000000
      4          8           0        0.016852    1.079777    0.000000
      5          1           0        0.996970    1.149604    0.000000
      6          1           0       -0.367063    1.984273    0.000000
 ---------------------------------------------------------------------

 SCF Done:  E(RHF) =  -33.6399357729     A.U. after   11 cycles
 E2 =    -0.2277827934D+00 EUMP2 =    -0.33867718566313D+02
 CCSD(T)
 CCSD(T)= -0.33883214467D+02

 The electronic state is 1-A'.
 Alpha  occ. eigenvalues --   -1.42388  -1.28934  -0.79136  -0.70908  -0.58304
 Alpha  occ. eigenvalues --   -0.56442  -0.47310  -0.43369
 Alpha virt. eigenvalues --    0.17182   0.25854   0.28928   0.57150   0.73655
 Alpha virt. eigenvalues --    0.75464   0.88147   0.89860   0.93554   1.04131
 Alpha virt. eigenvalues --    1.14830   1.21474   1.28840   1.39644   2.80142

 Mulliken charges:
               1
     1  O   -0.754982
     2  H    0.354730
     3  H    0.342241
     4  O   -0.835835
     5  H    0.421514
     6  H    0.472332
 Sum of Mulliken charges =   0.00000

 Dipole moment (field-independent basis, Debye):
    X=             -0.7468    Y=              4.8958    Z=              0.0000  Tot=              4.9524
 Quadrupole moment (field-independent basis, Debye-Ang):
   XX=             -9.6712   YY=             -9.8709   ZZ=            -14.9868
   XY=              4.1288   XZ=              0.0000   YZ=              0.0000

 31\MP4DQ=-33.8771712\MP4SDQ=-33.8794215\CCSD=-33.8801944\CCSD(T)=-33.8
 Normal termination of Gaussian 16 at Sun Dec 10 06:25:24 2023.
