 Gaussian 16, Revision A.03,
 Gaussian 16:  ES64L-G16RevA.03 25-Dec-2016

 ------------------
 #p CCSD(T)/CEP-31G
 ------------------

 -----------
 H2O_H2O_502
 -----------
 Symbolic Z-matrix:
 Charge =  0 Multiplicity = 1

                         Standard orientation:
 ---------------------------------------------------------------------
 Center     Atomic      Atomic             Coordinates (Angstroms)
 Number     Number       Type             X           Y           Z
 ---------------------------------------------------------------------
      1          8           0        0.088243   -1.292561    0.000000
      2          1           0        0.087915   -0.309959    0.000000
      3          1           0       -0.841144   -1.611537    0.000000
      4          8           0        0.088243    1.148268    0.000000
      5          1           0        0.216173    2.122507    0.000000
      6          1           0       -0.874828    0.953330    0.000000
 ---------------------------------------------------------------------

 SCF Done:  E(RHF) =  -33.6359532400     A.U. after   11 cycles
 E2 =    -0.2288884977D+00 EUMP2 =    -0.33864841737722D+02
 CCSD(T)
 CCSD(T)= -0.33881176995D+02

 The electronic state is 1-A'.
 Alpha  occ. eigenvalues --   -1.41787  -1.31382  -0.79184  -0.69011  -0.58990
 Alpha  occ. eigenvalues --   -0.55700  -0.50332  -0.45702
 Alpha virt. eigenvalues --    0.16394   0.24806   0.28227   0.52359   0.73574
 Alpha virt. eigenvalues --    0.77129   0.85921   0.88112   0.94833   1.10581
 Alpha virt. eigenvalues --    1.13741   1.23856   1.30156   1.41955   2.68316

 Mulliken charges:
               1
     1  O   -0.709531
     2  H    0.333945
     3  H    0.327719
     4  O   -0.789587
     5  H    0.461191
     6  H    0.376263
 Sum of Mulliken charges =  -0.00000

 Dipole moment (field-independent basis, Debye):
    X=             -3.7850    Y=              4.2596    Z=              0.0000  Tot=              5.6983
 Quadrupole moment (field-independent basis, Debye-Ang):
   XX=            -11.0451   YY=             -9.7704   ZZ=            -14.9725
   XY=              2.5337   XZ=              0.0000   YZ=              0.0000

 MP4DQ=-33.8749901\MP4SDQ=-33.8773614\CCSD=-33.8781957\CCSD(T)=-33.8811
 Normal termination of Gaussian 16 at Sun Dec 10 06:27:58 2023.
