 Gaussian 16, Revision A.03,
 Gaussian 16:  ES64L-G16RevA.03 25-Dec-2016

 ------------------
 #p CCSD(T)/CEP-31G
 ------------------

 ------------
 H2O_H2O_3238
 ------------
 Symbolic Z-matrix:
 Charge =  0 Multiplicity = 1

                         Standard orientation:
 ---------------------------------------------------------------------
 Center     Atomic      Atomic             Coordinates (Angstroms)
 Number     Number       Type             X           Y           Z
 ---------------------------------------------------------------------
      1          8           0        0.052296    2.398841    0.000000
      2          1           0        0.050801    1.416241    0.000000
      3          1           0       -0.876711    2.718921    0.000000
      4          8           0        0.052296   -2.218948    0.000000
      5          1           0        0.790069   -2.867945    0.000000
      6          1           0       -0.800890   -2.706369    0.000000
 ---------------------------------------------------------------------

 SCF Done:  E(RHF) =  -33.6546897344     A.U. after   11 cycles
 E2 =    -0.2283129332D+00 EUMP2 =    -0.33883002667650D+02
 CCSD(T)
 CCSD(T)= -0.33899922618D+02

 The electronic state is 1-A'.
 Alpha  occ. eigenvalues --   -1.36619  -1.34156  -0.72265  -0.69775  -0.56524
 Alpha  occ. eigenvalues --   -0.53967  -0.51232  -0.48768
 Alpha virt. eigenvalues --    0.19019   0.22026   0.29553   0.32180   0.79336
 Alpha virt. eigenvalues --    0.81720   0.82316   0.84751   0.85310   0.87916
 Alpha virt. eigenvalues --    1.16404   1.19042   1.20827   1.24596   2.56276

 Mulliken charges:
               1
     1  O   -0.752463
     2  H    0.386333
     3  H    0.365614
     4  O   -0.750810
     5  H    0.377838
     6  H    0.373488
 Sum of Mulliken charges =   0.00000

 Dipole moment (field-independent basis, Debye):
    X=             -2.3883    Y=             -4.2794    Z=              0.0000  Tot=              4.9008
 Quadrupole moment (field-independent basis, Debye-Ang):
   XX=             -9.5131   YY=             -6.2828   ZZ=            -14.9944
   XY=             -5.8512   XZ=              0.0000   YZ=              0.0000

 \MP4DQ=-33.8942861\MP4SDQ=-33.8963176\CCSD=-33.8973606\CCSD(T)=-33.899
 Normal termination of Gaussian 16 at Sun Dec 10 06:31:21 2023.
