 Gaussian 16, Revision A.03,
 Gaussian 16:  ES64L-G16RevA.03 25-Dec-2016

 ------------------
 #p CCSD(T)/CEP-31G
 ------------------

 ------------
 H2O_H2O_1642
 ------------
 Symbolic Z-matrix:
 Charge =  0 Multiplicity = 1

                         Standard orientation:
 ---------------------------------------------------------------------
 Center     Atomic      Atomic             Coordinates (Angstroms)
 Number     Number       Type             X           Y           Z
 ---------------------------------------------------------------------
      1          8           0        0.037513    1.760109    0.000000
      2          1           0        0.034694    0.777511    0.000000
      3          1           0       -0.891061    2.081441    0.000000
      4          8           0        0.037513   -1.581201   -0.000000
      5          1           0        0.917531   -2.018322   -0.000000
      6          1           0       -0.661379   -2.271893   -0.000000
 ---------------------------------------------------------------------

 SCF Done:  E(RHF) =  -33.6607333045     A.U. after   11 cycles
 E2 =    -0.2287420910D+00 EUMP2 =    -0.33889475395541D+02
 CCSD(T)
 CCSD(T)= -0.33906276592D+02

 The electronic state is 1-A'.
 Alpha  occ. eigenvalues --   -1.37750  -1.32549  -0.73396  -0.68333  -0.58192
 Alpha  occ. eigenvalues --   -0.52444  -0.52373  -0.47224
 Alpha virt. eigenvalues --    0.18013   0.24869   0.28757   0.37820   0.77519
 Alpha virt. eigenvalues --    0.81181   0.83880   0.86338   0.89930   0.95716
 Alpha virt. eigenvalues --    1.15400   1.19592   1.21145   1.33978   2.50099

 Mulliken charges:
               1
     1  O   -0.778666
     2  H    0.417525
     3  H    0.359115
     4  O   -0.776001
     5  H    0.389851
     6  H    0.388176
 Sum of Mulliken charges =  -0.00000

 Dipole moment (field-independent basis, Debye):
    X=             -1.6798    Y=             -4.4790    Z=             -0.0000  Tot=              4.7836
 Quadrupole moment (field-independent basis, Debye-Ang):
   XX=             -9.3906   YY=             -7.9067   ZZ=            -15.0072
   XY=             -5.1717   XZ=             -0.0000   YZ=              0.0000

 58\MP4DQ=-33.9005264\MP4SDQ=-33.9026107\CCSD=-33.9036209\CCSD(T)=-33.9
 Normal termination of Gaussian 16 at Sun Dec 10 06:49:54 2023.
