 Gaussian 16, Revision A.03,
 Gaussian 16:  ES64L-G16RevA.03 25-Dec-2016

 ------------------
 #p CCSD(T)/CEP-31G
 ------------------

 ------------
 H2O_H2O_1208
 ------------
 Symbolic Z-matrix:
 Charge =  0 Multiplicity = 1

                         Standard orientation:
 ---------------------------------------------------------------------
 Center     Atomic      Atomic             Coordinates (Angstroms)
 Number     Number       Type             X           Y           Z
 ---------------------------------------------------------------------
      1          8           0        0.070236    1.585841    0.000000
      2          1           0        0.068949    0.603241    0.000000
      3          1           0       -0.858839    1.905724   -0.000000
      4          8           0        0.070236   -1.415658    0.000000
      5          1           0        0.560422   -2.267259    0.000000
      6          1           0       -0.894309   -1.603168   -0.000000
 ---------------------------------------------------------------------

 SCF Done:  E(RHF) =  -33.6595936926     A.U. after   11 cycles
 E2 =    -0.2290116554D+00 EUMP2 =    -0.33888605348030D+02
 CCSD(T)
 CCSD(T)= -0.33905359878D+02

 The electronic state is 1-A'.
 Alpha  occ. eigenvalues --   -1.38551  -1.32182  -0.74314  -0.68286  -0.58865
 Alpha  occ. eigenvalues --   -0.53207  -0.51800  -0.46784
 Alpha virt. eigenvalues --    0.17412   0.25622   0.28012   0.41775   0.76142
 Alpha virt. eigenvalues --    0.79195   0.85218   0.85351   0.92571   1.06353
 Alpha virt. eigenvalues --    1.15237   1.18040   1.21691   1.36363   2.50620

 Mulliken charges:
               1
     1  O   -0.772961
     2  H    0.422997
     3  H    0.347539
     4  O   -0.792011
     5  H    0.413570
     6  H    0.380865
 Sum of Mulliken charges =   0.00000

 Dipole moment (field-independent basis, Debye):
    X=             -3.0995    Y=             -4.4151    Z=             -0.0000  Tot=              5.3944
 Quadrupole moment (field-independent basis, Debye-Ang):
   XX=            -10.0332   YY=             -8.5876   ZZ=            -15.0067
   XY=             -3.7086   XZ=              0.0000   YZ=             -0.0000

 102\MP4DQ=-33.899506\MP4SDQ=-33.9016426\CCSD=-33.902625\CCSD(T)=-33.90
 Normal termination of Gaussian 16 at Sun Dec 10 06:41:17 2023.
