 Gaussian 16, Revision A.03,
 Gaussian 16:  ES64L-G16RevA.03 25-Dec-2016

 ------------------
 #p CCSD(T)/CEP-31G
 ------------------

 -----------
 H2O_H2O_776
 -----------
 Symbolic Z-matrix:
 Charge =  0 Multiplicity = 1

                         Standard orientation:
 ---------------------------------------------------------------------
 Center     Atomic      Atomic             Coordinates (Angstroms)
 Number     Number       Type             X           Y           Z
 ---------------------------------------------------------------------
      1          8           0        0.090689   -1.399212    0.000000
      2          1           0        0.090544   -0.416611    0.000000
      3          1           0       -0.838757   -1.718015    0.000000
      4          8           0        0.090689    1.260515    0.000000
      5          1           0        0.154810    2.241022    0.000000
      6          1           0       -0.857619    1.003183    0.000000
 ---------------------------------------------------------------------

 SCF Done:  E(RHF) =  -33.6461616778     A.U. after   11 cycles
 E2 =    -0.2292363895D+00 EUMP2 =    -0.33875398067299D+02
 CCSD(T)
 CCSD(T)= -0.33892181146D+02

 The electronic state is 1-A'.
 Alpha  occ. eigenvalues --   -1.40185  -1.32643  -0.77142  -0.68474  -0.59311
 Alpha  occ. eigenvalues --   -0.54451  -0.51955  -0.47059
 Alpha virt. eigenvalues --    0.16507   0.25190   0.27707   0.46658   0.74306
 Alpha virt. eigenvalues --    0.78545   0.85036   0.86453   0.92498   1.11660
 Alpha virt. eigenvalues --    1.14067   1.23580   1.33949   1.36438   2.55105

 Mulliken charges:
               1
     1  O   -0.726883
     2  H    0.360776
     3  H    0.338726
     4  O   -0.775860
     5  H    0.435188
     6  H    0.368053
 Sum of Mulliken charges =   0.00000

 Dipole moment (field-independent basis, Debye):
    X=             -3.9717    Y=              3.8685    Z=              0.0000  Tot=              5.5444
 Quadrupole moment (field-independent basis, Debye-Ang):
   XX=            -11.2126   YY=             -9.6087   ZZ=            -14.9849
   XY=              2.3992   XZ=              0.0000   YZ=              0.0000

 539\MP4DQ=-33.8860962\MP4SDQ=-33.8884\CCSD=-33.8893106\CCSD(T)=-33.892
 Normal termination of Gaussian 16 at Sun Dec 10 06:33:07 2023.
