 Gaussian 16, Revision A.03,
 Gaussian 16:  ES64L-G16RevA.03 25-Dec-2016

 ------------------
 #p CCSD(T)/CEP-31G
 ------------------

 -----------
 H2O_H2O_533
 -----------
 Symbolic Z-matrix:
 Charge =  0 Multiplicity = 1

                         Standard orientation:
 ---------------------------------------------------------------------
 Center     Atomic      Atomic             Coordinates (Angstroms)
 Number     Number       Type             X           Y           Z
 ---------------------------------------------------------------------
      1          8           0        0.070260    1.316579    0.000000
      2          1           0        0.068692    0.333979    0.000000
      3          1           0       -0.858723    1.636728   -0.000000
      4          8           0        0.070260   -1.146436    0.000000
      5          1           0        0.560203   -1.998177    0.000000
      6          1           0       -0.894338   -1.333671   -0.000000
 ---------------------------------------------------------------------

 SCF Done:  E(RHF) =  -33.6498281678     A.U. after   11 cycles
 E2 =    -0.2288705640D+00 EUMP2 =    -0.33878698731773D+02
 CCSD(T)
 CCSD(T)= -0.33894597863D+02

 The electronic state is 1-A'.
 Alpha  occ. eigenvalues --   -1.41157  -1.30013  -0.77135  -0.70510  -0.58450
 Alpha  occ. eigenvalues --   -0.55563  -0.48877  -0.44418
 Alpha virt. eigenvalues --    0.16783   0.26094   0.28130   0.53421   0.73923
 Alpha virt. eigenvalues --    0.75445   0.85627   0.88796   0.96506   1.06498
 Alpha virt. eigenvalues --    1.15480   1.20806   1.23622   1.35885   2.70435

 Mulliken charges:
               1
     1  O   -0.753778
     2  H    0.405436
     3  H    0.326904
     4  O   -0.833059
     5  H    0.457422
     6  H    0.397075
 Sum of Mulliken charges =   0.00000

 Dipole moment (field-independent basis, Debye):
    X=             -2.9602    Y=             -4.8570    Z=             -0.0000  Tot=              5.6880
 Quadrupole moment (field-independent basis, Debye-Ang):
   XX=            -10.0139   YY=             -9.5917   ZZ=            -14.9982
   XY=             -3.4031   XZ=              0.0000   YZ=             -0.0000

 194\MP4DQ=-33.8885543\MP4SDQ=-33.8908013\CCSD=-33.8916247\CCSD(T)=-33.
 Normal termination of Gaussian 16 at Sun Dec 10 06:28:33 2023.
