 Gaussian 16, Revision A.03,
 Gaussian 16:  ES64L-G16RevA.03 25-Dec-2016

 ------------------
 #p CCSD(T)/CEP-31G
 ------------------

 -----------
 H2O_H2O_256
 -----------
 Symbolic Z-matrix:
 Charge =  0 Multiplicity = 1

                         Standard orientation:
 ---------------------------------------------------------------------
 Center     Atomic      Atomic             Coordinates (Angstroms)
 Number     Number       Type             X           Y           Z
 ---------------------------------------------------------------------
      1          8           0        0.076810   -1.203068    0.000000
      2          1           0        0.075584   -0.220467    0.000000
      3          1           0       -0.852285   -1.522893    0.000000
      4          8           0        0.076810    1.039956    0.000000
      5          1           0        0.451702    1.948230    0.000000
      6          1           0       -0.903954    1.100025    0.000000
 ---------------------------------------------------------------------

 SCF Done:  E(RHF) =  -33.6224498089     A.U. after   11 cycles
 E2 =    -0.2283530562D+00 EUMP2 =    -0.33850802865120D+02
 CCSD(T)
 CCSD(T)= -0.33866203368D+02

 The electronic state is 1-A'.
 Alpha  occ. eigenvalues --   -1.43798  -1.29009  -0.80658  -0.72508  -0.57378
 Alpha  occ. eigenvalues --   -0.56841  -0.47145  -0.43177
 Alpha virt. eigenvalues --    0.16267   0.24586   0.29293   0.58666   0.73319
 Alpha virt. eigenvalues --    0.75000   0.87498   0.90161   0.96738   1.07575
 Alpha virt. eigenvalues --    1.13164   1.23220   1.25113   1.37446   2.90945

 Mulliken charges:
               1
     1  O   -0.720086
     2  H    0.338107
     3  H    0.311720
     4  O   -0.816785
     5  H    0.486452
     6  H    0.400592
 Sum of Mulliken charges =  -0.00000

 Dipole moment (field-independent basis, Debye):
    X=             -3.1616    Y=              5.0418    Z=              0.0000  Tot=              5.9511
 Quadrupole moment (field-independent basis, Debye-Ang):
   XX=            -10.3145   YY=            -10.1147   ZZ=            -14.9532
   XY=              3.0383   XZ=              0.0000   YZ=              0.0000

 704\MP4DQ=-33.85998\MP4SDQ=-33.8623634\CCSD=-33.8630848\CCSD(T)=-33.86
 Normal termination of Gaussian 16 at Sun Dec 10 06:23:06 2023.
