 Gaussian 16, Revision A.03,
 Gaussian 16:  ES64L-G16RevA.03 25-Dec-2016

 ------------------
 #p CCSD(T)/CEP-31G
 ------------------

 ------------
 H2O_H2O_4337
 ------------
 Symbolic Z-matrix:
 Charge =  0 Multiplicity = 1

                         Standard orientation:
 ---------------------------------------------------------------------
 Center     Atomic      Atomic             Coordinates (Angstroms)
 Number     Number       Type             X           Y           Z
 ---------------------------------------------------------------------
      1          8           0        0.055968    2.837084    0.000000
      2          1           0        0.054826    1.854484    0.000000
      3          1           0       -0.873155    3.156831    0.000000
      4          8           0        0.055968   -2.658149   -0.000000
      5          1           0        0.749964   -3.353759   -0.000000
      6          1           0       -0.827116   -3.089042   -0.000000
 ---------------------------------------------------------------------

 SCF Done:  E(RHF) =  -33.6532941401     A.U. after   11 cycles
 E2 =    -0.2283035443D+00 EUMP2 =    -0.33881597684428D+02
 CCSD(T)
 CCSD(T)= -0.33898555147D+02

 The electronic state is 1-A'.
 Alpha  occ. eigenvalues --   -1.36295  -1.34632  -0.71936  -0.70258  -0.56117
 Alpha  occ. eigenvalues --   -0.54412  -0.50888  -0.49227
 Alpha virt. eigenvalues --    0.19534   0.21283   0.29806   0.31561   0.79667
 Alpha virt. eigenvalues --    0.81290   0.82509   0.84289   0.85700   0.87418
 Alpha virt. eigenvalues --    1.16672   1.18338   1.21113   1.22871   2.56640

 Mulliken charges:
               1
     1  O   -0.747008
     2  H    0.379420
     3  H    0.367567
     4  O   -0.746520
     5  H    0.374856
     6  H    0.371685
 Sum of Mulliken charges =   0.00000

 Dipole moment (field-independent basis, Debye):
    X=             -2.5697    Y=             -4.2023    Z=             -0.0000  Tot=              4.9257
 Quadrupole moment (field-independent basis, Debye-Ang):
   XX=             -9.5849   YY=             -5.3818   ZZ=            -14.9916
   XY=             -6.3546   XZ=             -0.0000   YZ=              0.0000

 743\MP4DQ=-33.8929214\MP4SDQ=-33.8949455\CCSD=-33.8959975\CCSD(T)=-33.
 Normal termination of Gaussian 16 at Sun Dec 10 06:51:04 2023.
