 Gaussian 16, Revision A.03,
 Gaussian 16:  ES64L-G16RevA.03 25-Dec-2016

 ------------------
 #p CCSD(T)/CEP-31G
 ------------------

 -----------
 H2O_H2O_922
 -----------
 Symbolic Z-matrix:
 Charge =  0 Multiplicity = 1

                         Standard orientation:
 ---------------------------------------------------------------------
 Center     Atomic      Atomic             Coordinates (Angstroms)
 Number     Number       Type             X           Y           Z
 ---------------------------------------------------------------------
      1          8           0       -0.020010    1.464480    0.000000
      2          1           0       -0.015519    0.481889    0.000000
      3          1           0        0.908017    1.787392    0.000000
      4          8           0       -0.020010   -1.297448    0.000000
      5          1           0       -0.993609   -1.430154    0.000000
      6          1           0        0.421271   -2.175387    0.000000
 ---------------------------------------------------------------------

 SCF Done:  E(RHF) =  -33.6615966262     A.U. after   11 cycles
 E2 =    -0.2286759887D+00 EUMP2 =    -0.33890272614823D+02
 CCSD(T)
 CCSD(T)= -0.33906730058D+02

 The electronic state is 1-A'.
 Alpha  occ. eigenvalues --   -1.39222  -1.31195  -0.75128  -0.68233  -0.59495
 Alpha  occ. eigenvalues --   -0.53893  -0.50680  -0.45855
 Alpha virt. eigenvalues --    0.17577   0.26753   0.27746   0.46313   0.75153
 Alpha virt. eigenvalues --    0.77489   0.86424   0.86751   0.92209   1.07615
 Alpha virt. eigenvalues --    1.16128   1.20004   1.23893   1.36890   2.55310

 Mulliken charges:
               1
     1  O   -0.781749
     2  H    0.416697
     3  H    0.355837
     4  O   -0.817829
     5  H    0.400405
     6  H    0.426639
 Sum of Mulliken charges =   0.00000

 Dipole moment (field-independent basis, Debye):
    X=              0.8955    Y=             -4.4760    Z=              0.0000  Tot=              4.5647
 Quadrupole moment (field-independent basis, Debye-Ang):
   XX=             -9.6300   YY=             -8.9680   ZZ=            -15.0159
   XY=              4.8604   XZ=              0.0000   YZ=              0.0000

 7\MP4DQ=-33.9008506\MP4SDQ=-33.902997\CCSD=-33.9039338\CCSD(T)=-33.906
 Normal termination of Gaussian 16 at Sun Dec 10 06:35:51 2023.
