 Gaussian 16, Revision A.03,
 Gaussian 16:  ES64L-G16RevA.03 25-Dec-2016

 ------------------
 #p CCSD(T)/CEP-31G
 ------------------

 ------------
 H2O_H2O_4557
 ------------
 Symbolic Z-matrix:
 Charge =  0 Multiplicity = 1

                         Standard orientation:
 ---------------------------------------------------------------------
 Center     Atomic      Atomic             Coordinates (Angstroms)
 Number     Number       Type             X           Y           Z
 ---------------------------------------------------------------------
      1          8           0        0.073523    2.920327    0.000000
      2          1           0        0.072942    1.937726    0.000000
      3          1           0       -0.855781    3.239543    0.000000
      4          8           0        0.073523   -2.753364   -0.000000
      5          1           0        0.507596   -3.634889   -0.000000
      6          1           0       -0.901131   -2.878088   -0.000000
 ---------------------------------------------------------------------

 SCF Done:  E(RHF) =  -33.6527393002     A.U. after   11 cycles
 E2 =    -0.2283261608D+00 EUMP2 =    -0.33881065461047D+02
 CCSD(T)
 CCSD(T)= -0.33898039045D+02

 The electronic state is 1-A'.
 Alpha  occ. eigenvalues --   -1.36266  -1.34835  -0.71909  -0.70457  -0.56057
 Alpha  occ. eigenvalues --   -0.54595  -0.50851  -0.49419
 Alpha virt. eigenvalues --    0.19536   0.21042   0.29802   0.31307   0.79706
 Alpha virt. eigenvalues --    0.81108   0.82613   0.84113   0.85741   0.87263
 Alpha virt. eigenvalues --    1.16678   1.18107   1.21120   1.22623   2.56659

 Mulliken charges:
               1
     1  O   -0.744869
     2  H    0.377468
     3  H    0.367394
     4  O   -0.744792
     5  H    0.374597
     6  H    0.370202
 Sum of Mulliken charges =  -0.00000

 Dipole moment (field-independent basis, Debye):
    X=             -3.3801    Y=             -3.9168    Z=             -0.0000  Tot=              5.1736
 Quadrupole moment (field-independent basis, Debye-Ang):
   XX=            -10.1657   YY=             -6.2770   ZZ=            -14.9903
   XY=             -4.7665   XZ=             -0.0000   YZ=              0.0000

 567\MP4DQ=-33.8924013\MP4SDQ=-33.8944266\CCSD=-33.8954799\CCSD(T)=-33.
 Normal termination of Gaussian 16 at Sun Dec 10 06:55:01 2023.
