 Gaussian 16, Revision A.03,
 Gaussian 16:  ES64L-G16RevA.03 25-Dec-2016

 ------------------
 #p CCSD(T)/CEP-31G
 ------------------

 ------------
 H2O_H2O_3925
 ------------
 Symbolic Z-matrix:
 Charge =  0 Multiplicity = 1

                         Standard orientation:
 ---------------------------------------------------------------------
 Center     Atomic      Atomic             Coordinates (Angstroms)
 Number     Number       Type             X           Y           Z
 ---------------------------------------------------------------------
      1          8           0        0.092949   -2.652465    0.000000
      2          1           0        0.092949   -1.669864    0.000000
      3          1           0       -0.836544   -2.971132    0.000000
      4          8           0        0.092949    2.519678    0.000000
      5          1           0        0.092950    3.502279    0.000000
      6          1           0       -0.836543    2.201011    0.000000
 ---------------------------------------------------------------------

 SCF Done:  E(RHF) =  -33.6520365598     A.U. after   11 cycles
 E2 =    -0.2283679742D+00 EUMP2 =    -0.33880404533973D+02
 CCSD(T)
 CCSD(T)= -0.33897400902D+02

 The electronic state is 1-A'.
 Alpha  occ. eigenvalues --   -1.36447  -1.35113  -0.72102  -0.70724  -0.56206
 Alpha  occ. eigenvalues --   -0.54844  -0.51019  -0.49682
 Alpha virt. eigenvalues --    0.18951   0.20999   0.29569   0.31023   0.79553
 Alpha virt. eigenvalues --    0.80860   0.82477   0.83874   0.85521   0.87158
 Alpha virt. eigenvalues --    1.16345   1.17908   1.20899   1.22604   2.55864

 Mulliken charges:
               1
     1  O   -0.742178
     2  H    0.375632
     3  H    0.366512
     4  O   -0.742706
     5  H    0.375642
     6  H    0.367098
 Sum of Mulliken charges =   0.00000

 Dipole moment (field-independent basis, Debye):
    X=             -4.2696    Y=              3.1314    Z=              0.0000  Tot=              5.2948
 Quadrupole moment (field-independent basis, Debye-Ang):
   XX=            -11.2852   YY=             -9.6255   ZZ=            -14.9882
   XY=              2.3045   XZ=              0.0000   YZ=              0.0000

 0145\MP4DQ=-33.8917552\MP4SDQ=-33.8937837\CCSD=-33.8948373\CCSD(T)=-33
 Normal termination of Gaussian 16 at Sun Dec 10 06:43:38 2023.
