 Gaussian 16, Revision A.03,
 Gaussian 16:  ES64L-G16RevA.03 25-Dec-2016

 ------------------
 #p CCSD(T)/CEP-31G
 ------------------

 ------------
 H2O_H2O_1138
 ------------
 Symbolic Z-matrix:
 Charge =  0 Multiplicity = 1

                         Standard orientation:
 ---------------------------------------------------------------------
 Center     Atomic      Atomic             Coordinates (Angstroms)
 Number     Number       Type             X           Y           Z
 ---------------------------------------------------------------------
      1          8           0        0.052374    1.561155    0.000000
      2          1           0        0.050028    0.578557    0.000000
      3          1           0       -0.876356    1.882039    0.000000
      4          8           0        0.052374   -1.381352   -0.000000
      5          1           0        0.789584   -2.030988   -0.000000
      6          1           0       -0.801234   -1.868034   -0.000000
 ---------------------------------------------------------------------

 SCF Done:  E(RHF) =  -33.6624759804     A.U. after   11 cycles
 E2 =    -0.2290746579D+00 EUMP2 =    -0.33891550638294D+02
 CCSD(T)
 CCSD(T)= -0.33908114452D+02

 The electronic state is 1-A'.
 Alpha  occ. eigenvalues --   -1.38646  -1.31530  -0.74248  -0.68091  -0.59110
 Alpha  occ. eigenvalues --   -0.53372  -0.51150  -0.46172
 Alpha virt. eigenvalues --    0.17654   0.26131   0.28115   0.43470   0.75958
 Alpha virt. eigenvalues --    0.78178   0.85614   0.85843   0.94291   1.00389
 Alpha virt. eigenvalues --    1.14898   1.19280   1.21891   1.34903   2.51110

 Mulliken charges:
               1
     1  O   -0.783647
     2  H    0.434097
     3  H    0.348485
     4  O   -0.800481
     5  H    0.408649
     6  H    0.392896
 Sum of Mulliken charges =   0.00000

 Dipole moment (field-independent basis, Debye):
    X=             -2.3005    Y=             -4.6653    Z=             -0.0000  Tot=              5.2017
 Quadrupole moment (field-independent basis, Debye-Ang):
   XX=             -9.4806   YY=             -8.5768   ZZ=            -15.0147
   XY=             -4.2469   XZ=             -0.0000   YZ=              0.0000

 48\MP4DQ=-33.9022835\MP4SDQ=-33.9043932\CCSD=-33.9053529\CCSD(T)=-33.9
 Normal termination of Gaussian 16 at Sun Dec 10 06:39:55 2023.
