 Gaussian 16, Revision A.03,
 Gaussian 16:  ES64L-G16RevA.03 25-Dec-2016

 ------------------
 #p CCSD(T)/CEP-31G
 ------------------

 ------------
 H2O_H2O_3829
 ------------
 Symbolic Z-matrix:
 Charge =  0 Multiplicity = 1

                         Standard orientation:
 ---------------------------------------------------------------------
 Center     Atomic      Atomic             Coordinates (Angstroms)
 Number     Number       Type             X           Y           Z
 ---------------------------------------------------------------------
      1          8           0        0.082800    2.624385    0.000000
      2          1           0        0.082462    1.641783    0.000000
      3          1           0       -0.846583    2.943371    0.000000
      4          8           0        0.082800   -2.469860   -0.000000
      5          1           0        0.336790   -3.419067   -0.000000
      6          1           0       -0.897475   -2.402285   -0.000000
 ---------------------------------------------------------------------

 SCF Done:  E(RHF) =  -33.6527353183     A.U. after   11 cycles
 E2 =    -0.2283388985D+00 EUMP2 =    -0.33881074216842D+02
 CCSD(T)
 CCSD(T)= -0.33898048911D+02

 The electronic state is 1-A'.
 Alpha  occ. eigenvalues --   -1.36452  -1.34804  -0.72104  -0.70417  -0.56246
 Alpha  occ. eigenvalues --   -0.54557  -0.51035  -0.49385
 Alpha virt. eigenvalues --    0.19149   0.21223   0.29606   0.31370   0.79533
 Alpha virt. eigenvalues --    0.81141   0.82392   0.84156   0.85503   0.87411
 Alpha virt. eigenvalues --    1.16460   1.18206   1.20916   1.22970   2.56367

 Mulliken charges:
               1
     1  O   -0.744890
     2  H    0.378747
     3  H    0.366072
     4  O   -0.745112
     5  H    0.376162
     6  H    0.369021
 Sum of Mulliken charges =   0.00000

 Dipole moment (field-independent basis, Debye):
    X=             -3.7993    Y=             -3.6471    Z=             -0.0000  Tot=              5.2665
 Quadrupole moment (field-independent basis, Debye-Ang):
   XX=            -10.6408   YY=             -7.7467   ZZ=            -14.9900
   XY=             -3.5637   XZ=             -0.0000   YZ=              0.0000

 642\MP4DQ=-33.8924082\MP4SDQ=-33.8944355\CCSD=-33.8954873\CCSD(T)=-33.
 Normal termination of Gaussian 16 at Sun Dec 10 06:41:54 2023.
