 Gaussian 16, Revision A.03,
 Gaussian 16:  ES64L-G16RevA.03 25-Dec-2016

 ------------------
 #p CCSD(T)/CEP-31G
 ------------------

 ------------
 H2O_H2O_1168
 ------------
 Symbolic Z-matrix:
 Charge =  0 Multiplicity = 1

                         Standard orientation:
 ---------------------------------------------------------------------
 Center     Atomic      Atomic             Coordinates (Angstroms)
 Number     Number       Type             X           Y           Z
 ---------------------------------------------------------------------
      1          8           0        0.033896    1.569849    0.000000
      2          1           0        0.030506    0.587254    0.000000
      3          1           0       -0.894492    1.891721    0.000000
      4          8           0        0.033896   -1.392407   -0.000000
      5          1           0        0.940399   -1.771562   -0.000000
      6          1           0       -0.618753   -2.126950   -0.000000
 ---------------------------------------------------------------------

 SCF Done:  E(RHF) =  -33.6631022313     A.U. after   11 cycles
 E2 =    -0.2289313244D+00 EUMP2 =    -0.33892033555704D+02
 CCSD(T)
 CCSD(T)= -0.33908616074D+02

 The electronic state is 1-A'.
 Alpha  occ. eigenvalues --   -1.38546  -1.31581  -0.74182  -0.68041  -0.59117
 Alpha  occ. eigenvalues --   -0.53278  -0.51249  -0.46255
 Alpha virt. eigenvalues --    0.17759   0.26144   0.28207   0.43056   0.76060
 Alpha virt. eigenvalues --    0.78354   0.85710   0.86188   0.92654   1.01981
 Alpha virt. eigenvalues --    1.15302   1.18541   1.22435   1.35177   2.51028

 Mulliken charges:
               1
     1  O   -0.786658
     2  H    0.430395
     3  H    0.354048
     4  O   -0.801004
     5  H    0.398942
     6  H    0.404276
 Sum of Mulliken charges =  -0.00000

 Dipole moment (field-independent basis, Debye):
    X=             -1.5054    Y=             -4.5957    Z=             -0.0000  Tot=              4.8360
 Quadrupole moment (field-independent basis, Debye-Ang):
   XX=             -9.3914   YY=             -8.5475   ZZ=            -15.0157
   XY=             -4.7481   XZ=              0.0000   YZ=             -0.0000

 1014\MP4DQ=-33.9027984\MP4SDQ=-33.904903\CCSD=-33.9058694\CCSD(T)=-33.
 Normal termination of Gaussian 16 at Sun Dec 10 06:40:30 2023.
