 Gaussian 16, Revision A.03,
 Gaussian 16:  ES64L-G16RevA.03 25-Dec-2016

 ------------------
 #p CCSD(T)/CEP-31G
 ------------------

 ------------
 H2O_H2O_4735
 ------------
 Symbolic Z-matrix:
 Charge =  0 Multiplicity = 1

                         Standard orientation:
 ---------------------------------------------------------------------
 Center     Atomic      Atomic             Coordinates (Angstroms)
 Number     Number       Type             X           Y           Z
 ---------------------------------------------------------------------
      1          8           0        0.063214    2.994789   -0.000000
      2          1           0        0.062346    2.012188   -0.000000
      3          1           0       -0.865997    3.314276   -0.000000
      4          8           0        0.063214   -2.819250    0.000000
      5          1           0        0.660695   -3.599327    0.000000
      6          1           0       -0.868471   -3.131451    0.000000
 ---------------------------------------------------------------------

 SCF Done:  E(RHF) =  -33.6529047324     A.U. after   11 cycles
 E2 =    -0.2283179279D+00 EUMP2 =    -0.33881222660297D+02
 CCSD(T)
 CCSD(T)= -0.33898191293D+02

 The electronic state is 1-A'.
 Alpha  occ. eigenvalues --   -1.36224  -1.34783  -0.71864  -0.70409  -0.56023
 Alpha  occ. eigenvalues --   -0.54551  -0.50812  -0.49372
 Alpha virt. eigenvalues --    0.19600   0.21093   0.29856   0.31366   0.79742
 Alpha virt. eigenvalues --    0.81153   0.82641   0.84152   0.85791   0.87285
 Alpha virt. eigenvalues --    1.16727   1.18165   1.21172   1.22664   2.56711

 Mulliken charges:
               1
     1  O   -0.745489
     2  H    0.377646
     3  H    0.367839
     4  O   -0.745227
     5  H    0.374261
     6  H    0.370970
 Sum of Mulliken charges =   0.00000

 Dipole moment (field-independent basis, Debye):
    X=             -2.9065    Y=             -4.1129    Z=              0.0000  Tot=              5.0363
 Quadrupole moment (field-independent basis, Debye-Ang):
   XX=             -9.7750   YY=             -5.3493   ZZ=            -14.9908
   XY=             -5.9148   XZ=              0.0000   YZ=             -0.0000

 8096\MP4DQ=-33.8925551\MP4SDQ=-33.8945798\CCSD=-33.895633\CCSD(T)=-33.
 Normal termination of Gaussian 16 at Sun Dec 10 06:58:14 2023.
