 Gaussian 16, Revision A.03,
 Gaussian 16:  ES64L-G16RevA.03 25-Dec-2016

 ------------------
 #p CCSD(T)/CEP-31G
 ------------------

 -----------
 H2O_H2O_615
 -----------
 Symbolic Z-matrix:
 Charge =  0 Multiplicity = 1

                         Standard orientation:
 ---------------------------------------------------------------------
 Center     Atomic      Atomic             Coordinates (Angstroms)
 Number     Number       Type             X           Y           Z
 ---------------------------------------------------------------------
      1          8           0        0.044989    1.352002   -0.000000
      2          1           0        0.041755    0.369406   -0.000000
      3          1           0       -0.883449    1.673727    0.000000
      4          8           0        0.044989   -1.171733   -0.000000
      5          1           0        0.860191   -1.720324   -0.000000
      6          1           0       -0.738328   -1.764961    0.000000
 ---------------------------------------------------------------------

 SCF Done:  E(RHF) =  -33.6579500854     A.U. after   11 cycles
 E2 =    -0.2289869817D+00 EUMP2 =    -0.33886937067093D+02
 CCSD(T)
 CCSD(T)= -0.33902736914D+02

 The electronic state is 1-A'.
 Alpha  occ. eigenvalues --   -1.40526  -1.29639  -0.75791  -0.70552  -0.58679
 Alpha  occ. eigenvalues --   -0.55180  -0.48631  -0.44153
 Alpha virt. eigenvalues --    0.17198   0.27087   0.27955   0.52870   0.74233
 Alpha virt. eigenvalues --    0.74631   0.85425   0.88740   0.96679   0.99737
 Alpha virt. eigenvalues --    1.14738   1.18050   1.24203   1.36995   2.64854

 Mulliken charges:
               1
     1  O   -0.778763
     2  H    0.428395
     3  H    0.335376
     4  O   -0.831830
     5  H    0.427343
     6  H    0.419480
 Sum of Mulliken charges =   0.00000

 Dipole moment (field-independent basis, Debye):
    X=             -1.9265    Y=             -5.0079    Z=              0.0000  Tot=              5.3657
 Quadrupole moment (field-independent basis, Debye-Ang):
   XX=             -9.3484   YY=             -9.5232   ZZ=            -15.0150
   XY=             -3.9052   XZ=             -0.0000   YZ=              0.0000

 5\MP4DQ=-33.8967911\MP4SDQ=-33.8989562\CCSD=-33.8997781\CCSD(T)=-33.90
 Normal termination of Gaussian 16 at Sun Dec 10 06:30:06 2023.
