 Gaussian 16, Revision A.03,
 Gaussian 16:  ES64L-G16RevA.03 25-Dec-2016

 ------------------
 #p CCSD(T)/CEP-31G
 ------------------

 ------------
 H2O_H2O_1452
 ------------
 Symbolic Z-matrix:
 Charge =  0 Multiplicity = 1

                         Standard orientation:
 ---------------------------------------------------------------------
 Center     Atomic      Atomic             Coordinates (Angstroms)
 Number     Number       Type             X           Y           Z
 ---------------------------------------------------------------------
      1          8           0        0.088237   -1.671501    0.000000
      2          1           0        0.087987   -0.688900    0.000000
      3          1           0       -0.841175   -1.990405    0.000000
      4          8           0        0.088237    1.527195    0.000000
      5          1           0        0.216244    2.501423    0.000000
      6          1           0       -0.874849    1.332332    0.000000
 ---------------------------------------------------------------------

 SCF Done:  E(RHF) =  -33.6544164472     A.U. after   11 cycles
 E2 =    -0.2290503615D+00 EUMP2 =    -0.33883466808741D+02
 CCSD(T)
 CCSD(T)= -0.33900497326D+02

 The electronic state is 1-A'.
 Alpha  occ. eigenvalues --   -1.38199  -1.33671  -0.74158  -0.69184  -0.58185
 Alpha  occ. eigenvalues --   -0.53315  -0.52757  -0.48221
 Alpha virt. eigenvalues --    0.16821   0.24578   0.28137   0.37895   0.76793
 Alpha virt. eigenvalues --    0.81083   0.83558   0.84824   0.89491   1.06536
 Alpha virt. eigenvalues --    1.15485   1.17335   1.21752   1.39801   2.50827

 Mulliken charges:
               1
     1  O   -0.755170
     2  H    0.397596
     3  H    0.352317
     4  O   -0.763464
     5  H    0.401475
     6  H    0.367245
 Sum of Mulliken charges =  -0.00000

 Dipole moment (field-independent basis, Debye):
    X=             -3.9582    Y=              3.6867    Z=              0.0000  Tot=              5.4092
 Quadrupole moment (field-independent basis, Debye-Ang):
   XX=            -11.0149   YY=             -9.1206   ZZ=            -14.9918
   XY=              2.6880   XZ=              0.0000   YZ=              0.0000

 9296\MP4DQ=-33.8946366\MP4SDQ=-33.8967975\CCSD=-33.8978028\CCSD(T)=-33
 Normal termination of Gaussian 16 at Sun Dec 10 06:46:08 2023.
