 Gaussian 16, Revision A.03,
 Gaussian 16:  ES64L-G16RevA.03 25-Dec-2016

 ------------------
 #p CCSD(T)/CEP-31G
 ------------------

 -----------
 H2O_H2O_504
 -----------
 Symbolic Z-matrix:
 Charge =  0 Multiplicity = 1

                         Standard orientation:
 ---------------------------------------------------------------------
 Center     Atomic      Atomic             Coordinates (Angstroms)
 Number     Number       Type             X           Y           Z
 ---------------------------------------------------------------------
      1          8           0        0.082829   -1.298087    0.000000
      2          1           0        0.082124   -0.315485    0.000000
      3          1           0       -0.846435   -1.617420    0.000000
      4          8           0        0.082829    1.143624    0.000000
      5          1           0        0.336464    2.092926    0.000000
      6          1           0       -0.897421    1.075682    0.000000
 ---------------------------------------------------------------------

 SCF Done:  E(RHF) =  -33.6411782061     A.U. after   11 cycles
 E2 =    -0.2287442740D+00 EUMP2 =    -0.33869922480129D+02
 CCSD(T)
 CCSD(T)= -0.33886099963D+02

 The electronic state is 1-A'.
 Alpha  occ. eigenvalues --   -1.41592  -1.30803  -0.78507  -0.69592  -0.58723
 Alpha  occ. eigenvalues --   -0.55692  -0.49701  -0.45149
 Alpha virt. eigenvalues --    0.16504   0.25192   0.28206   0.52926   0.73699
 Alpha virt. eigenvalues --    0.76531   0.85889   0.88433   0.95803   1.09398
 Alpha virt. eigenvalues --    1.14581   1.23508   1.28648   1.38498   2.70856

 Mulliken charges:
               1
     1  O   -0.725282
     2  H    0.361662
     3  H    0.326512
     4  O   -0.812774
     5  H    0.465618
     6  H    0.384264
 Sum of Mulliken charges =   0.00000

 Dipole moment (field-independent basis, Debye):
    X=             -3.5262    Y=              4.5152    Z=              0.0000  Tot=              5.7289
 Quadrupole moment (field-independent basis, Debye-Ang):
   XX=            -10.6911   YY=             -9.6511   ZZ=            -14.9818
   XY=              2.8746   XZ=              0.0000   YZ=              0.0000

 62\MP4DQ=-33.8799664\MP4SDQ=-33.8822933\CCSD=-33.8831318\CCSD(T)=-33.8
 Normal termination of Gaussian 16 at Sun Dec 10 06:28:00 2023.
