 Gaussian 16, Revision A.03,
 Gaussian 16:  ES64L-G16RevA.03 25-Dec-2016

 ------------------
 #p CCSD(T)/CEP-31G
 ------------------

 ------------
 H2O_H2O_1707
 ------------
 Symbolic Z-matrix:
 Charge =  0 Multiplicity = 1

                         Standard orientation:
 ---------------------------------------------------------------------
 Center     Atomic      Atomic             Coordinates (Angstroms)
 Number     Number       Type             X           Y           Z
 ---------------------------------------------------------------------
      1          8           0        0.073556    1.783498   -0.000000
      2          1           0        0.072587    0.800897   -0.000000
      3          1           0       -0.855622    2.103081   -0.000000
      4          8           0        0.073556   -1.616592    0.000000
      5          1           0        0.507281   -2.498289    0.000000
      6          1           0       -0.901146   -1.740932    0.000000
 ---------------------------------------------------------------------

 SCF Done:  E(RHF) =  -33.6574292303     A.U. after   11 cycles
 E2 =    -0.2287960348D+00 EUMP2 =    -0.33886225265129D+02
 CCSD(T)
 CCSD(T)= -0.33903153366D+02

 The electronic state is 1-A'.
 Alpha  occ. eigenvalues --   -1.37747  -1.33178  -0.73467  -0.68817  -0.57927
 Alpha  occ. eigenvalues --   -0.52925  -0.52379  -0.47790
 Alpha virt. eigenvalues --    0.17566   0.24352   0.28591   0.36571   0.77636
 Alpha virt. eigenvalues --    0.81759   0.83327   0.85349   0.89770   0.97361
 Alpha virt. eigenvalues --    1.15186   1.19144   1.20852   1.36391   2.50936

 Mulliken charges:
               1
     1  O   -0.766023
     2  H    0.408649
     3  H    0.354963
     4  O   -0.767170
     5  H    0.395117
     6  H    0.374464
 Sum of Mulliken charges =   0.00000

 Dipole moment (field-independent basis, Debye):
    X=             -3.3047    Y=             -4.1794    Z=             -0.0000  Tot=              5.3281
 Quadrupole moment (field-independent basis, Debye-Ang):
   XX=            -10.1820   YY=             -8.1883   ZZ=            -14.9992
   XY=             -3.7327   XZ=              0.0000   YZ=             -0.0000

 6507\MP4DQ=-33.8973784\MP4SDQ=-33.8994845\CCSD=-33.9005028\CCSD(T)=-33
 Normal termination of Gaussian 16 at Sun Dec 10 06:51:07 2023.
