 Gaussian 16, Revision A.03,
 Gaussian 16:  ES64L-G16RevA.03 25-Dec-2016

 ------------------
 #p CCSD(T)/CEP-31G
 ------------------

 ------------
 H2O_H2O_2413
 ------------
 Symbolic Z-matrix:
 Charge =  0 Multiplicity = 1

                         Standard orientation:
 ---------------------------------------------------------------------
 Center     Atomic      Atomic             Coordinates (Angstroms)
 Number     Number       Type             X           Y           Z
 ---------------------------------------------------------------------
      1          8           0        0.052318    2.069755   -0.000000
      2          1           0        0.050576    1.087155   -0.000000
      3          1           0       -0.876608    2.390069   -0.000000
      4          8           0        0.052318   -1.889887    0.000000
      5          1           0        0.789927   -2.539071    0.000000
      6          1           0       -0.800991   -2.377093    0.000000
 ---------------------------------------------------------------------

 SCF Done:  E(RHF) =  -33.6567113199     A.U. after   11 cycles
 E2 =    -0.2284522928D+00 EUMP2 =    -0.33885163612702D+02
 CCSD(T)
 CCSD(T)= -0.33902057276D+02

 The electronic state is 1-A'.
 Alpha  occ. eigenvalues --   -1.37063  -1.33551  -0.72714  -0.69168  -0.57117
 Alpha  occ. eigenvalues --   -0.53385  -0.51703  -0.48185
 Alpha virt. eigenvalues --    0.18364   0.23143   0.29218   0.33512   0.78810
 Alpha virt. eigenvalues --    0.82347   0.84050   0.85223   0.85787   0.88512
 Alpha virt. eigenvalues --    1.16012   1.19888   1.20465   1.29668   2.53920

 Mulliken charges:
               1
     1  O   -0.761417
     2  H    0.397129
     3  H    0.362406
     4  O   -0.756664
     5  H    0.382425
     6  H    0.376121
 Sum of Mulliken charges =  -0.00000

 Dipole moment (field-independent basis, Debye):
    X=             -2.3720    Y=             -4.3668    Z=              0.0000  Tot=              4.9694
 Quadrupole moment (field-independent basis, Debye-Ang):
   XX=             -9.5105   YY=             -7.0479   ZZ=            -14.9983
   XY=             -5.2259   XZ=              0.0000   YZ=             -0.0000

 3\MP4DQ=-33.8963823\MP4SDQ=-33.8984409\CCSD=-33.8994708\CCSD(T)=-33.90
 Normal termination of Gaussian 16 at Sun Dec 10 07:05:51 2023.
