 Gaussian 16, Revision A.03,
 Gaussian 16:  ES64L-G16RevA.03 25-Dec-2016

 ------------------
 #p CCSD(T)/CEP-31G
 ------------------

 ------------
 H2O_H2O_1557
 ------------
 Symbolic Z-matrix:
 Charge =  0 Multiplicity = 1

                         Standard orientation:
 ---------------------------------------------------------------------
 Center     Atomic      Atomic             Coordinates (Angstroms)
 Number     Number       Type             X           Y           Z
 ---------------------------------------------------------------------
      1          8           0        0.073559    1.723664   -0.000000
      2          1           0        0.072555    0.741063   -0.000000
      3          1           0       -0.855607    2.043280   -0.000000
      4          8           0        0.073559   -1.556764    0.000000
      5          1           0        0.507251   -2.438476    0.000000
      6          1           0       -0.901148   -1.681067    0.000000
 ---------------------------------------------------------------------

 SCF Done:  E(RHF) =  -33.6579633694     A.U. after   11 cycles
 E2 =    -0.2288671943D+00 EUMP2 =    -0.33886830563647D+02
 CCSD(T)
 CCSD(T)= -0.33903738206D+02

 The electronic state is 1-A'.
 Alpha  occ. eigenvalues --   -1.37948  -1.32963  -0.73687  -0.68655  -0.58182
 Alpha  occ. eigenvalues --   -0.52685  -0.52583  -0.47573
 Alpha virt. eigenvalues --    0.17502   0.24696   0.28430   0.37808   0.77239
 Alpha virt. eigenvalues --    0.81123   0.83777   0.85363   0.90378   1.00643
 Alpha virt. eigenvalues --    1.15038   1.18775   1.21097   1.36848   2.50361

 Mulliken charges:
               1
     1  O   -0.768061
     2  H    0.412510
     3  H    0.353083
     4  O   -0.772682
     5  H    0.399688
     6  H    0.375462
 Sum of Mulliken charges =  -0.00000

 Dipole moment (field-independent basis, Debye):
    X=             -3.2919    Y=             -4.2181    Z=              0.0000  Tot=              5.3506
 Quadrupole moment (field-independent basis, Debye-Ang):
   XX=            -10.1831   YY=             -8.3141   ZZ=            -15.0006
   XY=             -3.6805   XZ=              0.0000   YZ=             -0.0000

 2191\MP4DQ=-33.8979391\MP4SDQ=-33.9000555\CCSD=-33.9010676\CCSD(T)=-33
 Normal termination of Gaussian 16 at Sun Dec 10 06:48:13 2023.
