 Gaussian 16, Revision A.03,
 Gaussian 16:  ES64L-G16RevA.03 25-Dec-2016

 ------------------
 #p CCSD(T)/CEP-31G
 ------------------

 ------------
 H2O_H2O_1901
 ------------
 Symbolic Z-matrix:
 Charge =  0 Multiplicity = 1

                         Standard orientation:
 ---------------------------------------------------------------------
 Center     Atomic      Atomic             Coordinates (Angstroms)
 Number     Number       Type             X           Y           Z
 ---------------------------------------------------------------------
      1          8           0        0.090686   -1.847953    0.000000
      2          1           0        0.090578   -0.865351    0.000000
      3          1           0       -0.838772   -2.166721    0.000000
      4          8           0        0.090686    1.709248    0.000000
      5          1           0        0.154844    2.689754    0.000000
      6          1           0       -0.857630    1.451952    0.000000
 ---------------------------------------------------------------------

 SCF Done:  E(RHF) =  -33.6534981212     A.U. after   11 cycles
 E2 =    -0.2288485094D+00 EUMP2 =    -0.33882346630607D+02
 CCSD(T)
 CCSD(T)= -0.33899389426D+02

 The electronic state is 1-A'.
 Alpha  occ. eigenvalues --   -1.37598  -1.34297  -0.73403  -0.69809  -0.57484
 Alpha  occ. eigenvalues --   -0.53994  -0.52166  -0.48856
 Alpha virt. eigenvalues --    0.16712   0.23694   0.28595   0.34493   0.77983
 Alpha virt. eigenvalues --    0.82197   0.82349   0.84587   0.88151   0.95484
 Alpha virt. eigenvalues --    1.15321   1.18244   1.20941   1.37627   2.53638

 Mulliken charges:
               1
     1  O   -0.751035
     2  H    0.390714
     3  H    0.357761
     4  O   -0.751486
     5  H    0.388937
     6  H    0.365108
 Sum of Mulliken charges =  -0.00000

 Dipole moment (field-independent basis, Debye):
    X=             -4.1053    Y=              3.4381    Z=              0.0000  Tot=              5.3548
 Quadrupole moment (field-independent basis, Debye-Ang):
   XX=            -11.1626   YY=             -9.2643   ZZ=            -14.9889
   XY=              2.5090   XZ=              0.0000   YZ=              0.0000

 8889\MP4DQ=-33.8936144\MP4SDQ=-33.8957275\CCSD=-33.8967499\CCSD(T)=-33
 Normal termination of Gaussian 16 at Sun Dec 10 06:54:46 2023.
