 Gaussian 16, Revision A.03,
 Gaussian 16:  ES64L-G16RevA.03 25-Dec-2016

 ------------------
 #p CCSD(T)/CEP-31G
 ------------------

 ------------
 H2O_H2O_2153
 ------------
 Symbolic Z-matrix:
 Charge =  0 Multiplicity = 1

                         Standard orientation:
 ---------------------------------------------------------------------
 Center     Atomic      Atomic             Coordinates (Angstroms)
 Number     Number       Type             X           Y           Z
 ---------------------------------------------------------------------
      1          8           0        0.085605   -1.953584    0.000000
      2          1           0        0.085273   -0.970982    0.000000
      3          1           0       -0.843780   -2.272564    0.000000
      4          8           0        0.085605    1.803997    0.000000
      5          1           0        0.276976    2.767783    0.000000
      6          1           0       -0.888152    1.672459    0.000000
 ---------------------------------------------------------------------

 SCF Done:  E(RHF) =  -33.6542526899     A.U. after   11 cycles
 E2 =    -0.2286610745D+00 EUMP2 =    -0.33882913764403D+02
 CCSD(T)
 CCSD(T)= -0.33899910120D+02

 The electronic state is 1-A'.
 Alpha  occ. eigenvalues --   -1.37329  -1.34161  -0.73052  -0.69722  -0.57243
 Alpha  occ. eigenvalues --   -0.53898  -0.51918  -0.48742
 Alpha virt. eigenvalues --    0.17176   0.23292   0.28850   0.33513   0.78466
 Alpha virt. eigenvalues --    0.82010   0.82791   0.84752   0.88170   0.90810
 Alpha virt. eigenvalues --    1.15427   1.19025   1.20546   1.34532   2.54235

 Mulliken charges:
               1
     1  O   -0.752906
     2  H    0.391687
     3  H    0.359313
     4  O   -0.752036
     5  H    0.385787
     6  H    0.368156
 Sum of Mulliken charges =  -0.00000

 Dipole moment (field-independent basis, Debye):
    X=             -3.8855    Y=              3.6664    Z=              0.0000  Tot=              5.3422
 Quadrupole moment (field-independent basis, Debye-Ang):
   XX=            -10.8263   YY=             -8.6658   ZZ=            -14.9915
   XY=              3.0024   XZ=              0.0000   YZ=              0.0000

 459\MP4DQ=-33.8941825\MP4SDQ=-33.8962685\CCSD=-33.8972975\CCSD(T)=-33.
 Normal termination of Gaussian 16 at Sun Dec 10 06:59:37 2023.
