 Gaussian 16, Revision A.03,
 Gaussian 16:  ES64L-G16RevA.03 25-Dec-2016

 ------------------
 #p CCSD(T)/CEP-31G
 ------------------

 ----------
 H2O_H2O_45
 ----------
 Symbolic Z-matrix:
 Charge =  0 Multiplicity = 1

                         Standard orientation:
 ---------------------------------------------------------------------
 Center     Atomic      Atomic             Coordinates (Angstroms)
 Number     Number       Type             X           Y           Z
 ---------------------------------------------------------------------
      1          8           0        0.026918    1.118744   -0.000000
      2          1           0        0.021467    0.136158   -0.000000
      3          1           0       -0.900793    1.442562   -0.000000
      4          8           0        0.026918   -0.945680    0.000000
      5          1           0        0.974613   -1.205257    0.000000
      6          1           0       -0.525976   -1.757971    0.000000
 ---------------------------------------------------------------------

 SCF Done:  E(RHF) =  -33.5873909267     A.U. after   11 cycles
 E2 =    -0.2267681875D+00 EUMP2 =    -0.33814159114196D+02
 CCSD(T)
 CCSD(T)= -0.33828628466D+02

 The electronic state is 1-A'.
 Alpha  occ. eigenvalues --   -1.46711  -1.26381  -0.82934  -0.76697  -0.59402
 Alpha  occ. eigenvalues --   -0.54574  -0.42940  -0.40303
 Alpha virt. eigenvalues --    0.16453   0.24524   0.30595   0.62620   0.73256
 Alpha virt. eigenvalues --    0.73782   0.87470   0.92154   0.92193   1.04427
 Alpha virt. eigenvalues --    1.12262   1.19162   1.31376   1.40854   2.99044

 Mulliken charges:
               1
     1  O   -0.742998
     2  H    0.255139
     3  H    0.313934
     4  O   -0.756225
     5  H    0.447090
     6  H    0.483060
 Sum of Mulliken charges =   0.00000

 Dipole moment (field-independent basis, Debye):
    X=             -1.1192    Y=             -5.6964    Z=              0.0000  Tot=              5.8053
 Quadrupole moment (field-independent basis, Debye-Ang):
   XX=             -9.3500   YY=            -10.7277   ZZ=            -14.9122
   XY=             -3.4007   XZ=              0.0000   YZ=             -0.0000

 96\MP4DQ=-33.8224418\MP4SDQ=-33.8247995\CCSD=-33.8253865\CCSD(T)=-33.8
 Normal termination of Gaussian 16 at Sun Dec 10 06:18:54 2023.
