 Gaussian 16, Revision A.03,
 Gaussian 16:  ES64L-G16RevA.03 25-Dec-2016

 ------------------
 #p CCSD(T)/CEP-31G
 ------------------

 ----------
 H2O_H2O_32
 ----------
 Symbolic Z-matrix:
 Charge =  0 Multiplicity = 1

                         Standard orientation:
 ---------------------------------------------------------------------
 Center     Atomic      Atomic             Coordinates (Angstroms)
 Number     Number       Type             X           Y           Z
 ---------------------------------------------------------------------
      1          8           0        0.073610   -1.115332    0.000000
      2          1           0        0.072013   -0.132732    0.000000
      3          1           0       -0.855364   -1.435508    0.000000
      4          8           0        0.073610    0.948520    0.000000
      5          1           0        0.506770    1.830494    0.000000
      6          1           0       -0.901173    1.072237    0.000000
 ---------------------------------------------------------------------

 SCF Done:  E(RHF) =  -33.5784753512     A.U. after   11 cycles
 E2 =    -0.2276505038D+00 EUMP2 =    -0.33806125855047D+02
 CCSD(T)
 CCSD(T)= -0.33820867801D+02

 The electronic state is 1-A'.
 Alpha  occ. eigenvalues --   -1.47223  -1.27318  -0.84031  -0.75914  -0.59533
 Alpha  occ. eigenvalues --   -0.54351  -0.44214  -0.41169
 Alpha virt. eigenvalues --    0.15842   0.23567   0.30575   0.61976   0.73086
 Alpha virt. eigenvalues --    0.74057   0.89566   0.91642   0.94403   1.08311
 Alpha virt. eigenvalues --    1.09731   1.20344   1.29347   1.40471   3.09914

 Mulliken charges:
               1
     1  O   -0.705043
     2  H    0.246994
     3  H    0.293926
     4  O   -0.752220
     5  H    0.500351
     6  H    0.415992
 Sum of Mulliken charges =   0.00000

 Dipole moment (field-independent basis, Debye):
    X=             -2.9367    Y=              5.5274    Z=              0.0000  Tot=              6.2591
 Quadrupole moment (field-independent basis, Debye-Ang):
   XX=            -10.1050   YY=            -10.6869   ZZ=            -14.8912
   XY=              2.9732   XZ=              0.0000   YZ=              0.0000

 5\MP4DQ=-33.8144883\MP4SDQ=-33.8170004\CCSD=-33.8175956\CCSD(T)=-33.82
 Normal termination of Gaussian 16 at Sun Dec 10 06:18:39 2023.
