 Gaussian 16, Revision A.03,
 Gaussian 16:  ES64L-G16RevA.03 25-Dec-2016

 ------------------
 #p CCSD(T)/CEP-31G
 ------------------

 -----------
 H2O_H2O_879
 -----------
 Symbolic Z-matrix:
 Charge =  0 Multiplicity = 1

                         Standard orientation:
 ---------------------------------------------------------------------
 Center     Atomic      Atomic             Coordinates (Angstroms)
 Number     Number       Type             X           Y           Z
 ---------------------------------------------------------------------
      1          8           0        0.082823   -1.447672    0.000000
      2          1           0        0.082195   -0.465071    0.000000
      3          1           0       -0.846466   -1.766933    0.000000
      4          8           0        0.082823    1.293196    0.000000
      5          1           0        0.336533    2.242479    0.000000
      6          1           0       -0.897432    1.225332    0.000000
 ---------------------------------------------------------------------

 SCF Done:  E(RHF) =  -33.6537077595     A.U. after   11 cycles
 E2 =    -0.2290269306D+00 EUMP2 =    -0.33882734690070D+02
 CCSD(T)
 CCSD(T)= -0.33899448035D+02

 The electronic state is 1-A'.
 Alpha  occ. eigenvalues --   -1.39598  -1.32118  -0.75890  -0.68531  -0.59204
 Alpha  occ. eigenvalues --   -0.54084  -0.51505  -0.46613
 Alpha virt. eigenvalues --    0.16825   0.25760   0.27532   0.45695   0.74841
 Alpha virt. eigenvalues --    0.78219   0.85096   0.86373   0.93326   1.10974
 Alpha virt. eigenvalues --    1.15592   1.22753   1.26256   1.36758   2.54550

 Mulliken charges:
               1
     1  O   -0.750420
     2  H    0.396933
     3  H    0.340061
     4  O   -0.797919
     5  H    0.434751
     6  H    0.376594
 Sum of Mulliken charges =  -0.00000

 Dipole moment (field-independent basis, Debye):
    X=             -3.6224    Y=              4.2034    Z=              0.0000  Tot=              5.5489
 Quadrupole moment (field-independent basis, Debye-Ang):
   XX=            -10.6927   YY=             -9.1862   ZZ=            -14.9981
   XY=              2.9760   XZ=              0.0000   YZ=              0.0000

 42\MP4DQ=-33.8934605\MP4SDQ=-33.8956905\CCSD=-33.8966322\CCSD(T)=-33.8
 Normal termination of Gaussian 16 at Sun Dec 10 06:35:03 2023.
