 Gaussian 16, Revision A.03,
 Gaussian 16:  ES64L-G16RevA.03 25-Dec-2016

 ------------------
 #p CCSD(T)/CEP-31G
 ------------------

 ------------
 H2O_H2O_1700
 ------------
 Symbolic Z-matrix:
 Charge =  0 Multiplicity = 1

                         Standard orientation:
 ---------------------------------------------------------------------
 Center     Atomic      Atomic             Coordinates (Angstroms)
 Number     Number       Type             X           Y           Z
 ---------------------------------------------------------------------
      1          8           0        0.092949   -1.764963    0.000000
      2          1           0        0.092949   -0.782362    0.000000
      3          1           0       -0.836544   -2.083630    0.000000
      4          8           0        0.092949    1.632176    0.000000
      5          1           0        0.092949    2.614777    0.000000
      6          1           0       -0.836544    1.313509    0.000000
 ---------------------------------------------------------------------

 SCF Done:  E(RHF) =  -33.6528536235     A.U. after   11 cycles
 E2 =    -0.2290238105D+00 EUMP2 =    -0.33881877433983D+02
 CCSD(T)
 CCSD(T)= -0.33898951037D+02

 The electronic state is 1-A'.
 Alpha  occ. eigenvalues --   -1.37858  -1.34336  -0.73773  -0.69785  -0.57722
 Alpha  occ. eigenvalues --   -0.54000  -0.52406  -0.48878
 Alpha virt. eigenvalues --    0.16515   0.24002   0.28390   0.35644   0.77467
 Alpha virt. eigenvalues --    0.81958   0.82525   0.84497   0.88238   1.00097
 Alpha virt. eigenvalues --    1.15490   1.17540   1.21423   1.39202   2.52853

 Mulliken charges:
               1
     1  O   -0.749392
     2  H    0.389486
     3  H    0.356246
     4  O   -0.751407
     5  H    0.392192
     6  H    0.362875
 Sum of Mulliken charges =   0.00000

 Dipole moment (field-independent basis, Debye):
    X=             -4.1953    Y=              3.3297    Z=              0.0000  Tot=              5.3561
 Quadrupole moment (field-independent basis, Debye-Ang):
   XX=            -11.3271   YY=             -9.5619   ZZ=            -14.9870
   XY=              2.2693   XZ=              0.0000   YZ=              0.0000

 161\MP4DQ=-33.8931301\MP4SDQ=-33.8952701\CCSD=-33.8962834\CCSD(T)=-33.
 Normal termination of Gaussian 16 at Sun Dec 10 06:50:59 2023.
