 Gaussian 16, Revision A.03,
 Gaussian 16:  ES64L-G16RevA.03 25-Dec-2016

 ------------------
 #p CCSD(T)/CEP-31G
 ------------------

 ------------
 H2O_H2O_4918
 ------------
 Symbolic Z-matrix:
 Charge =  0 Multiplicity = 1

                         Standard orientation:
 ---------------------------------------------------------------------
 Center     Atomic      Atomic             Coordinates (Angstroms)
 Number     Number       Type             X           Y           Z
 ---------------------------------------------------------------------
      1          8           0        0.033742    3.065693   -0.000000
      2          1           0        0.032056    2.083093   -0.000000
      3          1           0       -0.895202    3.385954    0.000000
      4          8           0        0.033742   -2.888133   -0.000000
      5          1           0        0.940901   -3.265716   -0.000000
      6          1           0       -0.617632   -3.623808    0.000000
 ---------------------------------------------------------------------

 SCF Done:  E(RHF) =  -33.6531490692     A.U. after   11 cycles
 E2 =    -0.2283041131D+00 EUMP2 =    -0.33881453182275D+02
 CCSD(T)
 CCSD(T)= -0.33898415283D+02

 The electronic state is 1-A'.
 Alpha  occ. eigenvalues --   -1.36179  -1.34786  -0.71817  -0.70420  -0.55990
 Alpha  occ. eigenvalues --   -0.54567  -0.50771  -0.49380
 Alpha virt. eigenvalues --    0.19665   0.21093   0.29916   0.31369   0.79779
 Alpha virt. eigenvalues --    0.81142   0.82665   0.84130   0.85834   0.87235
 Alpha virt. eigenvalues --    1.16781   1.18175   1.21227   1.22658   2.56760

 Mulliken charges:
               1
     1  O   -0.746406
     2  H    0.377262
     3  H    0.369142
     4  O   -0.745958
     5  H    0.373505
     6  H    0.372455
 Sum of Mulliken charges =  -0.00000

 Dipole moment (field-independent basis, Debye):
    X=             -1.5512    Y=             -4.1540    Z=              0.0000  Tot=              4.4341
 Quadrupole moment (field-independent basis, Debye-Ang):
   XX=             -9.4381   YY=             -4.9945   ZZ=            -14.9913
   XY=             -8.9296   XZ=             -0.0000   YZ=              0.0000

 0343\MP4DQ=-33.892781\MP4SDQ=-33.894805\CCSD=-33.8958579\CCSD(T)=-33.8
 Normal termination of Gaussian 16 at Sun Dec 10 07:02:22 2023.
