 Gaussian 16, Revision A.03,
 Gaussian 16:  ES64L-G16RevA.03 25-Dec-2016

 ------------------
 #p CCSD(T)/CEP-31G
 ------------------

 ------------
 H2O_H2O_1218
 ------------
 Symbolic Z-matrix:
 Charge =  0 Multiplicity = 1

                         Standard orientation:
 ---------------------------------------------------------------------
 Center     Atomic      Atomic             Coordinates (Angstroms)
 Number     Number       Type             X           Y           Z
 ---------------------------------------------------------------------
      1          8           0        0.033892    1.589794    0.000000
      2          1           0        0.030547    0.607199    0.000000
      3          1           0       -0.894510    1.911623    0.000000
      4          8           0        0.033892   -1.412349    0.000000
      5          1           0        0.940411   -1.791462    0.000000
      6          1           0       -0.618724   -2.146923    0.000000
 ---------------------------------------------------------------------

 SCF Done:  E(RHF) =  -33.6629421154     A.U. after   11 cycles
 E2 =    -0.2289155224D+00 EUMP2 =    -0.33891857637807D+02
 CCSD(T)
 CCSD(T)= -0.33908476571D+02

 The electronic state is 1-A'.
 Alpha  occ. eigenvalues --   -1.38437  -1.31708  -0.74077  -0.68035  -0.59028
 Alpha  occ. eigenvalues --   -0.53166  -0.51404  -0.46385
 Alpha virt. eigenvalues --    0.17790   0.26000   0.28279   0.42378   0.76231
 Alpha virt. eigenvalues --    0.78678   0.85478   0.86225   0.92290   1.01718
 Alpha virt. eigenvalues --    1.15255   1.18615   1.22278   1.35004   2.50629

 Mulliken charges:
               1
     1  O   -0.786234
     2  H    0.429334
     3  H    0.354859
     4  O   -0.797904
     5  H    0.397630
     6  H    0.402314
 Sum of Mulliken charges =   0.00000

 Dipole moment (field-independent basis, Debye):
    X=             -1.5069    Y=             -4.5754    Z=              0.0000  Tot=              4.8172
 Quadrupole moment (field-independent basis, Debye-Ang):
   XX=             -9.3938   YY=             -8.4766   ZZ=            -15.0148
   XY=             -4.8085   XZ=              0.0000   YZ=              0.0000

 9655\MP4DQ=-33.9026668\MP4SDQ=-33.9047688\CCSD=-33.9057422\CCSD(T)=-33
 Normal termination of Gaussian 16 at Sun Dec 10 06:41:29 2023.
