 Gaussian 16, Revision A.03,
 Gaussian 16:  ES64L-G16RevA.03 25-Dec-2016

 ------------------
 #p CCSD(T)/CEP-31G
 ------------------

 -----------
 H2O_H2O_599
 -----------
 Symbolic Z-matrix:
 Charge =  0 Multiplicity = 1

                         Standard orientation:
 ---------------------------------------------------------------------
 Center     Atomic      Atomic             Coordinates (Angstroms)
 Number     Number       Type             X           Y           Z
 ---------------------------------------------------------------------
      1          8           0        0.013714   -1.330592    0.000000
      2          1           0        0.008327   -0.348005    0.000000
      3          1           0       -0.914017   -1.654350    0.000000
      4          8           0        0.013714    1.171397    0.000000
      5          1           0        0.996302    1.176784    0.000000
      6          1           0       -0.310043    2.099129    0.000000
 ---------------------------------------------------------------------

 SCF Done:  E(RHF) =  -33.6530595040     A.U. after   11 cycles
 E2 =    -0.2281809674D+00 EUMP2 =    -0.33881240471466D+02
 CCSD(T)
 CCSD(T)= -0.33897318467D+02

 The electronic state is 1-A'.
 Alpha  occ. eigenvalues --   -1.40713  -1.30268  -0.77296  -0.68886  -0.59506
 Alpha  occ. eigenvalues --   -0.55120  -0.49275  -0.44846
 Alpha virt. eigenvalues --    0.17401   0.26537   0.28064   0.52071   0.74109
 Alpha virt. eigenvalues --    0.76626   0.87059   0.88401   0.92548   1.07676
 Alpha virt. eigenvalues --    1.15086   1.22383   1.29110   1.38849   2.67080

 Mulliken charges:
               1
     1  O   -0.763786
     2  H    0.379684
     3  H    0.352896
     4  O   -0.832982
     5  H    0.409398
     6  H    0.454791
 Sum of Mulliken charges =   0.00000

 Dipole moment (field-independent basis, Debye):
    X=             -0.6145    Y=              4.5367    Z=              0.0000  Tot=              4.5781
 Quadrupole moment (field-independent basis, Debye-Ang):
   XX=             -9.8091   YY=             -9.4735   ZZ=            -15.0060
   XY=              4.6162   XZ=              0.0000   YZ=              0.0000

 71\MP4DQ=-33.8913381\MP4SDQ=-33.8935542\CCSD=-33.8944179\CCSD(T)=-33.8
 Normal termination of Gaussian 16 at Sun Dec 10 06:29:48 2023.
