 Gaussian 16, Revision A.03,
 Gaussian 16:  ES64L-G16RevA.03 25-Dec-2016

 ------------------
 #p CCSD(T)/CEP-31G
 ------------------

 ------------
 H2O_H2O_2392
 ------------
 Symbolic Z-matrix:
 Charge =  0 Multiplicity = 1

                         Standard orientation:
 ---------------------------------------------------------------------
 Center     Atomic      Atomic             Coordinates (Angstroms)
 Number     Number       Type             X           Y           Z
 ---------------------------------------------------------------------
      1          8           0        0.037474    2.059282    0.000000
      2          1           0        0.035083    1.076683    0.000000
      3          1           0       -0.891240    2.380210    0.000000
      4          8           0        0.037474   -1.880342    0.000000
      5          1           0        0.917683   -2.317078    0.000000
      6          1           0       -0.661117   -2.571338    0.000000
 ---------------------------------------------------------------------

 SCF Done:  E(RHF) =  -33.6571998364     A.U. after   11 cycles
 E2 =    -0.2284348854D+00 EUMP2 =    -0.33885634721795D+02
 CCSD(T)
 CCSD(T)= -0.33902517927D+02

 The electronic state is 1-A'.
 Alpha  occ. eigenvalues --   -1.37060  -1.33514  -0.72708  -0.69148  -0.57144
 Alpha  occ. eigenvalues --   -0.53369  -0.51707  -0.48160
 Alpha virt. eigenvalues --    0.18374   0.23226   0.29253   0.33607   0.78795
 Alpha virt. eigenvalues --    0.82373   0.83728   0.85452   0.86099   0.88446
 Alpha virt. eigenvalues --    1.16031   1.19958   1.20491   1.29947   2.53869

 Mulliken charges:
               1
     1  O   -0.763434
     2  H    0.397339
     3  H    0.364162
     4  O   -0.758155
     5  H    0.381509
     6  H    0.378579
 Sum of Mulliken charges =   0.00000

 Dipole moment (field-independent basis, Debye):
    X=             -1.6965    Y=             -4.3443    Z=              0.0000  Tot=              4.6638
 Quadrupole moment (field-independent basis, Debye-Ang):
   XX=             -9.4056   YY=             -7.1049   ZZ=            -14.9993
   XY=             -5.9653   XZ=              0.0000   YZ=              0.0000

 99\MP4DQ=-33.8968439\MP4SDQ=-33.8989024\CCSD=-33.8999313\CCSD(T)=-33.9
 Normal termination of Gaussian 16 at Sun Dec 10 07:05:28 2023.
