 Gaussian 16, Revision A.03,
 Gaussian 16:  ES64L-G16RevA.03 25-Dec-2016

 ------------------
 #p CCSD(T)/CEP-31G
 ------------------

 ------------
 H2O_H2O_1527
 ------------
 Symbolic Z-matrix:
 Charge =  0 Multiplicity = 1

                         Standard orientation:
 ---------------------------------------------------------------------
 Center     Atomic      Atomic             Coordinates (Angstroms)
 Number     Number       Type             X           Y           Z
 ---------------------------------------------------------------------
      1          8           0        0.088237   -1.701417    0.000000
      2          1           0        0.087991   -0.718816    0.000000
      3          1           0       -0.841177   -2.020316    0.000000
      4          8           0        0.088237    1.557110    0.000000
      5          1           0        0.216249    2.531338    0.000000
      6          1           0       -0.874850    1.362252    0.000000
 ---------------------------------------------------------------------

 SCF Done:  E(RHF) =  -33.6544339079     A.U. after   11 cycles
 E2 =    -0.2290141955D+00 EUMP2 =    -0.33883448103380D+02
 CCSD(T)
 CCSD(T)= -0.33900482705D+02

 The electronic state is 1-A'.
 Alpha  occ. eigenvalues --   -1.38075  -1.33762  -0.73992  -0.69273  -0.58056
 Alpha  occ. eigenvalues --   -0.53422  -0.52639  -0.48317
 Alpha virt. eigenvalues --    0.16834   0.24434   0.28227   0.37218   0.77030
 Alpha virt. eigenvalues --    0.81340   0.83305   0.84817   0.89232   1.04499
 Alpha virt. eigenvalues --    1.15342   1.17518   1.21581   1.39702   2.51167

 Mulliken charges:
               1
     1  O   -0.755282
     2  H    0.397373
     3  H    0.353339
     4  O   -0.761423
     5  H    0.398905
     6  H    0.367088
 Sum of Mulliken charges =  -0.00000

 Dipole moment (field-independent basis, Debye):
    X=             -3.9652    Y=              3.6645    Z=              0.0000  Tot=              5.3992
 Quadrupole moment (field-independent basis, Debye-Ang):
   XX=            -11.0119   YY=             -9.0968   ZZ=            -14.9916
   XY=              2.6969   XZ=              0.0000   YZ=              0.0000

 275\MP4DQ=-33.894639\MP4SDQ=-33.8967902\CCSD=-33.8977997\CCSD(T)=-33.9
 Normal termination of Gaussian 16 at Sun Dec 10 06:47:37 2023.
