 Gaussian 16, Revision A.03,
 Gaussian 16:  ES64L-G16RevA.03 25-Dec-2016

 ------------------
 #p CCSD(T)/CEP-31G
 ------------------

 ------------
 H2O_H2O_3030
 ------------
 Symbolic Z-matrix:
 Charge =  0 Multiplicity = 1

                         Standard orientation:
 ---------------------------------------------------------------------
 Center     Atomic      Atomic             Coordinates (Angstroms)
 Number     Number       Type             X           Y           Z
 ---------------------------------------------------------------------
      1          8           0        0.079853    2.307746   -0.000000
      2          1           0        0.079354    1.325145   -0.000000
      3          1           0       -0.849479    2.626885   -0.000000
      4          8           0        0.079853   -2.148686    0.000000
      5          1           0        0.395228   -3.079302    0.000000
      6          1           0       -0.902743   -2.145208    0.000000
 ---------------------------------------------------------------------

 SCF Done:  E(RHF) =  -33.6536265053     A.U. after   11 cycles
 E2 =    -0.2283836911D+00 EUMP2 =    -0.33882010196439D+02
 CCSD(T)
 CCSD(T)= -0.33898966088D+02

 The electronic state is 1-A'.
 Alpha  occ. eigenvalues --   -1.36747  -1.34447  -0.72410  -0.70046  -0.56594
 Alpha  occ. eigenvalues --   -0.54213  -0.51340  -0.49036
 Alpha virt. eigenvalues --    0.18391   0.21992   0.29324   0.31932   0.79236
 Alpha virt. eigenvalues --    0.81480   0.82485   0.84507   0.85347   0.87886
 Alpha virt. eigenvalues --    1.16124   1.18875   1.20625   1.25695   2.56205

 Mulliken charges:
               1
     1  O   -0.748543
     2  H    0.384138
     3  H    0.363825
     4  O   -0.748161
     5  H    0.379114
     6  H    0.369626
 Sum of Mulliken charges =   0.00000

 Dipole moment (field-independent basis, Debye):
    X=             -3.6492    Y=             -3.8003    Z=              0.0000  Tot=              5.2687
 Quadrupole moment (field-independent basis, Debye-Ang):
   XX=            -10.4836   YY=             -7.7587   ZZ=            -14.9916
   XY=             -3.6804   XZ=              0.0000   YZ=             -0.0000

 678\MP4DQ=-33.8933141\MP4SDQ=-33.8953527\CCSD=-33.8963959\CCSD(T)=-33.
 Normal termination of Gaussian 16 at Sun Dec 10 06:27:36 2023.
