 Gaussian 16, Revision A.03,
 Gaussian 16:  ES64L-G16RevA.03 25-Dec-2016

 ------------------
 #p CCSD(T)/CEP-31G
 ------------------

 ------------
 H2O_H2O_1727
 ------------
 Symbolic Z-matrix:
 Charge =  0 Multiplicity = 1

                         Standard orientation:
 ---------------------------------------------------------------------
 Center     Atomic      Atomic             Coordinates (Angstroms)
 Number     Number       Type             X           Y           Z
 ---------------------------------------------------------------------
      1          8           0        0.088236   -1.781194    0.000000
      2          1           0        0.088001   -0.798593    0.000000
      3          1           0       -0.841181   -2.100082    0.000000
      4          8           0        0.088236    1.636885    0.000000
      5          1           0        0.216258    2.611110    0.000000
      6          1           0       -0.874854    1.442037    0.000000
 ---------------------------------------------------------------------

 SCF Done:  E(RHF) =  -33.6543126742     A.U. after   11 cycles
 E2 =    -0.2289082106D+00 EUMP2 =    -0.33883220884819D+02
 CCSD(T)
 CCSD(T)= -0.33900255249D+02

 The electronic state is 1-A'.
 Alpha  occ. eigenvalues --   -1.37790  -1.33973  -0.73623  -0.69492  -0.57744
 Alpha  occ. eigenvalues --   -0.53664  -0.52364  -0.48537
 Alpha virt. eigenvalues --    0.16864   0.24051   0.28449   0.35667   0.77596
 Alpha virt. eigenvalues --    0.81939   0.82724   0.84779   0.88681   0.99272
 Alpha virt. eigenvalues --    1.15243   1.18066   1.21167   1.38838   2.52263

 Mulliken charges:
               1
     1  O   -0.754573
     2  H    0.395577
     3  H    0.355718
     4  O   -0.756797
     5  H    0.393229
     6  H    0.366846
 Sum of Mulliken charges =   0.00000

 Dipole moment (field-independent basis, Debye):
    X=             -3.9813    Y=              3.6138    Z=              0.0000  Tot=              5.3769
 Quadrupole moment (field-independent basis, Debye-Ang):
   XX=            -11.0046   YY=             -9.0399   ZZ=            -14.9910
   XY=              2.7198   XZ=              0.0000   YZ=              0.0000

 318\MP4DQ=-33.8944531\MP4SDQ=-33.8965811\CCSD=-33.8975991\CCSD(T)=-33.
 Normal termination of Gaussian 16 at Sun Dec 10 06:51:30 2023.
