 Gaussian 16, Revision A.03,
 Gaussian 16:  ES64L-G16RevA.03 25-Dec-2016

 ------------------
 #p CCSD(T)/CEP-31G
 ------------------

 ------------
 H2O_H2O_2697
 ------------
 Symbolic Z-matrix:
 Charge =  0 Multiplicity = 1

                         Standard orientation:
 ---------------------------------------------------------------------
 Center     Atomic      Atomic             Coordinates (Angstroms)
 Number     Number       Type             X           Y           Z
 ---------------------------------------------------------------------
      1          8           0       -0.019881    2.172513    0.000000
      2          1           0       -0.016911    1.189917    0.000000
      3          1           0        0.908645    2.493987    0.000000
      4          8           0       -0.019881   -2.005419    0.000000
      5          1           0       -0.993685   -2.136617    0.000000
      6          1           0        0.420039   -2.884041    0.000000
 ---------------------------------------------------------------------

 SCF Done:  E(RHF) =  -33.6561291671     A.U. after   11 cycles
 E2 =    -0.2283498877D+00 EUMP2 =    -0.33884479054840D+02
 CCSD(T)
 CCSD(T)= -0.33901379689D+02

 The electronic state is 1-A'.
 Alpha  occ. eigenvalues --   -1.36855  -1.33984  -0.72510  -0.69629  -0.56846
 Alpha  occ. eigenvalues --   -0.53840  -0.51486  -0.48624
 Alpha virt. eigenvalues --    0.18363   0.22666   0.29369   0.32699   0.79061
 Alpha virt. eigenvalues --    0.81876   0.82998   0.84545   0.86129   0.87874
 Alpha virt. eigenvalues --    1.16154   1.19529   1.20632   1.28233   2.55527

 Mulliken charges:
               1
     1  O   -0.758726
     2  H    0.389499
     3  H    0.368009
     4  O   -0.755632
     5  H    0.378107
     6  H    0.378743
 Sum of Mulliken charges =  -0.00000

 Dipole moment (field-independent basis, Debye):
    X=              0.9018    Y=             -4.0154    Z=              0.0000  Tot=              4.1154
 Quadrupole moment (field-independent basis, Debye-Ang):
   XX=             -9.6704   YY=             -7.4376   ZZ=            -14.9969
   XY=              7.3630   XZ=              0.0000   YZ=              0.0000

 9688\MP4DQ=-33.8957242\MP4SDQ=-33.8977711\CCSD=-33.8988052\CCSD(T)=-33
 Normal termination of Gaussian 16 at Sun Dec 10 06:21:33 2023.
