 Gaussian 16, Revision A.03,
 Gaussian 16:  ES64L-G16RevA.03 25-Dec-2016

 ------------------
 #p CCSD(T)/CEP-31G
 ------------------

 ------------
 H2O_H2O_3604
 ------------
 Symbolic Z-matrix:
 Charge =  0 Multiplicity = 1

                         Standard orientation:
 ---------------------------------------------------------------------
 Center     Atomic      Atomic             Coordinates (Angstroms)
 Number     Number       Type             X           Y           Z
 ---------------------------------------------------------------------
      1          8           0        0.082801    2.534636    0.000000
      2          1           0        0.082451    1.552035    0.000000
      3          1           0       -0.846578    2.853634   -0.000000
      4          8           0        0.082801   -2.380113    0.000000
      5          1           0        0.336779   -3.329325    0.000000
      6          1           0       -0.897474   -2.312526   -0.000000
 ---------------------------------------------------------------------

 SCF Done:  E(RHF) =  -33.6528753987     A.U. after   11 cycles
 E2 =    -0.2283443088D+00 EUMP2 =    -0.33881219707563D+02
 CCSD(T)
 CCSD(T)= -0.33898190900D+02

 The electronic state is 1-A'.
 Alpha  occ. eigenvalues --   -1.36522  -1.34740  -0.72177  -0.70349  -0.56325
 Alpha  occ. eigenvalues --   -0.54494  -0.51106  -0.49321
 Alpha virt. eigenvalues --    0.18958   0.21386   0.29537   0.31466   0.79465
 Alpha virt. eigenvalues --    0.81202   0.82321   0.84217   0.85428   0.87523
 Alpha virt. eigenvalues --    1.16371   1.18337   1.20840   1.23361   2.56314

 Mulliken charges:
               1
     1  O   -0.745445
     2  H    0.379748
     3  H    0.365559
     4  O   -0.745667
     5  H    0.376836
     6  H    0.368968
 Sum of Mulliken charges =  -0.00000

 Dipole moment (field-independent basis, Debye):
    X=             -3.7960    Y=             -3.6567    Z=             -0.0000  Tot=              5.2707
 Quadrupole moment (field-independent basis, Debye-Ang):
   XX=            -10.6423   YY=             -7.8353   ZZ=            -14.9902
   XY=             -3.5202   XZ=              0.0000   YZ=             -0.0000

 8046\MP4DQ=-33.892549\MP4SDQ=-33.8945776\CCSD=-33.895628\CCSD(T)=-33.8
 Normal termination of Gaussian 16 at Sun Dec 10 06:37:51 2023.
