 Gaussian 16, Revision A.03,
 Gaussian 16:  ES64L-G16RevA.03 25-Dec-2016

 ------------------
 #p CCSD(T)/CEP-31G
 ------------------

 ------------
 H2O_H2O_2128
 ------------
 Symbolic Z-matrix:
 Charge =  0 Multiplicity = 1

                         Standard orientation:
 ---------------------------------------------------------------------
 Center     Atomic      Atomic             Coordinates (Angstroms)
 Number     Number       Type             X           Y           Z
 ---------------------------------------------------------------------
      1          8           0        0.085605   -1.943612    0.000000
      2          1           0        0.085272   -0.961010    0.000000
      3          1           0       -0.843779   -2.262594    0.000000
      4          8           0        0.085605    1.794025    0.000000
      5          1           0        0.276974    2.757811    0.000000
      6          1           0       -0.888152    1.662485    0.000000
 ---------------------------------------------------------------------

 SCF Done:  E(RHF) =  -33.6542948522     A.U. after   11 cycles
 E2 =    -0.2286724123D+00 EUMP2 =    -0.33882967264558D+02
 CCSD(T)
 CCSD(T)= -0.33899965001D+02

 The electronic state is 1-A'.
 Alpha  occ. eigenvalues --   -1.37351  -1.34143  -0.73077  -0.69702  -0.57269
 Alpha  occ. eigenvalues --   -0.53879  -0.51940  -0.48724
 Alpha virt. eigenvalues --    0.17162   0.23337   0.28832   0.33613   0.78428
 Alpha virt. eigenvalues --    0.82046   0.82759   0.84763   0.88201   0.91173
 Alpha virt. eigenvalues --    1.15411   1.19002   1.20565   1.34817   2.54117

 Mulliken charges:
               1
     1  O   -0.753155
     2  H    0.392068
     3  H    0.359125
     4  O   -0.752332
     5  H    0.386128
     6  H    0.368166
 Sum of Mulliken charges =   0.00000

 Dipole moment (field-independent basis, Debye):
    X=             -3.8843    Y=              3.6702    Z=              0.0000  Tot=              5.3440
 Quadrupole moment (field-independent basis, Debye-Ang):
   XX=            -10.8269   YY=             -8.6742   ZZ=            -14.9916
   XY=              2.9986   XZ=              0.0000   YZ=              0.0000

 79\MP4DQ=-33.894234\MP4SDQ=-33.896322\CCSD=-33.8973505\CCSD(T)=-33.899
 Normal termination of Gaussian 16 at Sun Dec 10 06:59:07 2023.
