 Gaussian 16, Revision A.03,
 Gaussian 16:  ES64L-G16RevA.03 25-Dec-2016

 ------------------
 #p CCSD(T)/CEP-31G
 ------------------

 ------------
 H2O_H2O_4287
 ------------
 Symbolic Z-matrix:
 Charge =  0 Multiplicity = 1

                         Standard orientation:
 ---------------------------------------------------------------------
 Center     Atomic      Atomic             Coordinates (Angstroms)
 Number     Number       Type             X           Y           Z
 ---------------------------------------------------------------------
      1          8           0        0.055968    2.817140    0.000000
      2          1           0        0.054818    1.834539    0.000000
      3          1           0       -0.873151    3.136894    0.000000
      4          8           0        0.055968   -2.638205    0.000000
      5          1           0        0.749959   -3.333822    0.000000
      6          1           0       -0.827119   -3.069091    0.000000
 ---------------------------------------------------------------------

 SCF Done:  E(RHF) =  -33.6533319991     A.U. after   11 cycles
 E2 =    -0.2283026412D+00 EUMP2 =    -0.33881634640294D+02
 CCSD(T)
 CCSD(T)= -0.33898591012D+02

 The electronic state is 1-A'.
 Alpha  occ. eigenvalues --   -1.36305  -1.34617  -0.71946  -0.70242  -0.56130
 Alpha  occ. eigenvalues --   -0.54398  -0.50900  -0.49211
 Alpha virt. eigenvalues --    0.19522   0.21304   0.29797   0.31581   0.79656
 Alpha virt. eigenvalues --    0.81304   0.82491   0.84305   0.85687   0.87434
 Alpha virt. eigenvalues --    1.16663   1.18356   1.21103   1.22898   2.56629

 Mulliken charges:
               1
     1  O   -0.747156
     2  H    0.379634
     3  H    0.367497
     4  O   -0.746651
     5  H    0.374953
     6  H    0.371723
 Sum of Mulliken charges =   0.00000

 Dipole moment (field-independent basis, Debye):
    X=             -2.5693    Y=             -4.2038    Z=              0.0000  Tot=              4.9268
 Quadrupole moment (field-independent basis, Debye-Ang):
   XX=             -9.5848   YY=             -5.4257   ZZ=            -14.9917
   XY=             -6.3203   XZ=              0.0000   YZ=              0.0000

 01\MP4DQ=-33.8929574\MP4SDQ=-33.8949816\CCSD=-33.8960334\CCSD(T)=-33.8
 Normal termination of Gaussian 16 at Sun Dec 10 06:50:10 2023.
