 Gaussian 16, Revision A.03,
 Gaussian 16:  ES64L-G16RevA.03 25-Dec-2016

 ------------------
 #p CCSD(T)/CEP-31G
 ------------------

 ------------
 H2O_H2O_1495
 ------------
 Symbolic Z-matrix:
 Charge =  0 Multiplicity = 1

                         Standard orientation:
 ---------------------------------------------------------------------
 Center     Atomic      Atomic             Coordinates (Angstroms)
 Number     Number       Type             X           Y           Z
 ---------------------------------------------------------------------
      1          8           0        0.026746    1.697164    0.000000
      2          1           0        0.023252    0.714569    0.000000
      3          1           0       -0.901609    2.019133    0.000000
      4          8           0        0.026746   -1.523993   -0.000000
      5          1           0        0.974955   -1.781682   -0.000000
      6          1           0       -0.524529   -2.337383   -0.000000
 ---------------------------------------------------------------------

 SCF Done:  E(RHF) =  -33.6614026128     A.U. after   11 cycles
 E2 =    -0.2287491654D+00 EUMP2 =    -0.33890151778250D+02
 CCSD(T)
 CCSD(T)= -0.33906936069D+02

 The electronic state is 1-A'.
 Alpha  occ. eigenvalues --   -1.37942  -1.32423  -0.73624  -0.68296  -0.58449
 Alpha  occ. eigenvalues --   -0.52639  -0.52230  -0.47110
 Alpha virt. eigenvalues --    0.17885   0.25226   0.28615   0.38991   0.77100
 Alpha virt. eigenvalues --    0.80382   0.84266   0.86458   0.89866   1.00388
 Alpha virt. eigenvalues --    1.15386   1.18786   1.21620   1.35369   2.50275

 Mulliken charges:
               1
     1  O   -0.781567
     2  H    0.418449
     3  H    0.360629
     4  O   -0.783331
     5  H    0.389766
     6  H    0.396054
 Sum of Mulliken charges =   0.00000

 Dipole moment (field-independent basis, Debye):
    X=             -1.1976    Y=             -4.3786    Z=             -0.0000  Tot=              4.5394
 Quadrupole moment (field-independent basis, Debye-Ang):
   XX=             -9.4981   YY=             -8.2031   ZZ=            -15.0089
   XY=             -5.4049   XZ=             -0.0000   YZ=              0.0000

 355\MP4DQ=-33.9011606\MP4SDQ=-33.9032576\CCSD=-33.9042609\CCSD(T)=-33.
 Normal termination of Gaussian 16 at Sun Dec 10 06:46:58 2023.
