 Gaussian 16, Revision A.03,
 Gaussian 16:  ES64L-G16RevA.03 25-Dec-2016

 ------------------
 #p CCSD(T)/CEP-31G
 ------------------

 ------------
 H2O_H2O_3846
 ------------
 Symbolic Z-matrix:
 Charge =  0 Multiplicity = 1

                         Standard orientation:
 ---------------------------------------------------------------------
 Center     Atomic      Atomic             Coordinates (Angstroms)
 Number     Number       Type             X           Y           Z
 ---------------------------------------------------------------------
      1          8           0       -0.023184    2.633015    0.000000
      2          1           0       -0.020861    1.650416    0.000000
      3          1           0        0.905553    2.953878    0.000000
      4          8           0       -0.023184   -2.462615    0.000000
      5          1           0       -0.986450   -2.656588    0.000000
      6          1           0        0.472702   -3.310909    0.000000
 ---------------------------------------------------------------------

 SCF Done:  E(RHF) =  -33.6540541237     A.U. after   11 cycles
 E2 =    -0.2282751238D+00 EUMP2 =    -0.33882329247518D+02
 CCSD(T)
 CCSD(T)= -0.33899266765D+02

 The electronic state is 1-A'.
 Alpha  occ. eigenvalues --   -1.36397  -1.34533  -0.72040  -0.70171  -0.56261
 Alpha  occ. eigenvalues --   -0.54343  -0.51001  -0.49143
 Alpha virt. eigenvalues --    0.19380   0.21480   0.29730   0.31730   0.79555
 Alpha virt. eigenvalues --    0.81361   0.82313   0.84340   0.85560   0.87471
 Alpha virt. eigenvalues --    1.16598   1.18513   1.21005   1.23249   2.56545

 Mulliken charges:
               1
     1  O   -0.749953
     2  H    0.380796
     3  H    0.369062
     4  O   -0.749162
     5  H    0.374734
     6  H    0.374523
 Sum of Mulliken charges =  -0.00000

 Dipole moment (field-independent basis, Debye):
    X=              1.0616    Y=             -4.0149    Z=              0.0000  Tot=              4.1528
 Quadrupole moment (field-independent basis, Debye-Ang):
   XX=             -9.5960   YY=             -6.4423   ZZ=            -14.9931
   XY=              8.6245   XZ=              0.0000   YZ=              0.0000

 6\MP4DQ=-33.893636\MP4SDQ=-33.89566\CCSD=-33.8967094\CCSD(T)=-33.89926
 Normal termination of Gaussian 16 at Sun Dec 10 06:42:13 2023.
