 Gaussian 16, Revision A.03,
 Gaussian 16:  ES64L-G16RevA.03 25-Dec-2016

 ------------------
 #p CCSD(T)/CEP-31G
 ------------------

 ------------
 H2O_H2O_4649
 ------------
 Symbolic Z-matrix:
 Charge =  0 Multiplicity = 1

                         Standard orientation:
 ---------------------------------------------------------------------
 Center     Atomic      Atomic             Coordinates (Angstroms)
 Number     Number       Type             X           Y           Z
 ---------------------------------------------------------------------
      1          8           0       -0.013468    2.946076    0.000000
      2          1           0       -0.011117    1.963478    0.000000
      3          1           0        0.915259    3.266966    0.000000
      4          8           0       -0.013468   -2.786797    0.000000
      5          1           0       -0.996068   -2.789148    0.000000
      6          1           0        0.307421   -3.715525    0.000000
 ---------------------------------------------------------------------

 SCF Done:  E(RHF) =  -33.6532622086     A.U. after   11 cycles
 E2 =    -0.2282937867D+00 EUMP2 =    -0.33881555995299D+02
 CCSD(T)
 CCSD(T)= -0.33898516281D+02

 The electronic state is 1-A'.
 Alpha  occ. eigenvalues --   -1.36222  -1.34884  -0.71863  -0.70524  -0.56038
 Alpha  occ. eigenvalues --   -0.54673  -0.50815  -0.49482
 Alpha virt. eigenvalues --    0.19615   0.21004   0.29883   0.31272   0.79735
 Alpha virt. eigenvalues --    0.81040   0.82610   0.84024   0.85759   0.87115
 Alpha virt. eigenvalues --    1.16743   1.18088   1.21187   1.22572   2.56703

 Mulliken charges:
               1
     1  O   -0.746850
     2  H    0.376553
     3  H    0.370292
     4  O   -0.746560
     5  H    0.372943
     6  H    0.373622
 Sum of Mulliken charges =  -0.00000

 Dipole moment (field-independent basis, Debye):
    X=              0.6189    Y=             -3.7289    Z=              0.0000  Tot=              3.7799
 Quadrupole moment (field-independent basis, Debye-Ang):
   XX=             -9.8772   YY=             -6.9168   ZZ=            -14.9914
   XY=             10.6850   XZ=              0.0000   YZ=              0.0000

 35\MP4DQ=-33.8928821\MP4SDQ=-33.894906\CCSD=-33.8959588\CCSD(T)=-33.89
 Normal termination of Gaussian 16 at Sun Dec 10 06:56:41 2023.
