 Gaussian 16, Revision A.03,
 Gaussian 16:  ES64L-G16RevA.03 25-Dec-2016

 ------------------
 #p CCSD(T)/CEP-31G
 ------------------

 ------------
 H2O_H2O_2795
 ------------
 Symbolic Z-matrix:
 Charge =  0 Multiplicity = 1

                         Standard orientation:
 ---------------------------------------------------------------------
 Center     Atomic      Atomic             Coordinates (Angstroms)
 Number     Number       Type             X           Y           Z
 ---------------------------------------------------------------------
      1          8           0        0.026671    2.215725   -0.000000
      2          1           0        0.024028    1.233127   -0.000000
      3          1           0       -0.901962    2.536890   -0.000000
      4          8           0        0.026671   -2.042508    0.000000
      5          1           0        0.975104   -2.299375    0.000000
      6          1           0       -0.523900   -2.856375    0.000000
 ---------------------------------------------------------------------

 SCF Done:  E(RHF) =  -33.6559828384     A.U. after   11 cycles
 E2 =    -0.2283377632D+00 EUMP2 =    -0.33884320601602D+02
 CCSD(T)
 CCSD(T)= -0.33901218334D+02

 The electronic state is 1-A'.
 Alpha  occ. eigenvalues --   -1.36806  -1.33947  -0.72456  -0.69584  -0.56789
 Alpha  occ. eigenvalues --   -0.53796  -0.51437  -0.48582
 Alpha virt. eigenvalues --    0.18583   0.22546   0.29411   0.32642   0.79120
 Alpha virt. eigenvalues --    0.81904   0.82965   0.84503   0.85780   0.87955
 Alpha virt. eigenvalues --    1.16237   1.19488   1.20662   1.27214   2.55596

 Mulliken charges:
               1
     1  O   -0.757930
     2  H    0.389693
     3  H    0.367118
     4  O   -0.754797
     5  H    0.378331
     6  H    0.377585
 Sum of Mulliken charges =  -0.00000

 Dipole moment (field-independent basis, Debye):
    X=             -1.2118    Y=             -4.1549    Z=              0.0000  Tot=              4.3280
 Quadrupole moment (field-independent basis, Debye-Ang):
   XX=             -9.5206   YY=             -7.0334   ZZ=            -14.9968
   XY=             -7.0417   XZ=              0.0000   YZ=             -0.0000

 8135\MP4DQ=-33.8955692\MP4SDQ=-33.8976122\CCSD=-33.8986476\CCSD(T)=-33
 Normal termination of Gaussian 16 at Sun Dec 10 06:23:18 2023.
