 Gaussian 16, Revision A.03,
 Gaussian 16:  ES64L-G16RevA.03 25-Dec-2016

 ------------------
 #p CCSD(T)/CEP-31G
 ------------------

 -----------
 H2O_H2O_947
 -----------
 Symbolic Z-matrix:
 Charge =  0 Multiplicity = 1

                         Standard orientation:
 ---------------------------------------------------------------------
 Center     Atomic      Atomic             Coordinates (Angstroms)
 Number     Number       Type             X           Y           Z
 ---------------------------------------------------------------------
      1          8           0       -0.020007    1.474453    0.000000
      2          1           0       -0.015548    0.491861    0.000000
      3          1           0        0.908030    1.797334    0.000000
      4          8           0       -0.020007   -1.307419    0.000000
      5          1           0       -0.993611   -1.440094    0.000000
      6          1           0        0.421245   -2.185373    0.000000
 ---------------------------------------------------------------------

 SCF Done:  E(RHF) =  -33.6617563283     A.U. after   11 cycles
 E2 =    -0.2286885015D+00 EUMP2 =    -0.33890444829871D+02
 CCSD(T)
 CCSD(T)= -0.33906929780D+02

 The electronic state is 1-A'.
 Alpha  occ. eigenvalues --   -1.39141  -1.31275  -0.75035  -0.68199  -0.59470
 Alpha  occ. eigenvalues --   -0.53816  -0.50785  -0.45939
 Alpha virt. eigenvalues --    0.17591   0.26685   0.27787   0.45894   0.75239
 Alpha virt. eigenvalues --    0.77620   0.86417   0.86616   0.92075   1.07765
 Alpha virt. eigenvalues --    1.16183   1.19742   1.23728   1.36821   2.54777

 Mulliken charges:
               1
     1  O   -0.782190
     2  H    0.417305
     3  H    0.356296
     4  O   -0.816130
     5  H    0.399674
     6  H    0.425045
 Sum of Mulliken charges =  -0.00000

 Dipole moment (field-independent basis, Debye):
    X=              0.8954    Y=             -4.4611    Z=              0.0000  Tot=              4.5501
 Quadrupole moment (field-independent basis, Debye-Ang):
   XX=             -9.6313   YY=             -8.9353   ZZ=            -15.0157
   XY=              4.8980   XZ=              0.0000   YZ=              0.0000

 674\MP4DQ=-33.9010553\MP4SDQ=-33.9031992\CCSD=-33.904141\CCSD(T)=-33.9
 Normal termination of Gaussian 16 at Sun Dec 10 06:36:19 2023.
