 Gaussian 16, Revision A.03,
 Gaussian 16:  ES64L-G16RevA.03 25-Dec-2016

 ------------------
 #p CCSD(T)/CEP-31G
 ------------------

 ------------
 H2O_H2O_1320
 ------------
 Symbolic Z-matrix:
 Charge =  0 Multiplicity = 1

                         Standard orientation:
 ---------------------------------------------------------------------
 Center     Atomic      Atomic             Coordinates (Angstroms)
 Number     Number       Type             X           Y           Z
 ---------------------------------------------------------------------
      1          8           0        0.026759    1.627357    0.000000
      2          1           0        0.023108    0.644762    0.000000
      3          1           0       -0.901543    1.949475    0.000000
      4          8           0        0.026759   -1.454195   -0.000000
      5          1           0        0.974928   -1.712036    0.000000
      6          1           0       -0.524645   -2.267496   -0.000000
 ---------------------------------------------------------------------

 SCF Done:  E(RHF) =  -33.6622658282     A.U. after   11 cycles
 E2 =    -0.2288065685D+00 EUMP2 =    -0.33891072396743D+02
 CCSD(T)
 CCSD(T)= -0.33907784223D+02

 The electronic state is 1-A'.
 Alpha  occ. eigenvalues --   -1.38232  -1.32064  -0.73925  -0.68136  -0.58812
 Alpha  occ. eigenvalues --   -0.52942  -0.51815  -0.46751
 Alpha virt. eigenvalues --    0.17814   0.25693   0.28403   0.40904   0.76555
 Alpha virt. eigenvalues --    0.79424   0.84950   0.86416   0.90820   1.03200
 Alpha virt. eigenvalues --    1.15448   1.18267   1.22086   1.35528   2.50437

 Mulliken charges:
               1
     1  O   -0.784414
     2  H    0.422969
     3  H    0.358739
     4  O   -0.792530
     5  H    0.392948
     6  H    0.402287
 Sum of Mulliken charges =  -0.00000

 Dipole moment (field-independent basis, Debye):
    X=             -1.1961    Y=             -4.4352    Z=             -0.0000  Tot=              4.5937
 Quadrupole moment (field-independent basis, Debye-Ang):
   XX=             -9.4920   YY=             -8.4015   ZZ=            -15.0120
   XY=             -5.1735   XZ=              0.0000   YZ=             -0.0000

 2709\MP4DQ=-33.901984\MP4SDQ=-33.9040887\CCSD=-33.9050777\CCSD(T)=-33.
 Normal termination of Gaussian 16 at Sun Dec 10 06:43:30 2023.
