 Gaussian 16, Revision A.03,
 Gaussian 16:  ES64L-G16RevA.03 25-Dec-2016

 ------------------
 #p CCSD(T)/CEP-31G
 ------------------

 ------------
 H2O_H2O_3622
 ------------
 Symbolic Z-matrix:
 Charge =  0 Multiplicity = 1

                         Standard orientation:
 ---------------------------------------------------------------------
 Center     Atomic      Atomic             Coordinates (Angstroms)
 Number     Number       Type             X           Y           Z
 ---------------------------------------------------------------------
      1          8           0       -0.019843    2.541482    0.000000
      2          1           0       -0.017319    1.558884    0.000000
      3          1           0        0.908829    2.862535    0.000000
      4          8           0       -0.019843   -2.374370    0.000000
      5          1           0       -0.993705   -2.505127    0.000000
      6          1           0        0.419680   -3.253191    0.000000
 ---------------------------------------------------------------------

 SCF Done:  E(RHF) =  -33.6543125663     A.U. after   11 cycles
 E2 =    -0.2282734566D+00 EUMP2 =    -0.33882586022823D+02
 CCSD(T)
 CCSD(T)= -0.33899517165D+02

 The electronic state is 1-A'.
 Alpha  occ. eigenvalues --   -1.36462  -1.34486  -0.72106  -0.70126  -0.56339
 Alpha  occ. eigenvalues --   -0.54304  -0.51069  -0.49100
 Alpha virt. eigenvalues --    0.19228   0.21607   0.29668   0.31810   0.79490
 Alpha virt. eigenvalues --    0.81399   0.82248   0.84354   0.85505   0.87530
 Alpha virt. eigenvalues --    1.16535   1.18622   1.20931   1.23603   2.56495

 Mulliken charges:
               1
     1  O   -0.750968
     2  H    0.381585
     3  H    0.369212
     4  O   -0.750095
     5  H    0.374999
     6  H    0.375267
 Sum of Mulliken charges =   0.00000

 Dipole moment (field-independent basis, Debye):
    X=              0.9075    Y=             -3.9466    Z=              0.0000  Tot=              4.0496
 Quadrupole moment (field-independent basis, Debye-Ang):
   XX=             -9.6770   YY=             -6.8388   ZZ=            -14.9936
   XY=              8.6143   XZ=              0.0000   YZ=              0.0000

 344\MP4DQ=-33.8938858\MP4SDQ=-33.8959111\CCSD=-33.8969588\CCSD(T)=-33.
 Normal termination of Gaussian 16 at Sun Dec 10 06:38:10 2023.
