 Gaussian 16, Revision A.03,
 Gaussian 16:  ES64L-G16RevA.03 25-Dec-2016

 ------------------
 #p CCSD(T)/CEP-31G
 ------------------

 ------------
 H2O_H2O_4250
 ------------
 Symbolic Z-matrix:
 Charge =  0 Multiplicity = 1

                         Standard orientation:
 ---------------------------------------------------------------------
 Center     Atomic      Atomic             Coordinates (Angstroms)
 Number     Number       Type             X           Y           Z
 ---------------------------------------------------------------------
      1          8           0        0.092949   -2.782100    0.000000
      2          1           0        0.092949   -1.799499    0.000000
      3          1           0       -0.836544   -3.100767    0.000000
      4          8           0        0.092949    2.649313    0.000000
      5          1           0        0.092949    3.631915    0.000000
      6          1           0       -0.836544    2.330646    0.000000
 ---------------------------------------------------------------------

 SCF Done:  E(RHF) =  -33.6519907014     A.U. after   11 cycles
 E2 =    -0.2283645205D+00 EUMP2 =    -0.33880355221828D+02
 CCSD(T)
 CCSD(T)= -0.33897352305D+02

 The electronic state is 1-A'.
 Alpha  occ. eigenvalues --   -1.36363  -1.35161  -0.72013  -0.70776  -0.56117
 Alpha  occ. eigenvalues --   -0.54892  -0.50935  -0.49730
 Alpha virt. eigenvalues --    0.19228   0.20797   0.29653   0.30935   0.79632
 Alpha virt. eigenvalues --    0.80812   0.82586   0.83832   0.85635   0.87047
 Alpha virt. eigenvalues --    1.16499   1.17790   1.20987   1.22347   2.56195

 Mulliken charges:
               1
     1  O   -0.741990
     2  H    0.374920
     3  H    0.367058
     4  O   -0.742397
     5  H    0.374910
     6  H    0.367499
 Sum of Mulliken charges =  -0.00000

 Dipole moment (field-independent basis, Debye):
    X=             -4.2738    Y=              3.1228    Z=              0.0000  Tot=              5.2932
 Quadrupole moment (field-independent basis, Debye-Ang):
   XX=            -11.2828   YY=             -9.6336   ZZ=            -14.9883
   XY=              2.3067   XZ=              0.0000   YZ=              0.0000

 9667\MP4DQ=-33.8917075\MP4SDQ=-33.8937353\CCSD=-33.8947898\CCSD(T)=-33
 Normal termination of Gaussian 16 at Sun Dec 10 06:49:30 2023.
