 Gaussian 16, Revision A.03,
 Gaussian 16:  ES64L-G16RevA.03 25-Dec-2016

 ------------------
 #p CCSD(T)/CEP-31G
 ------------------

 ------------
 H2O_H2O_1109
 ------------
 Symbolic Z-matrix:
 Charge =  0 Multiplicity = 1

                         Standard orientation:
 ---------------------------------------------------------------------
 Center     Atomic      Atomic             Coordinates (Angstroms)
 Number     Number       Type             X           Y           Z
 ---------------------------------------------------------------------
      1          8           0        0.066808    1.547501   -0.000000
      2          1           0        0.065286    0.564901   -0.000000
      3          1           0       -0.862191    1.867606   -0.000000
      4          8           0        0.066808   -1.374470    0.000000
      5          1           0        0.611447   -2.192319    0.000000
      6          1           0       -0.883467   -1.624436    0.000000
 ---------------------------------------------------------------------

 SCF Done:  E(RHF) =  -33.6603849937     A.U. after   11 cycles
 E2 =    -0.2290565075D+00 EUMP2 =    -0.33889441501147D+02
 CCSD(T)
 CCSD(T)= -0.33906092420D+02

 The electronic state is 1-A'.
 Alpha  occ. eigenvalues --   -1.38765  -1.31815  -0.74494  -0.68239  -0.59056
 Alpha  occ. eigenvalues --   -0.53438  -0.51387  -0.46417
 Alpha virt. eigenvalues --    0.17420   0.25962   0.27909   0.43312   0.75814
 Alpha virt. eigenvalues --    0.78450   0.85349   0.85760   0.93543   1.05773
 Alpha virt. eigenvalues --    1.15344   1.18205   1.21854   1.36006   2.51516

 Mulliken charges:
               1
     1  O   -0.775462
     2  H    0.427570
     3  H    0.345732
     4  O   -0.799691
     5  H    0.417316
     6  H    0.384534
 Sum of Mulliken charges =  -0.00000

 Dipole moment (field-independent basis, Debye):
    X=             -2.9304    Y=             -4.5244    Z=              0.0000  Tot=              5.3905
 Quadrupole moment (field-independent basis, Debye-Ang):
   XX=             -9.8911   YY=             -8.6727   ZZ=            -15.0098
   XY=             -3.7989   XZ=              0.0000   YZ=             -0.0000

 1\MP4DQ=-33.9002278\MP4SDQ=-33.9023652\CCSD=-33.9033309\CCSD(T)=-33.90
 Normal termination of Gaussian 16 at Sun Dec 10 06:39:22 2023.
