 Gaussian 16, Revision A.03,
 Gaussian 16:  ES64L-G16RevA.03 25-Dec-2016

 ------------------
 #p CCSD(T)/CEP-31G
 ------------------

 ------------
 H2O_H2O_1584
 ------------
 Symbolic Z-matrix:
 Charge =  0 Multiplicity = 1

                         Standard orientation:
 ---------------------------------------------------------------------
 Center     Atomic      Atomic             Coordinates (Angstroms)
 Number     Number       Type             X           Y           Z
 ---------------------------------------------------------------------
      1          8           0        0.066792    1.736980    0.000000
      2          1           0        0.065446    0.754380    0.000000
      3          1           0       -0.862263    2.056920   -0.000000
      4          8           0        0.066792   -1.563926    0.000000
      5          1           0        0.611577   -2.381676    0.000000
      6          1           0       -0.883438   -1.814059   -0.000000
 ---------------------------------------------------------------------

 SCF Done:  E(RHF) =  -33.6589364036     A.U. after   11 cycles
 E2 =    -0.2288421578D+00 EUMP2 =    -0.33887778561416D+02
 CCSD(T)
 CCSD(T)= -0.33904643418D+02

 The electronic state is 1-A'.
 Alpha  occ. eigenvalues --   -1.37886  -1.32771  -0.73580  -0.68499  -0.58195
 Alpha  occ. eigenvalues --   -0.52543  -0.52520  -0.47399
 Alpha virt. eigenvalues --    0.17701   0.24751   0.28535   0.37878   0.77339
 Alpha virt. eigenvalues --    0.81168   0.83852   0.85538   0.90629   0.98373
 Alpha virt. eigenvalues --    1.15117   1.19301   1.20932   1.35533   2.50151

 Mulliken charges:
               1
     1  O   -0.771642
     2  H    0.415821
     3  H    0.353820
     4  O   -0.773988
     5  H    0.397942
     6  H    0.378047
 Sum of Mulliken charges =  -0.00000

 Dipole moment (field-independent basis, Debye):
    X=             -2.9859    Y=             -4.3593    Z=             -0.0000  Tot=              5.2838
 Quadrupole moment (field-independent basis, Debye-Ang):
   XX=             -9.8974   YY=             -8.1211   ZZ=            -15.0031
   XY=             -4.0230   XZ=              0.0000   YZ=             -0.0000

 395\MP4DQ=-33.898862\MP4SDQ=-33.9009654\CCSD=-33.9019768\CCSD(T)=-33.9
 Normal termination of Gaussian 16 at Sun Dec 10 06:48:46 2023.
