 Gaussian 16, Revision A.03,
 Gaussian 16:  ES64L-G16RevA.03 25-Dec-2016

 ------------------
 #p CCSD(T)/CEP-31G
 ------------------

 ------------
 H2O_H2O_4622
 ------------
 Symbolic Z-matrix:
 Charge =  0 Multiplicity = 1

                         Standard orientation:
 ---------------------------------------------------------------------
 Center     Atomic      Atomic             Coordinates (Angstroms)
 Number     Number       Type             X           Y           Z
 ---------------------------------------------------------------------
      1          8           0       -0.019813    2.940366    0.000000
      2          1           0       -0.017642    1.957767    0.000000
      3          1           0        0.908974    3.261085    0.000000
      4          8           0       -0.019813   -2.773240    0.000000
      5          1           0       -0.993722   -2.903646    0.000000
      6          1           0        0.419395   -3.652218    0.000000
 ---------------------------------------------------------------------

 SCF Done:  E(RHF) =  -33.6533324003     A.U. after   11 cycles
 E2 =    -0.2282929304D+00 EUMP2 =    -0.33881625330718D+02
 CCSD(T)
 CCSD(T)= -0.33898583088D+02

 The electronic state is 1-A'.
 Alpha  occ. eigenvalues --   -1.36226  -1.34804  -0.71867  -0.70442  -0.56047
 Alpha  occ. eigenvalues --   -0.54594  -0.50821  -0.49402
 Alpha virt. eigenvalues --    0.19618   0.21090   0.29880   0.31365   0.79730
 Alpha virt. eigenvalues --    0.81117   0.82594   0.84102   0.85761   0.87196
 Alpha virt. eigenvalues --    1.16742   1.18169   1.21183   1.22661   2.56707

 Mulliken charges:
               1
     1  O   -0.747127
     2  H    0.377312
     3  H    0.369808
     4  O   -0.746714
     5  H    0.373333
     6  H    0.373388
 Sum of Mulliken charges =   0.00000

 Dipole moment (field-independent basis, Debye):
    X=              0.9100    Y=             -3.9142    Z=              0.0000  Tot=              4.0186
 Quadrupole moment (field-independent basis, Debye-Ang):
   XX=             -9.6808   YY=             -6.1929   ZZ=            -14.9916
   XY=              9.9667   XZ=              0.0000   YZ=              0.0000

 2022\MP4DQ=-33.8929496\MP4SDQ=-33.8949734\CCSD=-33.8960259\CCSD(T)=-33
 Normal termination of Gaussian 16 at Sun Dec 10 06:56:12 2023.
