 Gaussian 16, Revision A.03,
 Gaussian 16:  ES64L-G16RevA.03 25-Dec-2016

 ------------------
 #p CCSD(T)/CEP-31G
 ------------------

 ------------
 H2O_H2O_1888
 ------------
 Symbolic Z-matrix:
 Charge =  0 Multiplicity = 1

                         Standard orientation:
 ---------------------------------------------------------------------
 Center     Atomic      Atomic             Coordinates (Angstroms)
 Number     Number       Type             X           Y           Z
 ---------------------------------------------------------------------
      1          8           0        0.052337    1.860334    0.000000
      2          1           0        0.050388    0.877734    0.000000
      3          1           0       -0.876522    2.180843   -0.000000
      4          8           0        0.052337   -1.680488    0.000000
      5          1           0        0.789810   -2.329827    0.000000
      6          1           0       -0.801074   -2.167515   -0.000000
 ---------------------------------------------------------------------

 SCF Done:  E(RHF) =  -33.6588467728     A.U. after   11 cycles
 E2 =    -0.2286560554D+00 EUMP2 =    -0.33887502828229D+02
 CCSD(T)
 CCSD(T)= -0.33904362939D+02

 The electronic state is 1-A'.
 Alpha  occ. eigenvalues --   -1.37496  -1.32955  -0.73147  -0.68622  -0.57761
 Alpha  occ. eigenvalues --   -0.52780  -0.52162  -0.47606
 Alpha virt. eigenvalues --    0.18077   0.24212   0.28901   0.35920   0.78070
 Alpha virt. eigenvalues --    0.82498   0.83211   0.85903   0.89505   0.91481
 Alpha virt. eigenvalues --    1.15590   1.20111   1.20478   1.33125   2.51072

 Mulliken charges:
               1
     1  O   -0.770980
     2  H    0.410044
     3  H    0.358742
     4  O   -0.766185
     5  H    0.388562
     6  H    0.379817
 Sum of Mulliken charges =   0.00000

 Dipole moment (field-independent basis, Debye):
    X=             -2.3534    Y=             -4.4514    Z=             -0.0000  Tot=              5.0352
 Quadrupole moment (field-independent basis, Debye-Ang):
   XX=             -9.5047   YY=             -7.5990   ZZ=            -15.0027
   XY=             -4.8266   XZ=              0.0000   YZ=             -0.0000

 898\MP4DQ=-33.8986377\MP4SDQ=-33.9007159\CCSD=-33.9017363\CCSD(T)=-33.
 Normal termination of Gaussian 16 at Sun Dec 10 06:54:31 2023.
