 Gaussian 16, Revision A.03,
 Gaussian 16:  ES64L-G16RevA.03 25-Dec-2016

 ------------------
 #p CCSD(T)/CEP-31G
 ------------------

 -----------
 H2O_H2O_130
 -----------
 Symbolic Z-matrix:
 Charge =  0 Multiplicity = 1

                         Standard orientation:
 ---------------------------------------------------------------------
 Center     Atomic      Atomic             Coordinates (Angstroms)
 Number     Number       Type             X           Y           Z
 ---------------------------------------------------------------------
      1          8           0        0.079896   -1.150959    0.000000
      2          1           0        0.078859   -0.168358    0.000000
      3          1           0       -0.849260   -1.470606    0.000000
      4          8           0        0.079896    0.991986    0.000000
      5          1           0        0.394760    1.922775    0.000000
      6          1           0       -0.902698    0.987970    0.000000
 ---------------------------------------------------------------------

 SCF Done:  E(RHF) =  -33.5977739418     A.U. after   11 cycles
 E2 =    -0.2280294565D+00 EUMP2 =    -0.33825803398315D+02
 CCSD(T)
 CCSD(T)= -0.33840971038D+02

 The electronic state is 1-A'.
 Alpha  occ. eigenvalues --   -1.45706  -1.28483  -0.83056  -0.73419  -0.58480
 Alpha  occ. eigenvalues --   -0.55831  -0.46138  -0.42509
 Alpha virt. eigenvalues --    0.16008   0.23684   0.29934   0.60561   0.73133
 Alpha virt. eigenvalues --    0.74823   0.88988   0.90733   0.96727   1.08210
 Alpha virt. eigenvalues --    1.11274   1.21695   1.26993   1.41783   3.02207

 Mulliken charges:
               1
     1  O   -0.699103
     2  H    0.277429
     3  H    0.303104
     4  O   -0.782710
     5  H    0.499411
     6  H    0.401868
 Sum of Mulliken charges =  -0.00000

 Dipole moment (field-independent basis, Debye):
    X=             -3.2532    Y=              5.1498    Z=              0.0000  Tot=              6.0913
 Quadrupole moment (field-independent basis, Debye-Ang):
   XX=            -10.4687   YY=            -10.3813   ZZ=            -14.9159
   XY=              2.8452   XZ=              0.0000   YZ=              0.0000

 71\MP4DQ=-33.8346292\MP4SDQ=-33.8371079\CCSD=-33.8377721\CCSD(T)=-33.8
 Normal termination of Gaussian 16 at Sun Dec 10 06:20:36 2023.
