 Gaussian 16, Revision A.03,
 Gaussian 16:  ES64L-G16RevA.03 25-Dec-2016

 ------------------
 #p CCSD(T)/CEP-31G
 ------------------

 -----------
 H2O_H2O_110
 -----------
 Symbolic Z-matrix:
 Charge =  0 Multiplicity = 1

                         Standard orientation:
 ---------------------------------------------------------------------
 Center     Atomic      Atomic             Coordinates (Angstroms)
 Number     Number       Type             X           Y           Z
 ---------------------------------------------------------------------
      1          8           0        0.063349    1.149887    0.000000
      2          1           0        0.060974    0.167288    0.000000
      3          1           0       -0.865372    1.470798    0.000000
      4          8           0        0.063349   -0.974541    0.000000
      5          1           0        0.659633   -1.755534    0.000000
      6          1           0       -0.868814   -1.285314    0.000000
 ---------------------------------------------------------------------

 SCF Done:  E(RHF) =  -33.6040170672     A.U. after   11 cycles
 E2 =    -0.2279584546D+00 EUMP2 =    -0.33831975521817D+02
 CCSD(T)
 CCSD(T)= -0.33846678884D+02

 The electronic state is 1-A'.
 Alpha  occ. eigenvalues --   -1.45559  -1.27259  -0.81199  -0.76591  -0.58764
 Alpha  occ. eigenvalues --   -0.54842  -0.44450  -0.41217
 Alpha virt. eigenvalues --    0.16105   0.24665   0.30194   0.61627   0.73218
 Alpha virt. eigenvalues --    0.73768   0.87557   0.91557   0.93082   1.08199
 Alpha virt. eigenvalues --    1.11193   1.18591   1.28411   1.35081   2.98872

 Mulliken charges:
               1
     1  O   -0.733744
     2  H    0.315792
     3  H    0.300824
     4  O   -0.787840
     5  H    0.480274
     6  H    0.424693
 Sum of Mulliken charges =  -0.00000

 Dipole moment (field-independent basis, Debye):
    X=             -2.5395    Y=             -5.5855    Z=              0.0000  Tot=              6.1357
 Quadrupole moment (field-independent basis, Debye-Ang):
   XX=             -9.6828   YY=            -10.6102   ZZ=            -14.9287
   XY=             -3.2252   XZ=              0.0000   YZ=              0.0000

 366\MP4DQ=-33.8404295\MP4SDQ=-33.8428275\CCSD=-33.8434375\CCSD(T)=-33.
 Normal termination of Gaussian 16 at Sun Dec 10 06:20:12 2023.
