 Gaussian 16, Revision A.03,
 Gaussian 16:  ES64L-G16RevA.03 25-Dec-2016

 ------------------
 #p CCSD(T)/CEP-31G
 ------------------

 ------------
 H2O_H2O_4372
 ------------
 Symbolic Z-matrix:
 Charge =  0 Multiplicity = 1

                         Standard orientation:
 ---------------------------------------------------------------------
 Center     Atomic      Atomic             Coordinates (Angstroms)
 Number     Number       Type             X           Y           Z
 ---------------------------------------------------------------------
      1          8           0       -0.019819    2.840645    0.000000
      2          1           0       -0.017570    1.858046    0.000000
      3          1           0        0.908942    3.161439    0.000000
      4          8           0       -0.019819   -2.673521    0.000000
      5          1           0       -0.993719   -2.804007    0.000000
      6          1           0        0.419458   -3.552465    0.000000
 ---------------------------------------------------------------------

 SCF Done:  E(RHF) =  -33.6535170375     A.U. after   11 cycles
 E2 =    -0.2282859650D+00 EUMP2 =    -0.33881803002428D+02
 CCSD(T)
 CCSD(T)= -0.33898755690D+02

 The electronic state is 1-A'.
 Alpha  occ. eigenvalues --   -1.36274  -1.34738  -0.71915  -0.70377  -0.56105
 Alpha  occ. eigenvalues --   -0.54534  -0.50871  -0.49340
 Alpha virt. eigenvalues --    0.19563   0.21180   0.29840   0.31454   0.79681
 Alpha virt. eigenvalues --    0.81176   0.82516   0.84159   0.85698   0.87258
 Alpha virt. eigenvalues --    1.16702   1.18248   1.21136   1.22771   2.56654

 Mulliken charges:
               1
     1  O   -0.747855
     2  H    0.378144
     3  H    0.369695
     4  O   -0.747374
     5  H    0.373648
     6  H    0.373742
 Sum of Mulliken charges =  -0.00000

 Dipole moment (field-independent basis, Debye):
    X=              0.9096    Y=             -3.9200    Z=              0.0000  Tot=              4.0242
 Quadrupole moment (field-independent basis, Debye-Ang):
   XX=             -9.6800   YY=             -6.3549   ZZ=            -14.9920
   XY=              9.6287   XZ=              0.0000   YZ=              0.0000

 5\MP4DQ=-33.8931232\MP4SDQ=-33.8951467\CCSD=-33.8961986\CCSD(T)=-33.89
 Normal termination of Gaussian 16 at Sun Dec 10 06:51:41 2023.
