 Gaussian 16, Revision A.03,
 Gaussian 16:  ES64L-G16RevA.03 25-Dec-2016

 ------------------
 #p CCSD(T)/CEP-31G
 ------------------

 ------------
 H2O_H2O_1843
 ------------
 Symbolic Z-matrix:
 Charge =  0 Multiplicity = 1

                         Standard orientation:
 ---------------------------------------------------------------------
 Center     Atomic      Atomic             Coordinates (Angstroms)
 Number     Number       Type             X           Y           Z
 ---------------------------------------------------------------------
      1          8           0        0.033849    1.839108    0.000000
      2          1           0        0.030980    0.856511    0.000000
      3          1           0       -0.894710    2.160486    0.000000
      4          8           0        0.033849   -1.661629    0.000000
      5          1           0        0.940553   -2.040303    0.000000
      6          1           0       -0.618410   -2.396520    0.000000
 ---------------------------------------------------------------------

 SCF Done:  E(RHF) =  -33.6596406227     A.U. after   11 cycles
 E2 =    -0.2286306285D+00 EUMP2 =    -0.33888271251139D+02
 CCSD(T)
 CCSD(T)= -0.33905116377D+02

 The electronic state is 1-A'.
 Alpha  occ. eigenvalues --   -1.37516  -1.32891  -0.73168  -0.68596  -0.57838
 Alpha  occ. eigenvalues --   -0.52743  -0.52194  -0.47563
 Alpha virt. eigenvalues --    0.18080   0.24380   0.28931   0.36226   0.77982
 Alpha virt. eigenvalues --    0.82058   0.83303   0.86364   0.88802   0.93105
 Alpha virt. eigenvalues --    1.15610   1.19794   1.20859   1.33703   2.51065

 Mulliken charges:
               1
     1  O   -0.774380
     2  H    0.410397
     3  H    0.361652
     4  O   -0.769365
     5  H    0.386249
     6  H    0.385447
 Sum of Mulliken charges =  -0.00000

 Dipole moment (field-independent basis, Debye):
    X=             -1.5211    Y=             -4.3991    Z=              0.0000  Tot=              4.6547
 Quadrupole moment (field-independent basis, Debye-Ang):
   XX=             -9.4161   YY=             -7.7164   ZZ=            -15.0044
   XY=             -5.5391   XZ=              0.0000   YZ=              0.0000

 6477\MP4DQ=-33.8993888\MP4SDQ=-33.9014682\CCSD=-33.9024866\CCSD(T)=-33
 Normal termination of Gaussian 16 at Sun Dec 10 06:53:40 2023.
