 Gaussian 16, Revision A.03,
 Gaussian 16:  ES64L-G16RevA.03 25-Dec-2016

 ------------------
 #p CCSD(T)/CEP-31G
 ------------------

 ------------
 H2O_H2O_2962
 ------------
 Symbolic Z-matrix:
 Charge =  0 Multiplicity = 1

                         Standard orientation:
 ---------------------------------------------------------------------
 Center     Atomic      Atomic             Coordinates (Angstroms)
 Number     Number       Type             X           Y           Z
 ---------------------------------------------------------------------
      1          8           0        0.055993    2.288612   -0.000000
      2          1           0        0.054567    1.306012   -0.000000
      3          1           0       -0.873036    2.608628    0.000000
      4          8           0        0.055993   -2.109709   -0.000000
      5          1           0        0.749789   -2.805521   -0.000000
      6          1           0       -0.827215   -2.540347    0.000000
 ---------------------------------------------------------------------

 SCF Done:  E(RHF) =  -33.6551063973     A.U. after   11 cycles
 E2 =    -0.2283463897D+00 EUMP2 =    -0.33883452787081D+02
 CCSD(T)
 CCSD(T)= -0.33900366066D+02

 The electronic state is 1-A'.
 Alpha  occ. eigenvalues --   -1.36748  -1.34012  -0.72396  -0.69625  -0.56680
 Alpha  occ. eigenvalues --   -0.53826  -0.51366  -0.48627
 Alpha virt. eigenvalues --    0.18772   0.22305   0.29437   0.32427   0.79204
 Alpha virt. eigenvalues --    0.81859   0.82702   0.84813   0.85216   0.88080
 Alpha virt. eigenvalues --    1.16286   1.19287   1.20705   1.25868   2.55862

 Mulliken charges:
               1
     1  O   -0.754249
     2  H    0.388868
     3  H    0.364499
     4  O   -0.751966
     5  H    0.379158
     6  H    0.373690
 Sum of Mulliken charges =  -0.00000

 Dipole moment (field-independent basis, Debye):
    X=             -2.5528    Y=             -4.2802    Z=              0.0000  Tot=              4.9837
 Quadrupole moment (field-independent basis, Debye-Ang):
   XX=             -9.5839   YY=             -6.5883   ZZ=            -14.9952
   XY=             -5.4100   XZ=             -0.0000   YZ=              0.0000

 9682\MP4DQ=-33.8947212\MP4SDQ=-33.8967599\CCSD=-33.8977988\CCSD(T)=-33
 Normal termination of Gaussian 16 at Sun Dec 10 06:26:19 2023.
