 Gaussian 16, Revision A.03,
 Gaussian 16:  ES64L-G16RevA.03 25-Dec-2016

 ------------------
 #p CCSD(T)/CEP-31G
 ------------------

 -----------
 H2O_H2O_539
 -----------
 Symbolic Z-matrix:
 Charge =  0 Multiplicity = 1

                         Standard orientation:
 ---------------------------------------------------------------------
 Center     Atomic      Atomic             Coordinates (Angstroms)
 Number     Number       Type             X           Y           Z
 ---------------------------------------------------------------------
      1          8           0        0.048711    1.322076   -0.000000
      2          1           0        0.045653    0.339479   -0.000000
      3          1           0       -0.879787    1.643633   -0.000000
      4          8           0        0.048711   -1.141825    0.000000
      5          1           0        0.826396   -1.742418    0.000000
      6          1           0       -0.771631   -1.682700    0.000000
 ---------------------------------------------------------------------

 SCF Done:  E(RHF) =  -33.6548267656     A.U. after   11 cycles
 E2 =    -0.2289457135D+00 EUMP2 =    -0.33883772479104D+02
 CCSD(T)
 CCSD(T)= -0.33899415040D+02

 The electronic state is 1-A'.
 Alpha  occ. eigenvalues --   -1.40986  -1.29324  -0.76139  -0.71409  -0.58293
 Alpha  occ. eigenvalues --   -0.55573  -0.48146  -0.43784
 Alpha virt. eigenvalues --    0.17061   0.26838   0.28236   0.54414   0.74024
 Alpha virt. eigenvalues --    0.74264   0.85406   0.89175   0.95991   1.01165
 Alpha virt. eigenvalues --    1.14300   1.17838   1.24455   1.36695   2.68555

 Mulliken charges:
               1
     1  O   -0.774575
     2  H    0.423227
     3  H    0.330919
     4  O   -0.833511
     5  H    0.434835
     6  H    0.419105
 Sum of Mulliken charges =  -0.00000

 Dipole moment (field-independent basis, Debye):
    X=             -2.0645    Y=             -5.0815    Z=              0.0000  Tot=              5.4849
 Quadrupole moment (field-independent basis, Debye-Ang):
   XX=             -9.3803   YY=             -9.6852   ZZ=            -15.0101
   XY=             -3.7843   XZ=              0.0000   YZ=             -0.0000

 04\MP4DQ=-33.8934379\MP4SDQ=-33.8956232\CCSD=-33.896416\CCSD(T)=-33.89
 Normal termination of Gaussian 16 at Sun Dec 10 06:28:40 2023.
