 Gaussian 16, Revision A.03,
 Gaussian 16:  ES64L-G16RevA.03 25-Dec-2016

 ------------------
 #p CCSD(T)/CEP-31G
 ------------------

 -----------
 H2O_H2O_580
 -----------
 Symbolic Z-matrix:
 Charge =  0 Multiplicity = 1

                         Standard orientation:
 ---------------------------------------------------------------------
 Center     Atomic      Atomic             Coordinates (Angstroms)
 Number     Number       Type             X           Y           Z
 ---------------------------------------------------------------------
      1          8           0        0.079884   -1.330466    0.000000
      2          1           0        0.078996   -0.347865    0.000000
      3          1           0       -0.849320   -1.649972    0.000000
      4          8           0        0.079884    1.171469    0.000000
      5          1           0        0.394890    2.102209    0.000000
      6          1           0       -0.902710    1.167602    0.000000
 ---------------------------------------------------------------------

 SCF Done:  E(RHF) =  -33.6472417635     A.U. after   11 cycles
 E2 =    -0.2288207138D+00 EUMP2 =    -0.33876062477273D+02
 CCSD(T)
 CCSD(T)= -0.33892298279D+02

 The electronic state is 1-A'.
 Alpha  occ. eigenvalues --   -1.41003  -1.30864  -0.77552  -0.69446  -0.58882
 Alpha  occ. eigenvalues --   -0.55296  -0.49875  -0.45263
 Alpha virt. eigenvalues --    0.16650   0.25626   0.27957   0.51614   0.73942
 Alpha virt. eigenvalues --    0.76547   0.85592   0.88151   0.95721   1.09049
 Alpha virt. eigenvalues --    1.15190   1.23180   1.27525   1.36662   2.66996

 Mulliken charges:
               1
     1  O   -0.738406
     2  H    0.383251
     3  H    0.329415
     4  O   -0.819131
     5  H    0.459115
     6  H    0.385756
 Sum of Mulliken charges =  -0.00000

 Dipole moment (field-independent basis, Debye):
    X=             -3.4102    Y=              4.5489    Z=              0.0000  Tot=              5.6853
 Quadrupole moment (field-independent basis, Debye-Ang):
   XX=            -10.5163   YY=             -9.5060   ZZ=            -14.9917
   XY=              3.0533   XZ=              0.0000   YZ=              0.0000

 16\MP4DQ=-33.886221\MP4SDQ=-33.888505\CCSD=-33.8893663\CCSD(T)=-33.892
 Normal termination of Gaussian 16 at Sun Dec 10 06:29:26 2023.
