 Gaussian 16, Revision A.03,
 Gaussian 16:  ES64L-G16RevA.03 25-Dec-2016

 ------------------
 #p CCSD(T)/CEP-31G
 ------------------

 -----------
 H2O_H2O_965
 -----------
 Symbolic Z-matrix:
 Charge =  0 Multiplicity = 1

                         Standard orientation:
 ---------------------------------------------------------------------
 Center     Atomic      Atomic             Coordinates (Angstroms)
 Number     Number       Type             X           Y           Z
 ---------------------------------------------------------------------
      1          8           0        0.044960    1.491623   -0.000000
      2          1           0        0.042047    0.509026   -0.000000
      3          1           0       -0.883584    1.813044   -0.000000
      4          8           0        0.044960   -1.311325    0.000000
      5          1           0        0.860342   -1.859648    0.000000
      6          1           0       -0.738163   -1.904810    0.000000
 ---------------------------------------------------------------------

 SCF Done:  E(RHF) =  -33.6630229761     A.U. after   11 cycles
 E2 =    -0.2290976907D+00 EUMP2 =    -0.33892120666834D+02
 CCSD(T)
 CCSD(T)= -0.33908490654D+02

 The electronic state is 1-A'.
 Alpha  occ. eigenvalues --   -1.39090  -1.30961  -0.74627  -0.68363  -0.59306
 Alpha  occ. eigenvalues --   -0.53834  -0.50459  -0.45593
 Alpha virt. eigenvalues --    0.17571   0.26723   0.27876   0.46248   0.75359
 Alpha virt. eigenvalues --    0.76867   0.85619   0.86757   0.95819   0.99542
 Alpha virt. eigenvalues --    1.14991   1.18893   1.22733   1.35804   2.53722

 Mulliken charges:
               1
     1  O   -0.785895
     2  H    0.436879
     3  H    0.346401
     4  O   -0.812531
     5  H    0.411214
     6  H    0.403931
 Sum of Mulliken charges =  -0.00000

 Dipole moment (field-independent basis, Debye):
    X=             -1.9660    Y=             -4.7588    Z=              0.0000  Tot=              5.1489
 Quadrupole moment (field-independent basis, Debye-Ang):
   XX=             -9.3752   YY=             -8.8571   ZZ=            -15.0187
   XY=             -4.2611   XZ=              0.0000   YZ=             -0.0000

 \MP4DQ=-33.9026338\MP4SDQ=-33.9047517\CCSD=-33.9056765\CCSD(T)=-33.908
 Normal termination of Gaussian 16 at Sun Dec 10 06:36:40 2023.
