 Gaussian 16, Revision A.03,
 Gaussian 16:  ES64L-G16RevA.03 25-Dec-2016

 ------------------
 #p CCSD(T)/CEP-31G
 ------------------

 ------------
 H2O_H2O_2596
 ------------
 Symbolic Z-matrix:
 Charge =  0 Multiplicity = 1

                         Standard orientation:
 ---------------------------------------------------------------------
 Center     Atomic      Atomic             Coordinates (Angstroms)
 Number     Number       Type             X           Y           Z
 ---------------------------------------------------------------------
      1          8           0       -0.023233    2.134407    0.000000
      2          1           0       -0.020345    1.151809    0.000000
      3          1           0        0.905319    2.455804    0.000000
      4          8           0       -0.023233   -1.964033    0.000000
      5          1           0       -0.986386   -2.158561    0.000000
      6          1           0        0.473141   -2.812042    0.000000
 ---------------------------------------------------------------------

 SCF Done:  E(RHF) =  -33.6564867820     A.U. after   11 cycles
 E2 =    -0.2283717165D+00 EUMP2 =    -0.33884858498474D+02
 CCSD(T)
 CCSD(T)= -0.33901753831D+02

 The electronic state is 1-A'.
 Alpha  occ. eigenvalues --   -1.36916  -1.33847  -0.72570  -0.69490  -0.56934
 Alpha  occ. eigenvalues --   -0.53706  -0.51552  -0.48491
 Alpha virt. eigenvalues --    0.18349   0.22837   0.29336   0.32951   0.78984
 Alpha virt. eigenvalues --    0.82016   0.83211   0.84713   0.86292   0.87983
 Alpha virt. eigenvalues --    1.16119   1.19674   1.20594   1.28937   2.55091

 Mulliken charges:
               1
     1  O   -0.760301
     2  H    0.391662
     3  H    0.367189
     4  O   -0.756530
     5  H    0.378971
     6  H    0.379010
 Sum of Mulliken charges =  -0.00000

 Dipole moment (field-independent basis, Debye):
    X=              1.0530    Y=             -4.1070    Z=              0.0000  Tot=              4.2398
 Quadrupole moment (field-independent basis, Debye-Ang):
   XX=             -9.5874   YY=             -7.3356   ZZ=            -14.9977
   XY=              7.0092   XZ=              0.0000   YZ=              0.0000

 3372\MP4DQ=-33.8960927\MP4SDQ=-33.8981437\CCSD=-33.8991759\CCSD(T)=-33
 Normal termination of Gaussian 16 at Sun Dec 10 06:19:44 2023.
