 Gaussian 16, Revision A.03,
 Gaussian 16:  ES64L-G16RevA.03 25-Dec-2016

 ------------------
 #p CCSD(T)/CEP-31G
 ------------------

 ----------
 H2O_H2O_98
 ----------
 Symbolic Z-matrix:
 Charge =  0 Multiplicity = 1

                         Standard orientation:
 ---------------------------------------------------------------------
 Center     Atomic      Atomic             Coordinates (Angstroms)
 Number     Number       Type             X           Y           Z
 ---------------------------------------------------------------------
      1          8           0        0.016901   -1.133375    0.000000
      2          1           0        0.010743   -0.150793    0.000000
      3          1           0       -0.910577   -1.457860    0.000000
      4          8           0        0.016901    0.970097    0.000000
      5          1           0        0.996976    1.040505    0.000000
      6          1           0       -0.367550    1.874367    0.000000
 ---------------------------------------------------------------------

 SCF Done:  E(RHF) =  -33.5961897058     A.U. after   11 cycles
 E2 =    -0.2267917640D+00 EUMP2 =    -0.33822981469769D+02
 CCSD(T)
 CCSD(T)= -0.33837732456D+02

 The electronic state is 1-A'.
 Alpha  occ. eigenvalues --   -1.45995  -1.27131  -0.83237  -0.73996  -0.58745
 Alpha  occ. eigenvalues --   -0.55932  -0.44166  -0.41254
 Alpha virt. eigenvalues --    0.16821   0.24477   0.30237   0.61954   0.73334
 Alpha virt. eigenvalues --    0.74439   0.90421   0.91558   0.92823   1.04194
 Alpha virt. eigenvalues --    1.12183   1.19775   1.30731   1.44690   2.99469

 Mulliken charges:
               1
     1  O   -0.736278
     2  H    0.255791
     3  H    0.327806
     4  O   -0.782078
     5  H    0.438591
     6  H    0.496169
 Sum of Mulliken charges =   0.00000

 Dipole moment (field-independent basis, Debye):
    X=             -0.7217    Y=              5.3456    Z=              0.0000  Tot=              5.3941
 Quadrupole moment (field-independent basis, Debye-Ang):
   XX=             -9.6037   YY=            -10.4814   ZZ=            -14.9233
   XY=              3.7014   XZ=              0.0000   YZ=              0.0000

 01\MP4DQ=-33.8315538\MP4SDQ=-33.8339094\CCSD=-33.8345515\CCSD(T)=-33.8
 Normal termination of Gaussian 16 at Sun Dec 10 06:19:58 2023.
