 Gaussian 16, Revision A.03,
 Gaussian 16:  ES64L-G16RevA.03 25-Dec-2016

 ------------------
 #p CCSD(T)/CEP-31G
 ------------------

 ------------
 H2O_H2O_3273
 ------------
 Symbolic Z-matrix:
 Charge =  0 Multiplicity = 1

                         Standard orientation:
 ---------------------------------------------------------------------
 Center     Atomic      Atomic             Coordinates (Angstroms)
 Number     Number       Type             X           Y           Z
 ---------------------------------------------------------------------
      1          8           0       -0.016621    2.399856    0.000000
      2          1           0       -0.013827    1.417259    0.000000
      3          1           0        0.911962    2.721164    0.000000
      4          8           0       -0.016621   -2.236464    0.000000
      5          1           0       -0.996931   -2.303516    0.000000
      6          1           0        0.364732   -3.142045    0.000000
 ---------------------------------------------------------------------

 SCF Done:  E(RHF) =  -33.6548010715     A.U. after   11 cycles
 E2 =    -0.2282821949D+00 EUMP2 =    -0.33883083266430D+02
 CCSD(T)
 CCSD(T)= -0.33900003907D+02

 The electronic state is 1-A'.
 Alpha  occ. eigenvalues --   -1.36583  -1.34384  -0.72232  -0.70027  -0.56488
 Alpha  occ. eigenvalues --   -0.54215  -0.51196  -0.49006
 Alpha virt. eigenvalues --    0.18885   0.21903   0.29562   0.31980   0.79367
 Alpha virt. eigenvalues --    0.81487   0.82266   0.84348   0.85507   0.87640
 Alpha virt. eigenvalues --    1.16400   1.18882   1.20819   1.24641   2.56404

 Mulliken charges:
               1
     1  O   -0.752948
     2  H    0.383248
     3  H    0.369311
     4  O   -0.751765
     5  H    0.375623
     6  H    0.376532
 Sum of Mulliken charges =  -0.00000

 Dipole moment (field-independent basis, Debye):
    X=              0.7583    Y=             -3.8772    Z=              0.0000  Tot=              3.9507
 Quadrupole moment (field-independent basis, Debye-Ang):
   XX=             -9.7684   YY=             -7.3105   ZZ=            -14.9944
   XY=              8.4028   XZ=              0.0000   YZ=              0.0000

 6157\MP4DQ=-33.8943686\MP4SDQ=-33.8963983\CCSD=-33.8974423\CCSD(T)=-33
 Normal termination of Gaussian 16 at Sun Dec 10 06:31:59 2023.
