 Gaussian 16, Revision A.03,
 Gaussian 16:  ES64L-G16RevA.03 25-Dec-2016

 ------------------
 #p CCSD(T)/CEP-31G
 ------------------

 ------------
 H2O_H2O_1038
 ------------
 Symbolic Z-matrix:
 Charge =  0 Multiplicity = 1

                         Standard orientation:
 ---------------------------------------------------------------------
 Center     Atomic      Atomic             Coordinates (Angstroms)
 Number     Number       Type             X           Y           Z
 ---------------------------------------------------------------------
      1          8           0        0.052380    1.521264    0.000000
      2          1           0        0.049969    0.538666    0.000000
      3          1           0       -0.876329    1.842210    0.000000
      4          8           0        0.052380   -1.341468   -0.000000
      5          1           0        0.789547   -1.991153   -0.000000
      6          1           0       -0.801260   -1.828094   -0.000000
 ---------------------------------------------------------------------

 SCF Done:  E(RHF) =  -33.6625670645     A.U. after   11 cycles
 E2 =    -0.2291140089D+00 EUMP2 =    -0.33891681073410D+02
 CCSD(T)
 CCSD(T)= -0.33908153378D+02

 The electronic state is 1-A'.
 Alpha  occ. eigenvalues --   -1.38898  -1.31256  -0.74477  -0.68218  -0.59228
 Alpha  occ. eigenvalues --   -0.53629  -0.50805  -0.45885
 Alpha virt. eigenvalues --    0.17574   0.26424   0.27960   0.44959   0.75607
 Alpha virt. eigenvalues --    0.77477   0.85505   0.86335   0.95200   1.00501
 Alpha virt. eigenvalues --    1.14902   1.19112   1.22191   1.35388   2.52433

 Mulliken charges:
               1
     1  O   -0.783794
     2  H    0.435972
     3  H    0.346301
     4  O   -0.806959
     5  H    0.412746
     6  H    0.395734
 Sum of Mulliken charges =  -0.00000

 Dipole moment (field-independent basis, Debye):
    X=             -2.2896    Y=             -4.7107    Z=             -0.0000  Tot=              5.2377
 Quadrupole moment (field-independent basis, Debye-Ang):
   XX=             -9.4756   YY=             -8.7352   ZZ=            -15.0163
   XY=             -4.1669   XZ=             -0.0000   YZ=              0.0000

 624\MP4DQ=-33.9023033\MP4SDQ=-33.9044208\CCSD=-33.9053626\CCSD(T)=-33.
 Normal termination of Gaussian 16 at Sun Dec 10 06:38:02 2023.
