 Gaussian 16, Revision A.03,
 Gaussian 16:  ES64L-G16RevA.03 25-Dec-2016

 ------------------
 #p CCSD(T)/CEP-31G
 ------------------

 -----------
 H2O_H2O_445
 -----------
 Symbolic Z-matrix:
 Charge =  0 Multiplicity = 1

                         Standard orientation:
 ---------------------------------------------------------------------
 Center     Atomic      Atomic             Coordinates (Angstroms)
 Number     Number       Type             X           Y           Z
 ---------------------------------------------------------------------
      1          8           0        0.026854    1.278313    0.000000
      2          1           0        0.022133    0.295723    0.000000
      3          1           0       -0.901097    1.601441    0.000000
      4          8           0        0.026854   -1.105209    0.000000
      5          1           0        0.974741   -1.364083    0.000000
      6          1           0       -0.525437   -1.917910    0.000000
 ---------------------------------------------------------------------

 SCF Done:  E(RHF) =  -33.6488112222     A.U. after   11 cycles
 E2 =    -0.2283008329D+00 EUMP2 =    -0.33877112055116D+02
 CCSD(T)
 CCSD(T)= -0.33892615195D+02

 The electronic state is 1-A'.
 Alpha  occ. eigenvalues --   -1.41664  -1.28956  -0.77468  -0.71483  -0.58189
 Alpha  occ. eigenvalues --   -0.56047  -0.47529  -0.43405
 Alpha virt. eigenvalues --    0.17137   0.26403   0.28663   0.56131   0.73817
 Alpha virt. eigenvalues --    0.74742   0.86971   0.89664   0.94615   1.01191
 Alpha virt. eigenvalues --    1.15502   1.20149   1.26293   1.37177   2.74004

 Mulliken charges:
               1
     1  O   -0.768986
     2  H    0.393473
     3  H    0.337329
     4  O   -0.838055
     5  H    0.422794
     6  H    0.453444
 Sum of Mulliken charges =  -0.00000

 Dipole moment (field-independent basis, Debye):
    X=             -1.1736    Y=             -5.0330    Z=              0.0000  Tot=              5.1680
 Quadrupole moment (field-independent basis, Debye-Ang):
   XX=             -9.4289   YY=             -9.7961   ZZ=            -15.0012
   XY=             -3.9615   XZ=              0.0000   YZ=              0.0000

 13\MP4DQ=-33.886622\MP4SDQ=-33.8888238\CCSD=-33.8896014\CCSD(T)=-33.89
 Normal termination of Gaussian 16 at Sun Dec 10 06:26:51 2023.
