 Gaussian 16, Revision A.03,
 Gaussian 16:  ES64L-G16RevA.03 25-Dec-2016

 ------------------
 #p CCSD(T)/CEP-31G
 ------------------

 ------------
 H2O_H2O_4397
 ------------
 Symbolic Z-matrix:
 Charge =  0 Multiplicity = 1

                         Standard orientation:
 ---------------------------------------------------------------------
 Center     Atomic      Atomic             Coordinates (Angstroms)
 Number     Number       Type             X           Y           Z
 ---------------------------------------------------------------------
      1          8           0       -0.019819    2.850617    0.000000
      2          1           0       -0.017577    1.868018    0.000000
      3          1           0        0.908945    3.171403    0.000000
      4          8           0       -0.019819   -2.683494    0.000000
      5          1           0       -0.993720   -2.813970    0.000000
      6          1           0        0.419451   -3.562440    0.000000
 ---------------------------------------------------------------------

 SCF Done:  E(RHF) =  -33.6534971621     A.U. after   11 cycles
 E2 =    -0.2282866544D+00 EUMP2 =    -0.33881783816458D+02
 CCSD(T)
 CCSD(T)= -0.33898737051D+02

 The electronic state is 1-A'.
 Alpha  occ. eigenvalues --   -1.36269  -1.34745  -0.71909  -0.70384  -0.56099
 Alpha  occ. eigenvalues --   -0.54540  -0.50865  -0.49347
 Alpha virt. eigenvalues --    0.19569   0.21170   0.29844   0.31445   0.79687
 Alpha virt. eigenvalues --    0.81170   0.82524   0.84153   0.85705   0.87251
 Alpha virt. eigenvalues --    1.16707   1.18239   1.21141   1.22758   2.56659

 Mulliken charges:
               1
     1  O   -0.747777
     2  H    0.378055
     3  H    0.369708
     4  O   -0.747304
     5  H    0.373615
     6  H    0.373704
 Sum of Mulliken charges =   0.00000

 Dipole moment (field-independent basis, Debye):
    X=              0.9096    Y=             -3.9194    Z=              0.0000  Tot=              4.0236
 Quadrupole moment (field-independent basis, Debye-Ang):
   XX=             -9.6801   YY=             -6.3387   ZZ=            -14.9920
   XY=              9.6625   XZ=              0.0000   YZ=              0.0000

 3563\MP4DQ=-33.8931045\MP4SDQ=-33.895128\CCSD=-33.8961799\CCSD(T)=-33.
 Normal termination of Gaussian 16 at Sun Dec 10 06:52:08 2023.
