 Gaussian 16, Revision A.03,
 Gaussian 16:  ES64L-G16RevA.03 25-Dec-2016

 ------------------
 #p CCSD(T)/CEP-31G
 ------------------

 ------------
 H2O_H2O_1598
 ------------
 Symbolic Z-matrix:
 Charge =  0 Multiplicity = 1

                         Standard orientation:
 ---------------------------------------------------------------------
 Center     Atomic      Atomic             Coordinates (Angstroms)
 Number     Number       Type             X           Y           Z
 ---------------------------------------------------------------------
      1          8           0       -0.016715    1.731722    0.000000
      2          1           0       -0.012790    0.749128    0.000000
      3          1           0        0.911498    2.054098    0.000000
      4          8           0       -0.016715   -1.568368    0.000000
      5          1           0       -0.996948   -1.636548    0.000000
      6          1           0        0.365680   -2.473508    0.000000
 ---------------------------------------------------------------------

 SCF Done:  E(RHF) =  -33.6601910670     A.U. after   11 cycles
 E2 =    -0.2286635248D+00 EUMP2 =    -0.33888854591729D+02
 CCSD(T)
 CCSD(T)= -0.33905714246D+02

 The electronic state is 1-A'.
 Alpha  occ. eigenvalues --   -1.37795  -1.32885  -0.73534  -0.68650  -0.58185
 Alpha  occ. eigenvalues --   -0.52718  -0.52465  -0.47571
 Alpha virt. eigenvalues --    0.17753   0.24900   0.28708   0.37673   0.77359
 Alpha virt. eigenvalues --    0.80967   0.83711   0.86290   0.88656   1.01028
 Alpha virt. eigenvalues --    1.15637   1.18748   1.21333   1.37028   2.51311

 Mulliken charges:
               1
     1  O   -0.777592
     2  H    0.409356
     3  H    0.364930
     4  O   -0.778260
     5  H    0.385977
     6  H    0.395588
 Sum of Mulliken charges =  -0.00000

 Dipole moment (field-independent basis, Debye):
    X=              0.7493    Y=             -4.1076    Z=              0.0000  Tot=              4.1754
 Quadrupole moment (field-independent basis, Debye-Ang):
   XX=             -9.7481   YY=             -8.3662   ZZ=            -15.0053
   XY=              6.0143   XZ=              0.0000   YZ=              0.0000

 2063\MP4DQ=-33.8999402\MP4SDQ=-33.9020459\CCSD=-33.9030569\CCSD(T)=-33
 Normal termination of Gaussian 16 at Sun Dec 10 06:49:03 2023.
