 Gaussian 16, Revision A.03,
 Gaussian 16:  ES64L-G16RevA.03 25-Dec-2016

 ------------------
 #p CCSD(T)/CEP-31G
 ------------------

 ------------
 H2O_H2O_1677
 ------------
 Symbolic Z-matrix:
 Charge =  0 Multiplicity = 1

                         Standard orientation:
 ---------------------------------------------------------------------
 Center     Atomic      Atomic             Coordinates (Angstroms)
 Number     Number       Type             X           Y           Z
 ---------------------------------------------------------------------
      1          8           0        0.088236   -1.761250    0.000000
      2          1           0        0.087999   -0.778649    0.000000
      3          1           0       -0.841180   -2.080141    0.000000
      4          8           0        0.088236    1.616941    0.000000
      5          1           0        0.216257    2.591167    0.000000
      6          1           0       -0.874853    1.422091    0.000000
 ---------------------------------------------------------------------

 SCF Done:  E(RHF) =  -33.6543590857     A.U. after   11 cycles
 E2 =    -0.2289354784D+00 EUMP2 =    -0.33883294564119D+02
 CCSD(T)
 CCSD(T)= -0.33900330162D+02

 The electronic state is 1-A'.
 Alpha  occ. eigenvalues --   -1.37856  -1.33924  -0.73707  -0.69440  -0.57818
 Alpha  occ. eigenvalues --   -0.53609  -0.52428  -0.48486
 Alpha virt. eigenvalues --    0.16856   0.24146   0.28396   0.36022   0.77464
 Alpha virt. eigenvalues --    0.81802   0.82857   0.84791   0.88801   1.00518
 Alpha virt. eigenvalues --    1.15246   1.17934   1.21264   1.39133   2.51975

 Mulliken charges:
               1
     1  O   -0.754854
     2  H    0.396145
     3  H    0.355166
     4  O   -0.757844
     5  H    0.394500
     6  H    0.366887
 Sum of Mulliken charges =  -0.00000

 Dipole moment (field-independent basis, Debye):
    X=             -3.9776    Y=              3.6254    Z=              0.0000  Tot=              5.3819
 Quadrupole moment (field-independent basis, Debye-Ang):
   XX=            -11.0063   YY=             -9.0534   ZZ=            -14.9911
   XY=              2.7142   XZ=              0.0000   YZ=              0.0000

 799\MP4DQ=-33.8945181\MP4SDQ=-33.8966516\CCSD=-33.8976678\CCSD(T)=-33.
 Normal termination of Gaussian 16 at Sun Dec 10 06:50:33 2023.
