 Gaussian 16, Revision A.03,
 Gaussian 16:  ES64L-G16RevA.03 25-Dec-2016

 ------------------
 #p CCSD(T)/CEP-31G
 ------------------

 ------------
 H2O_H2O_1264
 ------------
 Symbolic Z-matrix:
 Charge =  0 Multiplicity = 1

                         Standard orientation:
 ---------------------------------------------------------------------
 Center     Atomic      Atomic             Coordinates (Angstroms)
 Number     Number       Type             X           Y           Z
 ---------------------------------------------------------------------
      1          8           0        0.048657    1.611290    0.000000
      2          1           0        0.046181    0.628691    0.000000
      3          1           0       -0.880030    1.932297    0.000000
      4          8           0        0.048657   -1.430981   -0.000000
      5          1           0        0.826698   -2.031114   -0.000000
      6          1           0       -0.771365   -1.972341   -0.000000
 ---------------------------------------------------------------------

 SCF Done:  E(RHF) =  -33.6623658189     A.U. after   11 cycles
 E2 =    -0.2290015841D+00 EUMP2 =    -0.33891367402949D+02
 CCSD(T)
 CCSD(T)= -0.33908010622D+02

 The electronic state is 1-A'.
 Alpha  occ. eigenvalues --   -1.38366  -1.31801  -0.73979  -0.68035  -0.58916
 Alpha  occ. eigenvalues --   -0.53090  -0.51495  -0.46459
 Alpha virt. eigenvalues --    0.17775   0.25813   0.28312   0.41836   0.76392
 Alpha virt. eigenvalues --    0.78990   0.85292   0.85832   0.93184   0.99350
 Alpha virt. eigenvalues --    1.14964   1.19470   1.21655   1.34346   2.50096

 Mulliken charges:
               1
     1  O   -0.783774
     2  H    0.431123
     3  H    0.351629
     4  O   -0.793232
     5  H    0.402385
     6  H    0.391869
 Sum of Mulliken charges =   0.00000

 Dipole moment (field-independent basis, Debye):
    X=             -2.1509    Y=             -4.6265    Z=             -0.0000  Tot=              5.1020
 Quadrupole moment (field-independent basis, Debye-Ang):
   XX=             -9.4293   YY=             -8.3837   ZZ=            -15.0131
   XY=             -4.4498   XZ=             -0.0000   YZ=              0.0000

 046\MP4DQ=-33.9022052\MP4SDQ=-33.9043041\CCSD=-33.9052813\CCSD(T)=-33.
 Normal termination of Gaussian 16 at Sun Dec 10 06:42:24 2023.
