 Gaussian 16, Revision A.03,
 Gaussian 16:  ES64L-G16RevA.03 25-Dec-2016

 ------------------
 #p CCSD(T)/CEP-31G
 ------------------

 ------------
 H2O_H2O_1474
 ------------
 Symbolic Z-matrix:
 Charge =  0 Multiplicity = 1

                         Standard orientation:
 ---------------------------------------------------------------------
 Center     Atomic      Atomic             Coordinates (Angstroms)
 Number     Number       Type             X           Y           Z
 ---------------------------------------------------------------------
      1          8           0        0.013619   -1.679622    0.000000
      2          1           0        0.009407   -0.697029    0.000000
      3          1           0       -0.914499   -2.002270    0.000000
      4          8           0        0.013619    1.520394    0.000000
      5          1           0        0.996212    1.524606    0.000000
      6          1           0       -0.309029    2.448513    0.000000
 ---------------------------------------------------------------------

 SCF Done:  E(RHF) =  -33.6603654798     A.U. after   11 cycles
 E2 =    -0.2286812046D+00 EUMP2 =    -0.33889046684441D+02
 CCSD(T)
 CCSD(T)= -0.33905900174D+02

 The electronic state is 1-A'.
 Alpha  occ. eigenvalues --   -1.37976  -1.32801  -0.73779  -0.68596  -0.58404
 Alpha  occ. eigenvalues --   -0.52641  -0.52608  -0.47490
 Alpha virt. eigenvalues --    0.17663   0.25177   0.28562   0.38687   0.76981
 Alpha virt. eigenvalues --    0.80528   0.84049   0.86242   0.88794   1.04844
 Alpha virt. eigenvalues --    1.15940   1.18182   1.21546   1.37788   2.51400

 Mulliken charges:
               1
     1  O   -0.778490
     2  H    0.408816
     3  H    0.365417
     4  O   -0.782940
     5  H    0.386845
     6  H    0.400353
 Sum of Mulliken charges =   0.00000

 Dipole moment (field-independent basis, Debye):
    X=             -0.6098    Y=              4.0406    Z=              0.0000  Tot=              4.0863
 Quadrupole moment (field-independent basis, Debye-Ang):
   XX=             -9.8495   YY=             -8.5798   ZZ=            -15.0060
   XY=              5.9991   XZ=              0.0000   YZ=              0.0000

 3737\MP4DQ=-33.9001022\MP4SDQ=-33.9022211\CCSD=-33.9032261\CCSD(T)=-33
 Normal termination of Gaussian 16 at Sun Dec 10 06:46:34 2023.
