 Gaussian 16, Revision A.03,
 Gaussian 16:  ES64L-G16RevA.03 25-Dec-2016

 ------------------
 #p CCSD(T)/CEP-31G
 ------------------

 -----------
 H2O_H2O_310
 -----------
 Symbolic Z-matrix:
 Charge =  0 Multiplicity = 1

                         Standard orientation:
 ---------------------------------------------------------------------
 Center     Atomic      Atomic             Coordinates (Angstroms)
 Number     Number       Type             X           Y           Z
 ---------------------------------------------------------------------
      1          8           0        0.063334    1.229673   -0.000000
      2          1           0        0.061125    0.247074   -0.000000
      3          1           0       -0.865441    1.550427   -0.000000
      4          8           0        0.063334   -1.054306    0.000000
      5          1           0        0.659751   -1.835199    0.000000
      6          1           0       -0.868776   -1.365236    0.000000
 ---------------------------------------------------------------------

 SCF Done:  E(RHF) =  -33.6356766036     A.U. after   11 cycles
 E2 =    -0.2285906425D+00 EUMP2 =    -0.33864267246115D+02
 CCSD(T)
 CCSD(T)= -0.33879485800D+02

 The electronic state is 1-A'.
 Alpha  occ. eigenvalues --   -1.42941  -1.28519  -0.78468  -0.73708  -0.57016
 Alpha  occ. eigenvalues --   -0.56813  -0.46691  -0.42755
 Alpha virt. eigenvalues --    0.16528   0.25626   0.29139   0.58508   0.73496
 Alpha virt. eigenvalues --    0.74102   0.86497   0.90326   0.95065   1.06226
 Alpha virt. eigenvalues --    1.13153   1.18697   1.25364   1.34782   2.84104

 Mulliken charges:
               1
     1  O   -0.749876
     2  H    0.383302
     3  H    0.315276
     4  O   -0.828939
     5  H    0.466302
     6  H    0.413935
 Sum of Mulliken charges =  -0.00000

 Dipole moment (field-independent basis, Debye):
    X=             -2.6012    Y=             -5.2503    Z=              0.0000  Tot=              5.8593
 Quadrupole moment (field-independent basis, Debye-Ang):
   XX=             -9.7119   YY=            -10.1254   ZZ=            -14.9768
   XY=             -3.4040   XZ=              0.0000   YZ=             -0.0000

 \MP4DQ=-33.873366\MP4SDQ=-33.8756589\CCSD=-33.876369\CCSD(T)=-33.87948
 Normal termination of Gaussian 16 at Sun Dec 10 06:24:10 2023.
