 Gaussian 16, Revision A.03,
 Gaussian 16:  ES64L-G16RevA.03 25-Dec-2016

 ------------------
 #p CCSD(T)/CEP-31G
 ------------------

 ------------
 H2O_H2O_4775
 ------------
 Symbolic Z-matrix:
 Charge =  0 Multiplicity = 1

                         Standard orientation:
 ---------------------------------------------------------------------
 Center     Atomic      Atomic             Coordinates (Angstroms)
 Number     Number       Type             X           Y           Z
 ---------------------------------------------------------------------
      1          8           0        0.092949   -2.991511    0.000000
      2          1           0        0.092949   -2.008910    0.000000
      3          1           0       -0.836544   -3.310178    0.000000
      4          8           0        0.092949    2.858724    0.000000
      5          1           0        0.092949    3.841326    0.000000
      6          1           0       -0.836544    2.540057    0.000000
 ---------------------------------------------------------------------

 SCF Done:  E(RHF) =  -33.6519437725     A.U. after   11 cycles
 E2 =    -0.2283637196D+00 EUMP2 =    -0.33880307492045D+02
 CCSD(T)
 CCSD(T)= -0.33897305237D+02

 The electronic state is 1-A'.
 Alpha  occ. eigenvalues --   -1.36253  -1.35225  -0.71899  -0.70845  -0.56003
 Alpha  occ. eigenvalues --   -0.54957  -0.50826  -0.49795
 Alpha virt. eigenvalues --    0.19473   0.20615   0.29764   0.30836   0.79737
 Alpha virt. eigenvalues --    0.80749   0.82721   0.83771   0.85785   0.86934
 Alpha virt. eigenvalues --    1.16649   1.17687   1.21105   1.22180   2.56571

 Mulliken charges:
               1
     1  O   -0.741785
     2  H    0.374028
     3  H    0.367756
     4  O   -0.742056
     5  H    0.374008
     6  H    0.368050
 Sum of Mulliken charges =  -0.00000

 Dipole moment (field-independent basis, Debye):
    X=             -4.2794    Y=              3.1124    Z=              0.0000  Tot=              5.2915
 Quadrupole moment (field-independent basis, Debye-Ang):
   XX=            -11.2796   YY=             -9.6429   ZZ=            -14.9883
   XY=              2.3093   XZ=              0.0000   YZ=              0.0000

 9201\MP4DQ=-33.891661\MP4SDQ=-33.8936885\CCSD=-33.8947435\CCSD(T)=-33.
 Normal termination of Gaussian 16 at Sun Dec 10 06:58:58 2023.
