 Gaussian 16, Revision A.03,
 Gaussian 16:  ES64L-G16RevA.03 25-Dec-2016

 ------------------
 #p CCSD(T)/CEP-31G
 ------------------

 ------------
 H2O_H2O_1519
 ------------
 Symbolic Z-matrix:
 Charge =  0 Multiplicity = 1

                         Standard orientation:
 ---------------------------------------------------------------------
 Center     Atomic      Atomic             Coordinates (Angstroms)
 Number     Number       Type             X           Y           Z
 ---------------------------------------------------------------------
      1          8           0        0.030272    1.708427   -0.000000
      2          1           0        0.026985    0.725832   -0.000000
      3          1           0       -0.898150    2.030201   -0.000000
      4          8           0        0.030272   -1.532878    0.000000
      5          1           0        0.959666   -1.851835    0.000000
      6          1           0       -0.572856   -2.308597    0.000000
 ---------------------------------------------------------------------

 SCF Done:  E(RHF) =  -33.6613920628     A.U. after   11 cycles
 E2 =    -0.2287632051D+00 EUMP2 =    -0.33890155267823D+02
 CCSD(T)
 CCSD(T)= -0.33906934548D+02

 The electronic state is 1-A'.
 Alpha  occ. eigenvalues --   -1.37909  -1.32405  -0.73573  -0.68269  -0.58414
 Alpha  occ. eigenvalues --   -0.52609  -0.52215  -0.47089
 Alpha virt. eigenvalues --    0.17925   0.25176   0.28644   0.38844   0.77177
 Alpha virt. eigenvalues --    0.80494   0.84227   0.86436   0.90038   0.99038
 Alpha virt. eigenvalues --    1.15344   1.19032   1.21530   1.34861   2.50102

 Mulliken charges:
               1
     1  O   -0.781381
     2  H    0.419382
     3  H    0.359782
     4  O   -0.781980
     5  H    0.390224
     6  H    0.393973
 Sum of Mulliken charges =  -0.00000

 Dipole moment (field-independent basis, Debye):
    X=             -1.3548    Y=             -4.4295    Z=              0.0000  Tot=              4.6320
 Quadrupole moment (field-independent basis, Debye-Ang):
   XX=             -9.4444   YY=             -8.1250   ZZ=            -15.0089
   XY=             -5.2978   XZ=              0.0000   YZ=             -0.0000

 401\MP4DQ=-33.9011654\MP4SDQ=-33.9032579\CCSD=-33.9042619\CCSD(T)=-33.
 Normal termination of Gaussian 16 at Sun Dec 10 06:47:27 2023.
