 Gaussian 16, Revision A.03,
 Gaussian 16:  ES64L-G16RevA.03 25-Dec-2016

 ------------------
 #p CCSD(T)/CEP-31G
 ------------------

 ------------
 H2O_H2O_3918
 ------------
 Symbolic Z-matrix:
 Charge =  0 Multiplicity = 1

                         Standard orientation:
 ---------------------------------------------------------------------
 Center     Atomic      Atomic             Coordinates (Angstroms)
 Number     Number       Type             X           Y           Z
 ---------------------------------------------------------------------
      1          8           0        0.033766    2.666808    0.000000
      2          1           0        0.031818    1.684208    0.000000
      3          1           0       -0.895093    2.987316    0.000000
      4          8           0        0.033766   -2.489266    0.000000
      5          1           0        0.940825   -2.867090    0.000000
      6          1           0       -0.617805   -3.224767    0.000000
 ---------------------------------------------------------------------

 SCF Done:  E(RHF) =  -33.6539724414     A.U. after   11 cycles
 E2 =    -0.2282807239D+00 EUMP2 =    -0.33882253165322D+02
 CCSD(T)
 CCSD(T)= -0.33899191980D+02

 The electronic state is 1-A'.
 Alpha  occ. eigenvalues --   -1.36381  -1.34481  -0.72022  -0.70114  -0.56242
 Alpha  occ. eigenvalues --   -0.54286  -0.50985  -0.49088
 Alpha virt. eigenvalues --    0.19432   0.21507   0.29753   0.31771   0.79572
 Alpha virt. eigenvalues --    0.81416   0.82333   0.84412   0.85588   0.87525
 Alpha virt. eigenvalues --    1.16614   1.18547   1.21039   1.23203   2.56566

 Mulliken charges:
               1
     1  O   -0.749631
     2  H    0.381296
     3  H    0.368250
     4  O   -0.748740
     5  H    0.375114
     6  H    0.373710
 Sum of Mulliken charges =  -0.00000

 Dipole moment (field-independent basis, Debye):
    X=             -1.5468    Y=             -4.1819    Z=              0.0000  Tot=              4.4588
 Quadrupole moment (field-independent basis, Debye-Ang):
   XX=             -9.4355   YY=             -5.8456   ZZ=            -14.9930
   XY=             -7.8332   XZ=              0.0000   YZ=              0.0000

 8113\MP4DQ=-33.8935614\MP4SDQ=-33.8955853\CCSD=-33.8966349\CCSD(T)=-33
 Normal termination of Gaussian 16 at Sun Dec 10 06:43:30 2023.
