 Gaussian 16, Revision A.03,
 Gaussian 16:  ES64L-G16RevA.03 25-Dec-2016

 ------------------
 #p CCSD(T)/CEP-31G
 ------------------

 ------------
 H2O_H2O_4474
 ------------
 Symbolic Z-matrix:
 Charge =  0 Multiplicity = 1

                         Standard orientation:
 ---------------------------------------------------------------------
 Center     Atomic      Atomic             Coordinates (Angstroms)
 Number     Number       Type             X           Y           Z
 ---------------------------------------------------------------------
      1          8           0       -0.013473    2.876272    0.000000
      2          1           0       -0.011063    1.893674    0.000000
      3          1           0        0.915235    3.197217    0.000000
      4          8           0       -0.013473   -2.716995    0.000000
      5          1           0       -0.996072   -2.719405    0.000000
      6          1           0        0.307472   -3.645704    0.000000
 ---------------------------------------------------------------------

 SCF Done:  E(RHF) =  -33.6533799104     A.U. after   11 cycles
 E2 =    -0.2282887773D+00 EUMP2 =    -0.33881668687749D+02
 CCSD(T)
 CCSD(T)= -0.33898625812D+02

 The electronic state is 1-A'.
 Alpha  occ. eigenvalues --   -1.36254  -1.34844  -0.71896  -0.70484  -0.56077
 Alpha  occ. eigenvalues --   -0.54636  -0.50849  -0.49444
 Alpha virt. eigenvalues --    0.19575   0.21062   0.29856   0.31326   0.79703
 Alpha virt. eigenvalues --    0.81076   0.82558   0.84059   0.85715   0.87153
 Alpha virt. eigenvalues --    1.16715   1.18137   1.21156   1.22638   2.56660

 Mulliken charges:
               1
     1  O   -0.747315
     2  H    0.377054
     3  H    0.370252
     4  O   -0.746996
     5  H    0.373129
     6  H    0.373877
 Sum of Mulliken charges =   0.00000

 Dipole moment (field-independent basis, Debye):
    X=              0.6188    Y=             -3.7325    Z=              0.0000  Tot=              3.7834
 Quadrupole moment (field-independent basis, Debye-Ang):
   XX=             -9.8767   YY=             -7.0036   ZZ=            -14.9917
   XY=             10.4281   XZ=              0.0000   YZ=              0.0000

 2446\MP4DQ=-33.8929923\MP4SDQ=-33.895016\CCSD=-33.8960684\CCSD(T)=-33.
 Normal termination of Gaussian 16 at Sun Dec 10 06:53:32 2023.
