 Gaussian 16, Revision A.03,
 Gaussian 16:  ES64L-G16RevA.03 25-Dec-2016

 ------------------
 #p CCSD(T)/CEP-31G
 ------------------

 -----------
 H2O_H2O_581
 -----------
 Symbolic Z-matrix:
 Charge =  0 Multiplicity = 1

                         Standard orientation:
 ---------------------------------------------------------------------
 Center     Atomic      Atomic             Coordinates (Angstroms)
 Number     Number       Type             X           Y           Z
 ---------------------------------------------------------------------
      1          8           0        0.076799   -1.332713    0.000000
      2          1           0        0.075701   -0.350112    0.000000
      3          1           0       -0.852337   -1.652418    0.000000
      4          8           0        0.076799    1.169581    0.000000
      5          1           0        0.451810    2.077806    0.000000
      6          1           0       -0.903957    1.229777    0.000000
 ---------------------------------------------------------------------

 SCF Done:  E(RHF) =  -33.6490367035     A.U. after   11 cycles
 E2 =    -0.2288397216D+00 EUMP2 =    -0.33877876425138D+02
 CCSD(T)
 CCSD(T)= -0.33894030454D+02

 The electronic state is 1-A'.
 Alpha  occ. eigenvalues --   -1.40941  -1.30632  -0.77283  -0.69671  -0.58800
 Alpha  occ. eigenvalues --   -0.55297  -0.49626  -0.45044
 Alpha virt. eigenvalues --    0.16718   0.25836   0.27952   0.51875   0.73986
 Alpha virt. eigenvalues --    0.76250   0.85572   0.88281   0.96023   1.08336
 Alpha virt. eigenvalues --    1.15496   1.22969   1.25327   1.36233   2.67419

 Mulliken charges:
               1
     1  O   -0.745024
     2  H    0.393603
     3  H    0.329170
     4  O   -0.824911
     5  H    0.458163
     6  H    0.388999
 Sum of Mulliken charges =   0.00000

 Dipole moment (field-independent basis, Debye):
    X=             -3.2675    Y=              4.6467    Z=              0.0000  Tot=              5.6806
 Quadrupole moment (field-independent basis, Debye-Ang):
   XX=            -10.3426   YY=             -9.4903   ZZ=            -14.9953
   XY=              3.1942   XZ=              0.0000   YZ=              0.0000

 329\MP4DQ=-33.887973\MP4SDQ=-33.8902388\CCSD=-33.8910948\CCSD(T)=-33.8
 Normal termination of Gaussian 16 at Sun Dec 10 06:29:28 2023.
