 Gaussian 16, Revision A.03,
 Gaussian 16:  ES64L-G16RevA.03 25-Dec-2016

 ------------------
 #p CCSD(T)/CEP-31G
 ------------------

 ------------
 H2O_H2O_4447
 ------------
 Symbolic Z-matrix:
 Charge =  0 Multiplicity = 1

                         Standard orientation:
 ---------------------------------------------------------------------
 Center     Atomic      Atomic             Coordinates (Angstroms)
 Number     Number       Type             X           Y           Z
 ---------------------------------------------------------------------
      1          8           0       -0.019817    2.870561    0.000000
      2          1           0       -0.017592    1.887962    0.000000
      3          1           0        0.908951    3.191332    0.000000
      4          8           0       -0.019817   -2.703437    0.000000
      5          1           0       -0.993720   -2.833898    0.000000
      6          1           0        0.419438   -3.582391    0.000000
 ---------------------------------------------------------------------

 SCF Done:  E(RHF) =  -33.6534583791     A.U. after   11 cycles
 E2 =    -0.2282880670D+00 EUMP2 =    -0.33881746446136D+02
 CCSD(T)
 CCSD(T)= -0.33898700747D+02

 The electronic state is 1-A'.
 Alpha  occ. eigenvalues --   -1.36259  -1.34759  -0.71899  -0.70397  -0.56087
 Alpha  occ. eigenvalues --   -0.54553  -0.50855  -0.49359
 Alpha virt. eigenvalues --    0.19581   0.21151   0.29852   0.31426   0.79697
 Alpha virt. eigenvalues --    0.81157   0.82541   0.84141   0.85718   0.87238
 Alpha virt. eigenvalues --    1.16715   1.18223   1.21151   1.22734   2.56671

 Mulliken charges:
               1
     1  O   -0.747624
     2  H    0.377881
     3  H    0.369731
     4  O   -0.747165
     5  H    0.373548
     6  H    0.373629
 Sum of Mulliken charges =  -0.00000

 Dipole moment (field-independent basis, Debye):
    X=              0.9097    Y=             -3.9182    Z=              0.0000  Tot=              4.0224
 Quadrupole moment (field-independent basis, Debye-Ang):
   XX=             -9.6803   YY=             -6.3063   ZZ=            -14.9919
   XY=              9.7301   XZ=              0.0000   YZ=              0.0000

 MP4DQ=-33.893068\MP4SDQ=-33.8950915\CCSD=-33.8961436\CCSD(T)=-33.89870
 Normal termination of Gaussian 16 at Sun Dec 10 06:53:02 2023.
