 Gaussian 16, Revision A.03,
 Gaussian 16:  ES64L-G16RevA.03 25-Dec-2016

 ------------------
 #p CCSD(T)/CEP-31G
 ------------------

 ------------
 H2O_H2O_1565
 ------------
 Symbolic Z-matrix:
 Charge =  0 Multiplicity = 1

                         Standard orientation:
 ---------------------------------------------------------------------
 Center     Atomic      Atomic             Coordinates (Angstroms)
 Number     Number       Type             X           Y           Z
 ---------------------------------------------------------------------
      1          8           0        0.044921    1.730968   -0.000000
      2          1           0        0.042433    0.748370   -0.000000
      3          1           0       -0.883762    2.051987   -0.000000
      4          8           0        0.044921   -1.550631    0.000000
      5          1           0        0.860539   -2.098602    0.000000
      6          1           0       -0.737946   -2.144454    0.000000
 ---------------------------------------------------------------------

 SCF Done:  E(RHF) =  -33.6609821348     A.U. after   11 cycles
 E2 =    -0.2288140827D+00 EUMP2 =    -0.33889796217504D+02
 CCSD(T)
 CCSD(T)= -0.33906574395D+02

 The electronic state is 1-A'.
 Alpha  occ. eigenvalues --   -1.37863  -1.32401  -0.73500  -0.68230  -0.58337
 Alpha  occ. eigenvalues --   -0.52561  -0.52200  -0.47070
 Alpha virt. eigenvalues --    0.17970   0.25040   0.28664   0.38539   0.77317
 Alpha virt. eigenvalues --    0.80841   0.84142   0.86127   0.90839   0.96117
 Alpha virt. eigenvalues --    1.15275   1.19736   1.21101   1.33808   2.49753

 Mulliken charges:
               1
     1  O   -0.779400
     2  H    0.421027
     3  H    0.356689
     4  O   -0.778354
     5  H    0.393122
     6  H    0.386916
 Sum of Mulliken charges =   0.00000

 Dipole moment (field-independent basis, Debye):
    X=             -2.0058    Y=             -4.5339    Z=              0.0000  Tot=              4.9577
 Quadrupole moment (field-independent basis, Debye-Ang):
   XX=             -9.4041   YY=             -7.9720   ZZ=            -15.0081
   XY=             -4.8343   XZ=             -0.0000   YZ=             -0.0000

 899\MP4DQ=-33.9008141\MP4SDQ=-33.9029\CCSD=-33.9039055\CCSD(T)=-33.906
 Normal termination of Gaussian 16 at Sun Dec 10 06:48:23 2023.
