 Gaussian 16, Revision A.03,
 Gaussian 16:  ES64L-G16RevA.03 25-Dec-2016

 ------------------
 #p CCSD(T)/CEP-31G
 ------------------

 ------------
 H2O_H2O_1705
 ------------
 Symbolic Z-matrix:
 Charge =  0 Multiplicity = 1

                         Standard orientation:
 ---------------------------------------------------------------------
 Center     Atomic      Atomic             Coordinates (Angstroms)
 Number     Number       Type             X           Y           Z
 ---------------------------------------------------------------------
      1          8           0        0.079865   -1.779222    0.000000
      2          1           0        0.079211   -0.796620    0.000000
      3          1           0       -0.849416   -2.098507    0.000000
      4          8           0        0.079865    1.620187    0.000000
      5          1           0        0.395093    2.550851    0.000000
      6          1           0       -0.902730    1.616554    0.000000
 ---------------------------------------------------------------------

 SCF Done:  E(RHF) =  -33.6563043888     A.U. after   11 cycles
 E2 =    -0.2288283416D+00 EUMP2 =    -0.33885132730442D+02
 CCSD(T)
 CCSD(T)= -0.33902104300D+02

 The electronic state is 1-A'.
 Alpha  occ. eigenvalues --   -1.37775  -1.33449  -0.73535  -0.69046  -0.57870
 Alpha  occ. eigenvalues --   -0.53172  -0.52384  -0.48042
 Alpha virt. eigenvalues --    0.17318   0.24247   0.28517   0.36270   0.77602
 Alpha virt. eigenvalues --    0.81785   0.83137   0.85149   0.89400   0.98631
 Alpha virt. eigenvalues --    1.15141   1.18701   1.20985   1.37628   2.51341

 Mulliken charges:
               1
     1  O   -0.761894
     2  H    0.404204
     3  H    0.354900
     4  O   -0.764104
     5  H    0.395152
     6  H    0.371742
 Sum of Mulliken charges =   0.00000

 Dipole moment (field-independent basis, Debye):
    X=             -3.5943    Y=              3.9864    Z=              0.0000  Tot=              5.3675
 Quadrupole moment (field-independent basis, Debye-Ang):
   XX=            -10.5017   YY=             -8.4622   ZZ=            -14.9963
   XY=              3.3493   XZ=              0.0000   YZ=              0.0000

 91\MP4DQ=-33.8963167\MP4SDQ=-33.8984328\CCSD=-33.8994517\CCSD(T)=-33.9
 Normal termination of Gaussian 16 at Sun Dec 10 06:51:05 2023.
