 Gaussian 16, Revision A.03,
 Gaussian 16:  ES64L-G16RevA.03 25-Dec-2016

 ------------------
 #p CCSD(T)/CEP-31G
 ------------------

 ------------
 H2O_H2O_1443
 ------------
 Symbolic Z-matrix:
 Charge =  0 Multiplicity = 1

                         Standard orientation:
 ---------------------------------------------------------------------
 Center     Atomic      Atomic             Coordinates (Angstroms)
 Number     Number       Type             X           Y           Z
 ---------------------------------------------------------------------
      1          8           0        0.033875    1.679548    0.000000
      2          1           0        0.030719    0.696952    0.000000
      3          1           0       -0.894589    2.001198    0.000000
      4          8           0        0.033875   -1.502089    0.000000
      5          1           0        0.940468   -1.881029    0.000000
      6          1           0       -0.618600   -2.236788    0.000000
 ---------------------------------------------------------------------

 SCF Done:  E(RHF) =  -33.6618729990     A.U. after   11 cycles
 E2 =    -0.2288220229D+00 EUMP2 =    -0.33890695021934D+02
 CCSD(T)
 CCSD(T)= -0.33907435942D+02

 The electronic state is 1-A'.
 Alpha  occ. eigenvalues --   -1.38028  -1.32211  -0.73677  -0.68156  -0.58577
 Alpha  occ. eigenvalues --   -0.52737  -0.51996  -0.46893
 Alpha virt. eigenvalues --    0.17910   0.25382   0.28562   0.39693   0.76959
 Alpha virt. eigenvalues --    0.80067   0.84539   0.86356   0.90781   0.99335
 Alpha virt. eigenvalues --    1.15252   1.19053   1.21653   1.34555   2.49892

 Mulliken charges:
               1
     1  O   -0.782920
     2  H    0.423085
     3  H    0.357917
     4  O   -0.785326
     5  H    0.392559
     6  H    0.394683
 Sum of Mulliken charges =   0.00000

 Dipole moment (field-independent basis, Debye):
    X=             -1.5128    Y=             -4.4978    Z=              0.0000  Tot=              4.7454
 Quadrupole moment (field-independent basis, Debye-Ang):
   XX=             -9.4036   YY=             -8.1792   ZZ=            -15.0105
   XY=             -5.0763   XZ=              0.0000   YZ=              0.0000

 99\MP4DQ=-33.9016588\MP4SDQ=-33.9037513\CCSD=-33.9047488\CCSD(T)=-33.9
 Normal termination of Gaussian 16 at Sun Dec 10 06:45:57 2023.
