 Gaussian 16, Revision A.03,
 Gaussian 16:  ES64L-G16RevA.03 25-Dec-2016

 ------------------
 #p CCSD(T)/CEP-31G
 ------------------

 ------------
 H2O_H2O_1312
 ------------
 Symbolic Z-matrix:
 Charge =  0 Multiplicity = 1

                         Standard orientation:
 ---------------------------------------------------------------------
 Center     Atomic      Atomic             Coordinates (Angstroms)
 Number     Number       Type             X           Y           Z
 ---------------------------------------------------------------------
      1          8           0        0.056049    1.630431   -0.000000
      2          1           0        0.054013    0.647832   -0.000000
      3          1           0       -0.872782    1.951022   -0.000000
      4          8           0        0.056049   -1.451597    0.000000
      5          1           0        0.749412   -2.147839    0.000000
      6          1           0       -0.827426   -1.881687    0.000000
 ---------------------------------------------------------------------

 SCF Done:  E(RHF) =  -33.6615127890     A.U. after   11 cycles
 E2 =    -0.2289884622D+00 EUMP2 =    -0.33890501251271D+02
 CCSD(T)
 CCSD(T)= -0.33907200867D+02

 The electronic state is 1-A'.
 Alpha  occ. eigenvalues --   -1.38291  -1.32006  -0.73932  -0.68100  -0.58790
 Alpha  occ. eigenvalues --   -0.52996  -0.51705  -0.46652
 Alpha virt. eigenvalues --    0.17735   0.25602   0.28322   0.41091   0.76542
 Alpha virt. eigenvalues --    0.79429   0.85026   0.85684   0.92754   1.00006
 Alpha virt. eigenvalues --    1.14941   1.19430   1.21376   1.34565   2.49911

 Mulliken charges:
               1
     1  O   -0.780651
     2  H    0.428528
     3  H    0.351055
     4  O   -0.789531
     5  H    0.403878
     6  H    0.386721
 Sum of Mulliken charges =  -0.00000

 Dipole moment (field-independent basis, Debye):
    X=             -2.4790    Y=             -4.5768    Z=              0.0000  Tot=              5.2050
 Quadrupole moment (field-independent basis, Debye-Ang):
   XX=             -9.5641   YY=             -8.3329   ZZ=            -15.0106
   XY=             -4.2723   XZ=              0.0000   YZ=             -0.0000

 91\MP4DQ=-33.9013948\MP4SDQ=-33.9034979\CCSD=-33.9044831\CCSD(T)=-33.9
 Normal termination of Gaussian 16 at Sun Dec 10 06:43:21 2023.
