 Gaussian 16, Revision A.03,
 Gaussian 16:  ES64L-G16RevA.03 25-Dec-2016

 ------------------
 #p CCSD(T)/CEP-31G
 ------------------

 ------------
 H2O_H2O_2140
 ------------
 Symbolic Z-matrix:
 Charge =  0 Multiplicity = 1

                         Standard orientation:
 ---------------------------------------------------------------------
 Center     Atomic      Atomic             Coordinates (Angstroms)
 Number     Number       Type             X           Y           Z
 ---------------------------------------------------------------------
      1          8           0        0.044893    1.960336   -0.000000
      2          1           0        0.042710    0.977737   -0.000000
      3          1           0       -0.883890    2.281066   -0.000000
      4          8           0        0.044893   -1.779971    0.000000
      5          1           0        0.860682   -2.327689    0.000000
      6          1           0       -0.737790   -2.374038    0.000000
 ---------------------------------------------------------------------

 SCF Done:  E(RHF) =  -33.6580231487     A.U. after   11 cycles
 E2 =    -0.2285293494D+00 EUMP2 =    -0.33886552498042D+02
 CCSD(T)
 CCSD(T)= -0.33903426368D+02

 The electronic state is 1-A'.
 Alpha  occ. eigenvalues --   -1.37257  -1.33233  -0.72905  -0.68874  -0.57425
 Alpha  occ. eigenvalues --   -0.53081  -0.51914  -0.47884
 Alpha virt. eigenvalues --    0.18241   0.23706   0.29098   0.34580   0.78492
 Alpha virt. eigenvalues --    0.82745   0.83325   0.85990   0.87653   0.89167
 Alpha virt. eigenvalues --    1.15846   1.20127   1.20412   1.31629   2.52455

 Mulliken charges:
               1
     1  O   -0.767248
     2  H    0.403301
     3  H    0.361706
     4  O   -0.761338
     5  H    0.384347
     6  H    0.379232
 Sum of Mulliken charges =   0.00000

 Dipole moment (field-independent basis, Debye):
    X=             -2.0267    Y=             -4.4180    Z=              0.0000  Tot=              4.8607
 Quadrupole moment (field-independent basis, Debye-Ang):
   XX=             -9.4177   YY=             -7.3041   ZZ=            -15.0010
   XY=             -5.3612   XZ=              0.0000   YZ=             -0.0000

 11\MP4DQ=-33.89773\MP4SDQ=-33.8997981\CCSD=-33.9008233\CCSD(T)=-33.903
 Normal termination of Gaussian 16 at Sun Dec 10 06:59:21 2023.
