 Gaussian 16, Revision A.03,
 Gaussian 16:  ES64L-G16RevA.03 25-Dec-2016

 ------------------
 #p CCSD(T)/CEP-31G
 ------------------

 -----------
 H2O_H2O_756
 -----------
 Symbolic Z-matrix:
 Charge =  0 Multiplicity = 1

                         Standard orientation:
 ---------------------------------------------------------------------
 Center     Atomic      Atomic             Coordinates (Angstroms)
 Number     Number       Type             X           Y           Z
 ---------------------------------------------------------------------
      1          8           0        0.076794   -1.402521    0.000000
      2          1           0        0.075754   -0.419920    0.000000
      3          1           0       -0.852361   -1.722171    0.000000
      4          8           0        0.076794    1.239380    0.000000
      5          1           0        0.451858    2.147583    0.000000
      6          1           0       -0.903959    1.299634    0.000000
 ---------------------------------------------------------------------

 SCF Done:  E(RHF) =  -33.6544143446     A.U. after   11 cycles
 E2 =    -0.2289676593D+00 EUMP2 =    -0.33883382003857D+02
 CCSD(T)
 CCSD(T)= -0.33899822150D+02

 The electronic state is 1-A'.
 Alpha  occ. eigenvalues --   -1.40019  -1.31290  -0.76168  -0.68857  -0.59175
 Alpha  occ. eigenvalues --   -0.54525  -0.50542  -0.45776
 Alpha virt. eigenvalues --    0.16897   0.26140   0.27559   0.48410   0.74509
 Alpha virt. eigenvalues --    0.77082   0.85256   0.87296   0.94959   1.09241
 Alpha virt. eigenvalues --    1.16035   1.22496   1.23945   1.36416   2.59223

 Mulliken charges:
               1
     1  O   -0.755042
     2  H    0.406595
     3  H    0.335781
     4  O   -0.815893
     5  H    0.444081
     6  H    0.384478
 Sum of Mulliken charges =   0.00000

 Dipole moment (field-independent basis, Debye):
    X=             -3.3135    Y=              4.4994    Z=              0.0000  Tot=              5.5878
 Quadrupole moment (field-independent basis, Debye-Ang):
   XX=            -10.3472   YY=             -9.2259   ZZ=            -15.0024
   XY=              3.2588   XZ=              0.0000   YZ=              0.0000

 3\MP4DQ=-33.8938285\MP4SDQ=-33.8960529\CCSD=-33.8969609\CCSD(T)=-33.89
 Normal termination of Gaussian 16 at Sun Dec 10 06:32:44 2023.
