 Gaussian 16, Revision A.03,
 Gaussian 16:  ES64L-G16RevA.03 25-Dec-2016

 ------------------
 #p CCSD(T)/CEP-31G
 ------------------

 ------------
 H2O_H2O_2772
 ------------
 Symbolic Z-matrix:
 Charge =  0 Multiplicity = 1

                         Standard orientation:
 ---------------------------------------------------------------------
 Center     Atomic      Atomic             Coordinates (Angstroms)
 Number     Number       Type             X           Y           Z
 ---------------------------------------------------------------------
      1          8           0       -0.019877    2.202430    0.000000
      2          1           0       -0.016950    1.219833    0.000000
      3          1           0        0.908662    2.523864    0.000000
      4          8           0       -0.019877   -2.035334    0.000000
      5          1           0       -0.993686   -2.166491    0.000000
      6          1           0        0.420006   -2.913975    0.000000
 ---------------------------------------------------------------------

 SCF Done:  E(RHF) =  -33.6559336867     A.U. after   11 cycles
 E2 =    -0.2283368931D+00 EUMP2 =    -0.33884270579862D+02
 CCSD(T)
 CCSD(T)= -0.33901172813D+02

 The electronic state is 1-A'.
 Alpha  occ. eigenvalues --   -1.36814  -1.34036  -0.72468  -0.69680  -0.56791
 Alpha  occ. eigenvalues --   -0.53889  -0.51442  -0.48674
 Alpha virt. eigenvalues --    0.18435   0.22552   0.29395   0.32578   0.79111
 Alpha virt. eigenvalues --    0.81820   0.82883   0.84477   0.85959   0.87852
 Alpha virt. eigenvalues --    1.16193   1.19448   1.20657   1.27619   2.55717

 Mulliken charges:
               1
     1  O   -0.757827
     2  H    0.388591
     3  H    0.368151
     4  O   -0.755025
     5  H    0.377770
     6  H    0.378341
 Sum of Mulliken charges =  -0.00000

 Dipole moment (field-independent basis, Debye):
    X=              0.9024    Y=             -4.0077    Z=              0.0000  Tot=              4.1081
 Quadrupole moment (field-independent basis, Debye-Ang):
   XX=             -9.6711   YY=             -7.3877   ZZ=            -14.9966
   XY=              7.4646   XZ=              0.0000   YZ=              0.0000

 7661\MP4DQ=-33.8955214\MP4SDQ=-33.8975654\CCSD=-33.8986008\CCSD(T)=-33
 Normal termination of Gaussian 16 at Sun Dec 10 06:22:54 2023.
