 Gaussian 16, Revision A.03,
 Gaussian 16:  ES64L-G16RevA.03 25-Dec-2016

 ------------------
 #p CCSD(T)/CEP-31G
 ------------------

 ------------
 H2O_H2O_1641
 ------------
 Symbolic Z-matrix:
 Charge =  0 Multiplicity = 1

                         Standard orientation:
 ---------------------------------------------------------------------
 Center     Atomic      Atomic             Coordinates (Angstroms)
 Number     Number       Type             X           Y           Z
 ---------------------------------------------------------------------
      1          8           0        0.041204    1.760629   -0.000000
      2          1           0        0.038572    0.778031   -0.000000
      3          1           0       -0.887432    2.081784   -0.000000
      4          8           0        0.041204   -1.580762    0.000000
      5          1           0        0.890843   -2.074340    0.000000
      6          1           0       -0.701243   -2.224407    0.000000
 ---------------------------------------------------------------------

 SCF Done:  E(RHF) =  -33.6606704574     A.U. after   11 cycles
 E2 =    -0.2287574407D+00 EUMP2 =    -0.33889427898098D+02
 CCSD(T)
 CCSD(T)= -0.33906227050D+02

 The electronic state is 1-A'.
 Alpha  occ. eigenvalues --   -1.37757  -1.32533  -0.73398  -0.68315  -0.58196
 Alpha  occ. eigenvalues --   -0.52450  -0.52352  -0.47205
 Alpha virt. eigenvalues --    0.18015   0.24864   0.28747   0.37850   0.77518
 Alpha virt. eigenvalues --    0.81216   0.83896   0.86250   0.90178   0.95306
 Alpha virt. eigenvalues --    1.15381   1.19712   1.21063   1.33783   2.50009

 Mulliken charges:
               1
     1  O   -0.778330
     2  H    0.418113
     3  H    0.358290
     4  O   -0.775643
     5  H    0.390706
     6  H    0.386864
 Sum of Mulliken charges =  -0.00000

 Dipole moment (field-independent basis, Debye):
    X=             -1.8440    Y=             -4.5029    Z=              0.0000  Tot=              4.8658
 Quadrupole moment (field-independent basis, Debye-Ang):
   XX=             -9.3890   YY=             -7.8863   ZZ=            -15.0071
   XY=             -5.0370   XZ=              0.0000   YZ=             -0.0000

 7473\MP4DQ=-33.900477\MP4SDQ=-33.9025605\CCSD=-33.9035705\CCSD(T)=-33.
 Normal termination of Gaussian 16 at Sun Dec 10 06:49:52 2023.
