 Gaussian 16, Revision A.03,
 Gaussian 16:  ES64L-G16RevA.03 25-Dec-2016

 ------------------
 #p CCSD(T)/CEP-31G
 ------------------

 ------------
 H2O_H2O_1704
 ------------
 Symbolic Z-matrix:
 Charge =  0 Multiplicity = 1

                         Standard orientation:
 ---------------------------------------------------------------------
 Center     Atomic      Atomic             Coordinates (Angstroms)
 Number     Number       Type             X           Y           Z
 ---------------------------------------------------------------------
      1          8           0        0.082814   -1.776756    0.000000
      2          1           0        0.082307   -0.794155    0.000000
      3          1           0       -0.846515   -2.095902    0.000000
      4          8           0        0.082814    1.622260    0.000000
      5          1           0        0.336641    2.571511    0.000000
      6          1           0       -0.897450    1.554516    0.000000
 ---------------------------------------------------------------------

 SCF Done:  E(RHF) =  -33.6556841407     A.U. after   11 cycles
 E2 =    -0.2288525451D+00 EUMP2 =    -0.33884536685826D+02
 CCSD(T)
 CCSD(T)= -0.33901529979D+02

 The electronic state is 1-A'.
 Alpha  occ. eigenvalues --   -1.37790  -1.33603  -0.73574  -0.69177  -0.57840
 Alpha  occ. eigenvalues --   -0.53315  -0.52387  -0.48187
 Alpha virt. eigenvalues --    0.17176   0.24197   0.28482   0.36119   0.77581
 Alpha virt. eigenvalues --    0.81807   0.83028   0.85038   0.89193   0.99158
 Alpha virt. eigenvalues --    1.15145   1.18469   1.21056   1.38184   2.51573

 Mulliken charges:
               1
     1  O   -0.759624
     2  H    0.401627
     3  H    0.354995
     4  O   -0.762138
     5  H    0.394898
     6  H    0.370242
 Sum of Mulliken charges =  -0.00000

 Dipole moment (field-independent basis, Debye):
    X=             -3.7301    Y=              3.8739    Z=              0.0000  Tot=              5.3778
 Quadrupole moment (field-independent basis, Debye-Ang):
   XX=            -10.6690   YY=             -8.6327   ZZ=            -14.9946
   XY=              3.1454   XZ=              0.0000   YZ=              0.0000

 0117\MP4DQ=-33.895736\MP4SDQ=-33.8978571\CCSD=-33.8988758\CCSD(T)=-33.
 Normal termination of Gaussian 16 at Sun Dec 10 06:51:04 2023.
