 Gaussian 16, Revision A.03,
 Gaussian 16:  ES64L-G16RevA.03 25-Dec-2016

 ------------------
 #p CCSD(T)/CEP-31G
 ------------------

 ------------
 H2O_H2O_3608
 ------------
 Symbolic Z-matrix:
 Charge =  0 Multiplicity = 1

                         Standard orientation:
 ---------------------------------------------------------------------
 Center     Atomic      Atomic             Coordinates (Angstroms)
 Number     Number       Type             X           Y           Z
 ---------------------------------------------------------------------
      1          8           0        0.070193    2.543182    0.000000
      2          1           0        0.069407    1.560581    0.000000
      3          1           0       -0.859045    2.862591   -0.000000
      4          8           0        0.070193   -2.372928    0.000000
      5          1           0        0.560813   -3.224278    0.000000
      6          1           0       -0.894256   -2.560930   -0.000000
 ---------------------------------------------------------------------

 SCF Done:  E(RHF) =  -33.6535283697     A.U. after   11 cycles
 E2 =    -0.2283190893D+00 EUMP2 =    -0.33881847458999D+02
 CCSD(T)
 CCSD(T)= -0.33898798726D+02

 The electronic state is 1-A'.
 Alpha  occ. eigenvalues --   -1.36501  -1.34503  -0.72150  -0.70117  -0.56339
 Alpha  occ. eigenvalues --   -0.54280  -0.51096  -0.49096
 Alpha virt. eigenvalues --    0.19160   0.21552   0.29579   0.31764   0.79470
 Alpha virt. eigenvalues --    0.81413   0.82280   0.84447   0.85440   0.87659
 Alpha virt. eigenvalues --    1.16468   1.18552   1.20864   1.23560   2.56454

 Mulliken charges:
               1
     1  O   -0.747943
     2  H    0.382042
     3  H    0.365723
     4  O   -0.747557
     5  H    0.376860
     6  H    0.370875
 Sum of Mulliken charges =   0.00000

 Dipole moment (field-independent basis, Debye):
    X=             -3.2154    Y=             -4.0283    Z=             -0.0000  Tot=              5.1542
 Quadrupole moment (field-independent basis, Debye-Ang):
   XX=            -10.0264   YY=             -6.6427   ZZ=            -14.9919
   XY=             -4.7167   XZ=              0.0000   YZ=             -0.0000

 142\MP4DQ=-33.8931618\MP4SDQ=-33.8951893\CCSD=-33.896238\CCSD(T)=-33.8
 Normal termination of Gaussian 16 at Sun Dec 10 06:37:55 2023.
