 Gaussian 16, Revision A.03,
 Gaussian 16:  ES64L-G16RevA.03 25-Dec-2016

 ------------------
 #p CCSD(T)/CEP-31G
 ------------------

 ------------
 H2O_H2O_4283
 ------------
 Symbolic Z-matrix:
 Charge =  0 Multiplicity = 1

                         Standard orientation:
 ---------------------------------------------------------------------
 Center     Atomic      Atomic             Coordinates (Angstroms)
 Number     Number       Type             X           Y           Z
 ---------------------------------------------------------------------
      1          8           0        0.070186    2.812430    0.000000
      2          1           0        0.069478    1.829828    0.000000
      3          1           0       -0.859077    3.131766    0.000000
      4          8           0        0.070186   -2.642164   -0.000000
      5          1           0        0.560874   -3.493476   -0.000000
      6          1           0       -0.894248   -2.830242   -0.000000
 ---------------------------------------------------------------------

 SCF Done:  E(RHF) =  -33.6529837752     A.U. after   11 cycles
 E2 =    -0.2283178626D+00 EUMP2 =    -0.33881301637778D+02
 CCSD(T)
 CCSD(T)= -0.33898268137D+02

 The electronic state is 1-A'.
 Alpha  occ. eigenvalues --   -1.36319  -1.34726  -0.71963  -0.70348  -0.56124
 Alpha  occ. eigenvalues --   -0.54494  -0.50907  -0.49314
 Alpha virt. eigenvalues --    0.19477   0.21182   0.29759   0.31450   0.79651
 Alpha virt. eigenvalues --    0.81208   0.82518   0.84214   0.85671   0.87370
 Alpha virt. eigenvalues --    1.16635   1.18231   1.21068   1.22791   2.56604

 Mulliken charges:
               1
     1  O   -0.745824
     2  H    0.378752
     3  H    0.367049
     4  O   -0.745640
     5  H    0.375108
     6  H    0.370554
 Sum of Mulliken charges =  -0.00000

 Dipole moment (field-independent basis, Debye):
    X=             -3.2236    Y=             -4.0015    Z=             -0.0000  Tot=              5.1384
 Quadrupole moment (field-independent basis, Debye-Ang):
   XX=            -10.0245   YY=             -6.1663   ZZ=            -14.9909
   XY=             -5.0027   XZ=             -0.0000   YZ=              0.0000

 861\MP4DQ=-33.8926318\MP4SDQ=-33.8946568\CCSD=-33.8957093\CCSD(T)=-33.
 Normal termination of Gaussian 16 at Sun Dec 10 06:50:05 2023.
