 Gaussian 16, Revision A.03,
 Gaussian 16:  ES64L-G16RevA.03 25-Dec-2016

 ------------------
 #p CCSD(T)/CEP-31G
 ------------------

 ------------
 H2O_H2O_4540
 ------------
 Symbolic Z-matrix:
 Charge =  0 Multiplicity = 1

                         Standard orientation:
 ---------------------------------------------------------------------
 Center     Atomic      Atomic             Coordinates (Angstroms)
 Number     Number       Type             X           Y           Z
 ---------------------------------------------------------------------
      1          8           0        0.044825    2.917674   -0.000000
      2          1           0        0.043381    1.935074   -0.000000
      3          1           0       -0.884199    3.237706   -0.000000
      4          8           0        0.044825   -2.737241    0.000000
      5          1           0        0.861026   -3.284345    0.000000
      6          1           0       -0.737410   -3.331895    0.000000
 ---------------------------------------------------------------------

 SCF Done:  E(RHF) =  -33.6533114642     A.U. after   11 cycles
 E2 =    -0.2282999708D+00 EUMP2 =    -0.33881611435017D+02
 CCSD(T)
 CCSD(T)= -0.33898568604D+02

 The electronic state is 1-A'.
 Alpha  occ. eigenvalues --   -1.36248  -1.34667  -0.71887  -0.70297  -0.56070
 Alpha  occ. eigenvalues --   -0.54451  -0.50842  -0.49263
 Alpha virt. eigenvalues --    0.19596   0.21236   0.29856   0.31517   0.79710
 Alpha virt. eigenvalues --    0.81255   0.82564   0.84246   0.85755   0.87360
 Alpha virt. eigenvalues --    1.16720   1.18302   1.21163   1.22807   2.56689

 Mulliken charges:
               1
     1  O   -0.747060
     2  H    0.378758
     3  H    0.368291
     4  O   -0.746513
     5  H    0.374293
     6  H    0.372230
 Sum of Mulliken charges =  -0.00000

 Dipole moment (field-independent basis, Debye):
    X=             -2.0588    Y=             -4.2308    Z=              0.0000  Tot=              4.7051
 Quadrupole moment (field-independent basis, Debye-Ang):
   XX=             -9.4287   YY=             -5.0683   ZZ=            -14.9917
   XY=             -7.5091   XZ=              0.0000   YZ=             -0.0000

 188\MP4DQ=-33.8929353\MP4SDQ=-33.8949591\CCSD=-33.8960114\CCSD(T)=-33.
 Normal termination of Gaussian 16 at Sun Dec 10 06:54:43 2023.
