 Gaussian 16, Revision A.03,
 Gaussian 16:  ES64L-G16RevA.03 25-Dec-2016

 ------------------
 #p CCSD(T)/CEP-31G
 ------------------

 ------------
 H2O_H2O_4591
 ------------
 Symbolic Z-matrix:
 Charge =  0 Multiplicity = 1

                         Standard orientation:
 ---------------------------------------------------------------------
 Center     Atomic      Atomic             Coordinates (Angstroms)
 Number     Number       Type             X           Y           Z
 ---------------------------------------------------------------------
      1          8           0        0.041104    2.937360   -0.000000
      2          1           0        0.039560    1.954760   -0.000000
      3          1           0       -0.887887    3.257487   -0.000000
      4          8           0        0.041104   -2.757402    0.000000
      5          1           0        0.891289   -3.250040    0.000000
      6          1           0       -0.700630   -3.401868    0.000000
 ---------------------------------------------------------------------

 SCF Done:  E(RHF) =  -33.6533118750     A.U. after   11 cycles
 E2 =    -0.2282991511D+00 EUMP2 =    -0.33881611026150D+02
 CCSD(T)
 CCSD(T)= -0.33898568288D+02

 The electronic state is 1-A'.
 Alpha  occ. eigenvalues --   -1.36237  -1.34683  -0.71875  -0.70314  -0.56058
 Alpha  occ. eigenvalues --   -0.54468  -0.50831  -0.49279
 Alpha virt. eigenvalues --    0.19609   0.21217   0.29867   0.31497   0.79721
 Alpha virt. eigenvalues --    0.81238   0.82578   0.84228   0.85767   0.87339
 Alpha virt. eigenvalues --    1.16731   1.18286   1.21174   1.22786   2.56701

 Mulliken charges:
               1
     1  O   -0.747057
     2  H    0.378529
     3  H    0.368520
     4  O   -0.746509
     5  H    0.374128
     6  H    0.372389
 Sum of Mulliken charges =  -0.00000

 Dipole moment (field-independent basis, Debye):
    X=             -1.8881    Y=             -4.2180    Z=              0.0000  Tot=              4.6213
 Quadrupole moment (field-independent basis, Debye-Ang):
   XX=             -9.4135   YY=             -5.0625   ZZ=            -14.9917
   XY=             -7.8940   XZ=              0.0000   YZ=             -0.0000

 77\MP4DQ=-33.892935\MP4SDQ=-33.8949588\CCSD=-33.8960111\CCSD(T)=-33.89
 Normal termination of Gaussian 16 at Sun Dec 10 06:55:38 2023.
