 Gaussian 16, Revision A.03,
 Gaussian 16:  ES64L-G16RevA.03 25-Dec-2016

 ------------------
 #p CCSD(T)/CEP-31G
 ------------------

 ------------
 H2O_H2O_4566
 ------------
 Symbolic Z-matrix:
 Charge =  0 Multiplicity = 1

                         Standard orientation:
 ---------------------------------------------------------------------
 Center     Atomic      Atomic             Coordinates (Angstroms)
 Number     Number       Type             X           Y           Z
 ---------------------------------------------------------------------
      1          8           0        0.041105    2.927388    0.000000
      2          1           0        0.039555    1.944788    0.000000
      3          1           0       -0.887885    3.247520   -0.000000
      4          8           0        0.041105   -2.747431    0.000000
      5          1           0        0.891288   -3.240073    0.000000
      6          1           0       -0.700633   -3.391893   -0.000000
 ---------------------------------------------------------------------

 SCF Done:  E(RHF) =  -33.6533294765     A.U. after   11 cycles
 E2 =    -0.2282985460D+00 EUMP2 =    -0.33881628022520D+02
 CCSD(T)
 CCSD(T)= -0.33898584783D+02

 The electronic state is 1-A'.
 Alpha  occ. eigenvalues --   -1.36241  -1.34676  -0.71880  -0.70307  -0.56064
 Alpha  occ. eigenvalues --   -0.54461  -0.50836  -0.49273
 Alpha virt. eigenvalues --    0.19604   0.21226   0.29863   0.31507   0.79716
 Alpha virt. eigenvalues --    0.81245   0.82571   0.84235   0.85761   0.87345
 Alpha virt. eigenvalues --    1.16727   1.18294   1.21170   1.22796   2.56696

 Mulliken charges:
               1
     1  O   -0.747127
     2  H    0.378621
     3  H    0.368496
     4  O   -0.746569
     5  H    0.374166
     6  H    0.372413
 Sum of Mulliken charges =   0.00000

 Dipole moment (field-independent basis, Debye):
    X=             -1.8879    Y=             -4.2186    Z=             -0.0000  Tot=              4.6218
 Quadrupole moment (field-independent basis, Debye-Ang):
   XX=             -9.4134   YY=             -5.0849   ZZ=            -14.9917
   XY=             -7.8700   XZ=              0.0000   YZ=             -0.0000

 2\MP4DQ=-33.8929516\MP4SDQ=-33.8949754\CCSD=-33.8960276\CCSD(T)=-33.89
 Normal termination of Gaussian 16 at Sun Dec 10 06:55:11 2023.
