 Gaussian 16, Revision A.03,
 Gaussian 16:  ES64L-G16RevA.03 25-Dec-2016

 ------------------
 #p CCSD(T)/CEP-31G
 ------------------

 -----------
 H2O_H2O_890
 -----------
 Symbolic Z-matrix:
 Charge =  0 Multiplicity = 1

                         Standard orientation:
 ---------------------------------------------------------------------
 Center     Atomic      Atomic             Coordinates (Angstroms)
 Number     Number       Type             X           Y           Z
 ---------------------------------------------------------------------
      1          8           0        0.044966    1.461705    0.000000
      2          1           0        0.041989    0.479108    0.000000
      3          1           0       -0.883558    1.783185    0.000000
      4          8           0        0.044966   -1.281412   -0.000000
      5          1           0        0.860312   -1.829788   -0.000000
      6          1           0       -0.738195   -1.874846   -0.000000
 ---------------------------------------------------------------------

 SCF Done:  E(RHF) =  -33.6626798296     A.U. after   11 cycles
 E2 =    -0.2291037832D+00 EUMP2 =    -0.33891783612771D+02
 CCSD(T)
 CCSD(T)= -0.33908058230D+02

 The electronic state is 1-A'.
 Alpha  occ. eigenvalues --   -1.39331  -1.30716  -0.74833  -0.68625  -0.59300
 Alpha  occ. eigenvalues --   -0.54071  -0.50136  -0.45332
 Alpha virt. eigenvalues --    0.17502   0.26962   0.27738   0.47535   0.75100
 Alpha virt. eigenvalues --    0.76347   0.85537   0.87160   0.96605   0.99122
 Alpha virt. eigenvalues --    1.14992   1.18744   1.23005   1.36244   2.55395

 Mulliken charges:
               1
     1  O   -0.785227
     2  H    0.436937
     3  H    0.344463
     4  O   -0.817377
     5  H    0.414308
     6  H    0.406895
 Sum of Mulliken charges =  -0.00000

 Dipole moment (field-independent basis, Debye):
    X=             -1.9589    Y=             -4.8016    Z=             -0.0000  Tot=              5.1858
 Quadrupole moment (field-independent basis, Debye-Ang):
   XX=             -9.3703   YY=             -8.9888   ZZ=            -15.0193
   XY=             -4.1866   XZ=             -0.0000   YZ=              0.0000

 91\MP4DQ=-33.9021852\MP4SDQ=-33.9043106\CCSD=-33.9052176\CCSD(T)=-33.9
 Normal termination of Gaussian 16 at Sun Dec 10 06:35:15 2023.
