 Gaussian 16, Revision A.03,
 Gaussian 16:  ES64L-G16RevA.03 25-Dec-2016

 ------------------
 #p CCSD(T)/CEP-31G
 ------------------

 -----------
 H2O_H2O_161
 -----------
 Symbolic Z-matrix:
 Charge =  0 Multiplicity = 1

                         Standard orientation:
 ---------------------------------------------------------------------
 Center     Atomic      Atomic             Coordinates (Angstroms)
 Number     Number       Type             X           Y           Z
 ---------------------------------------------------------------------
      1          8           0        0.059764    1.170882   -0.000000
      2          1           0        0.057151    0.188284   -0.000000
      3          1           0       -0.868879    1.492019   -0.000000
      4          8           0        0.059764   -0.993603    0.000000
      5          1           0        0.705672   -1.734082    0.000000
      6          1           0       -0.850167   -1.364456    0.000000
 ---------------------------------------------------------------------

 SCF Done:  E(RHF) =  -33.6154142401     A.U. after   11 cycles
 E2 =    -0.2281432558D+00 EUMP2 =    -0.33843557495825D+02
 CCSD(T)
 CCSD(T)= -0.33858331729D+02

 The electronic state is 1-A'.
 Alpha  occ. eigenvalues --   -1.44733  -1.27446  -0.79905  -0.76389  -0.58284
 Alpha  occ. eigenvalues --   -0.55315  -0.44892  -0.41487
 Alpha virt. eigenvalues --    0.16256   0.25091   0.29936   0.61131   0.73292
 Alpha virt. eigenvalues --    0.73656   0.87002   0.91335   0.93114   1.07667
 Alpha virt. eigenvalues --    1.11702   1.17656   1.27687   1.34599   2.93703

 Mulliken charges:
               1
     1  O   -0.743184
     2  H    0.341903
     3  H    0.305430
     4  O   -0.802117
     5  H    0.471802
     6  H    0.426166
 Sum of Mulliken charges =  -0.00000

 Dipole moment (field-independent basis, Debye):
    X=             -2.4125    Y=             -5.5394    Z=              0.0000  Tot=              6.0419
 Quadrupole moment (field-independent basis, Debye-Ang):
   XX=             -9.5740   YY=            -10.5175   ZZ=            -14.9461
   XY=             -3.3130   XZ=              0.0000   YZ=             -0.0000

 6\MP4DQ=-33.8521358\MP4SDQ=-33.8544874\CCSD=-33.8551162\CCSD(T)=-33.85
 Normal termination of Gaussian 16 at Sun Dec 10 06:21:13 2023.
