 Gaussian 16, Revision A.03,
 Gaussian 16:  ES64L-G16RevA.03 25-Dec-2016

 ------------------
 #p CCSD(T)/CEP-31G
 ------------------

 ------------
 H2O_H2O_1085
 ------------
 Symbolic Z-matrix:
 Charge =  0 Multiplicity = 1

                         Standard orientation:
 ---------------------------------------------------------------------
 Center     Atomic      Atomic             Coordinates (Angstroms)
 Number     Number       Type             X           Y           Z
 ---------------------------------------------------------------------
      1          8           0        0.063292    1.538832    0.000000
      2          1           0        0.061554    0.556232    0.000000
      3          1           0       -0.865636    1.859142    0.000000
      4          8           0        0.063292   -1.363405   -0.000000
      5          1           0        0.660081   -2.144012   -0.000000
      6          1           0       -0.868669   -1.674781   -0.000000
 ---------------------------------------------------------------------

 SCF Done:  E(RHF) =  -33.6610562909     A.U. after   11 cycles
 E2 =    -0.2290799270D+00 EUMP2 =    -0.33890136217885D+02
 CCSD(T)
 CCSD(T)= -0.33906731400D+02

 The electronic state is 1-A'.
 Alpha  occ. eigenvalues --   -1.38810  -1.31635  -0.74493  -0.68219  -0.59115
 Alpha  occ. eigenvalues --   -0.53501  -0.51198  -0.46244
 Alpha virt. eigenvalues --    0.17467   0.26105   0.27919   0.43842   0.75744
 Alpha virt. eigenvalues --    0.78148   0.85376   0.85949   0.94019   1.04293
 Alpha virt. eigenvalues --    1.15154   1.18541   1.21889   1.35739   2.51812

 Mulliken charges:
               1
     1  O   -0.777945
     2  H    0.430620
     3  H    0.345563
     4  O   -0.802286
     5  H    0.416843
     6  H    0.387205
 Sum of Mulliken charges =  -0.00000

 Dipole moment (field-independent basis, Debye):
    X=             -2.7705    Y=             -4.5904    Z=             -0.0000  Tot=              5.3617
 Quadrupole moment (field-independent basis, Debye-Ang):
   XX=             -9.7627   YY=             -8.6845   ZZ=            -15.0118
   XY=             -3.9052   XZ=             -0.0000   YZ=              0.0000

 864\MP4DQ=-33.9008706\MP4SDQ=-33.9030021\CCSD=-33.9039605\CCSD(T)=-33.
 Normal termination of Gaussian 16 at Sun Dec 10 06:38:55 2023.
