 Gaussian 16, Revision A.03,
 Gaussian 16:  ES64L-G16RevA.03 25-Dec-2016

 ------------------
 #p CCSD(T)/CEP-31G
 ------------------

 ------------
 H2O_H2O_4493
 ------------
 Symbolic Z-matrix:
 Charge =  0 Multiplicity = 1

                         Standard orientation:
 ---------------------------------------------------------------------
 Center     Atomic      Atomic             Coordinates (Angstroms)
 Number     Number       Type             X           Y           Z
 ---------------------------------------------------------------------
      1          8           0        0.033752    2.896167   -0.000000
      2          1           0        0.031963    1.913567   -0.000000
      3          1           0       -0.895160    3.216525   -0.000000
      4          8           0        0.033752   -2.718614    0.000000
      5          1           0        0.940871   -3.096291    0.000000
      6          1           0       -0.617699   -3.454221    0.000000
 ---------------------------------------------------------------------

 SCF Done:  E(RHF) =  -33.6534316779     A.U. after   11 cycles
 E2 =    -0.2282931521D+00 EUMP2 =    -0.33881724830021D+02
 CCSD(T)
 CCSD(T)= -0.33898678971D+02

 The electronic state is 1-A'.
 Alpha  occ. eigenvalues --   -1.36252  -1.34673  -0.71891  -0.70307  -0.56080
 Alpha  occ. eigenvalues --   -0.54463  -0.50848  -0.49272
 Alpha virt. eigenvalues --    0.19596   0.21235   0.29857   0.31517   0.79703
 Alpha virt. eigenvalues --    0.81244   0.82547   0.84231   0.85742   0.87335
 Alpha virt. eigenvalues --    1.16720   1.18303   1.21160   1.22810   2.56685

 Mulliken charges:
               1
     1  O   -0.747523
     2  H    0.378683
     3  H    0.368828
     4  O   -0.746935
     5  H    0.374067
     6  H    0.372880
 Sum of Mulliken charges =  -0.00000

 Dipole moment (field-independent basis, Debye):
    X=             -1.5496    Y=             -4.1633    Z=              0.0000  Tot=              4.4424
 Quadrupole moment (field-independent basis, Debye-Ang):
   XX=             -9.4372   YY=             -5.3561   ZZ=            -14.9919
   XY=             -8.4638   XZ=              0.0000   YZ=             -0.0000

 2985\MP4DQ=-33.8930464\MP4SDQ=-33.89507\CCSD=-33.896122\CCSD(T)=-33.89
 Normal termination of Gaussian 16 at Sun Dec 10 06:53:52 2023.
