 Gaussian 16, Revision A.03,
 Gaussian 16:  ES64L-G16RevA.03 25-Dec-2016

 ------------------
 #p CCSD(T)/CEP-31G
 ------------------

 ---------
 H2O_H2O_3
 ---------
 Symbolic Z-matrix:
 Charge =  0 Multiplicity = 1

                         Standard orientation:
 ---------------------------------------------------------------------
 Center     Atomic      Atomic             Coordinates (Angstroms)
 Number     Number       Type             X           Y           Z
 ---------------------------------------------------------------------
      1          8           0        0.085626   -1.095973    0.000000
      2          1           0        0.085016   -0.113372    0.000000
      3          1           0       -0.843668   -1.415217    0.000000
      4          8           0        0.085626    0.946435    0.000000
      5          1           0        0.276724    1.910274    0.000000
      6          1           0       -0.888094    0.814622    0.000000
 ---------------------------------------------------------------------

 SCF Done:  E(RHF) =  -33.5547691119     A.U. after   11 cycles
 E2 =    -0.2277566574D+00 EUMP2 =    -0.33782525769270D+02
 CCSD(T)
 CCSD(T)= -0.33797555243D+02

 The electronic state is 1-A'.
 Alpha  occ. eigenvalues --   -1.48566  -1.28189  -0.86335  -0.73769  -0.59793
 Alpha  occ. eigenvalues --   -0.54903  -0.45321  -0.42081
 Alpha virt. eigenvalues --    0.15748   0.22437   0.30604   0.61298   0.72950
 Alpha virt. eigenvalues --    0.74937   0.90938   0.91079   0.96945   1.07976
 Alpha virt. eigenvalues --    1.09801   1.20311   1.28890   1.51032   3.11421

 Mulliken charges:
               1
     1  O   -0.663598
     2  H    0.160282
     3  H    0.294098
     4  O   -0.697652
     5  H    0.509296
     6  H    0.397574
 Sum of Mulliken charges =   0.00000

 Dipole moment (field-independent basis, Debye):
    X=             -3.4644    Y=              5.1572    Z=              0.0000  Tot=              6.2128
 Quadrupole moment (field-independent basis, Debye-Ang):
   XX=            -10.7943   YY=            -10.6827   ZZ=            -14.8584
   XY=              2.5017   XZ=              0.0000   YZ=              0.0000

 2\MP4DQ=-33.7910156\MP4SDQ=-33.7936564\CCSD=-33.794247\CCSD(T)=-33.797
 Normal termination of Gaussian 16 at Sun Dec 10 06:18:04 2023.
