 Gaussian 16, Revision A.03,
 Gaussian 16:  ES64L-G16RevA.03 25-Dec-2016

 ------------------
 #p CCSD(T)/CEP-31G
 ------------------

 ------------
 H2O_H2O_1662
 ------------
 Symbolic Z-matrix:
 Charge =  0 Multiplicity = 1

                         Standard orientation:
 ---------------------------------------------------------------------
 Center     Atomic      Atomic             Coordinates (Angstroms)
 Number     Number       Type             X           Y           Z
 ---------------------------------------------------------------------
      1          8           0        0.056034    1.770047    0.000000
      2          1           0        0.054167    0.787447    0.000000
      3          1           0       -0.872852    2.090479    0.000000
      4          8           0        0.056034   -1.591194   -0.000000
      5          1           0        0.749517   -2.287317   -0.000000
      6          1           0       -0.827368   -2.021436   -0.000000
 ---------------------------------------------------------------------

 SCF Done:  E(RHF) =  -33.6597401925     A.U. after   11 cycles
 E2 =    -0.2287851095D+00 EUMP2 =    -0.33888525302042D+02
 CCSD(T)
 CCSD(T)= -0.33905355549D+02

 The electronic state is 1-A'.
 Alpha  occ. eigenvalues --   -1.37756  -1.32664  -0.73410  -0.68401  -0.58122
 Alpha  occ. eigenvalues --   -0.52456  -0.52433  -0.47314
 Alpha virt. eigenvalues --    0.17930   0.24709   0.28697   0.37534   0.77564
 Alpha virt. eigenvalues --    0.81476   0.83773   0.85825   0.90551   0.95111
 Alpha virt. eigenvalues --    1.15311   1.19888   1.20734   1.34052   2.50091

 Mulliken charges:
               1
     1  O   -0.774631
     2  H    0.416827
     3  H    0.355950
     4  O   -0.773006
     5  H    0.393671
     6  H    0.381189
 Sum of Mulliken charges =  -0.00000

 Dipole moment (field-independent basis, Debye):
    X=             -2.5069    Y=             -4.4768    Z=             -0.0000  Tot=              5.1310
 Quadrupole moment (field-independent basis, Debye-Ang):
   XX=             -9.5741   YY=             -7.8877   ZZ=            -15.0050
   XY=             -4.5143   XZ=             -0.0000   YZ=              0.0000

 8718\MP4DQ=-33.8996\MP4SDQ=-33.901688\CCSD=-33.9027005\CCSD(T)=-33.905
 Normal termination of Gaussian 16 at Sun Dec 10 06:50:16 2023.
