 Gaussian 16, Revision A.03,
 Gaussian 16:  ES64L-G16RevA.03 25-Dec-2016

 ------------------
 #p CCSD(T)/CEP-31G
 ------------------

 ------------
 H2O_H2O_1128
 ------------
 Symbolic Z-matrix:
 Charge =  0 Multiplicity = 1

                         Standard orientation:
 ---------------------------------------------------------------------
 Center     Atomic      Atomic             Coordinates (Angstroms)
 Number     Number       Type             X           Y           Z
 ---------------------------------------------------------------------
      1          8           0        0.085612   -1.544726    0.000000
      2          1           0        0.085188   -0.562125    0.000000
      3          1           0       -0.843743   -1.863794    0.000000
      4          8           0        0.085612    1.395156    0.000000
      5          1           0        0.276892    2.358959    0.000000
      6          1           0       -0.888133    1.263526    0.000000
 ---------------------------------------------------------------------

 SCF Done:  E(RHF) =  -33.6546779459     A.U. after   11 cycles
 E2 =    -0.2290930284D+00 EUMP2 =    -0.33883770974221D+02
 CCSD(T)
 CCSD(T)= -0.33900696657D+02

 The electronic state is 1-A'.
 Alpha  occ. eigenvalues --   -1.38858  -1.32936  -0.74993  -0.68669  -0.58826
 Alpha  occ. eigenvalues --   -0.53392  -0.52481  -0.47465
 Alpha virt. eigenvalues --    0.16857   0.25287   0.27740   0.41728   0.75699
 Alpha virt. eigenvalues --    0.79616   0.84952   0.85008   0.91357   1.11602
 Alpha virt. eigenvalues --    1.15906   1.20576   1.22382   1.38539   2.50763

 Mulliken charges:
               1
     1  O   -0.754650
     2  H    0.399285
     3  H    0.346399
     4  O   -0.779730
     5  H    0.417539
     6  H    0.371158
 Sum of Mulliken charges =   0.00000

 Dipole moment (field-independent basis, Debye):
    X=             -3.7972    Y=              3.9441    Z=              0.0000  Tot=              5.4749
 Quadrupole moment (field-independent basis, Debye-Ang):
   XX=            -10.8584   YY=             -9.1001   ZZ=            -14.9956
   XY=              2.8423   XZ=              0.0000   YZ=              0.0000

 02\MP4DQ=-33.8947665\MP4SDQ=-33.896965\CCSD=-33.8979446\CCSD(T)=-33.90
 Normal termination of Gaussian 16 at Sun Dec 10 06:39:43 2023.
