 Gaussian 16, Revision A.03,
 Gaussian 16:  ES64L-G16RevA.03 25-Dec-2016

 ------------------
 #p CCSD(T)/CEP-31G
 ------------------

 ------------
 H2O_H2O_1119
 ------------
 Symbolic Z-matrix:
 Charge =  0 Multiplicity = 1

                         Standard orientation:
 ---------------------------------------------------------------------
 Center     Atomic      Atomic             Coordinates (Angstroms)
 Number     Number       Type             X           Y           Z
 ---------------------------------------------------------------------
      1          8           0        0.030304    1.548866    0.000000
      2          1           0        0.026658    0.566272    0.000000
      3          1           0       -0.898000    1.870979    0.000000
      4          8           0        0.030304   -1.373339    0.000000
      5          1           0        0.959581   -1.692636    0.000000
      6          1           0       -0.573109   -2.148838    0.000000
 ---------------------------------------------------------------------

 SCF Done:  E(RHF) =  -33.6630899657     A.U. after   11 cycles
 E2 =    -0.2288947504D+00 EUMP2 =    -0.33891984716152D+02
 CCSD(T)
 CCSD(T)= -0.33908544342D+02

 The electronic state is 1-A'.
 Alpha  occ. eigenvalues --   -1.38658  -1.31502  -0.74322  -0.68071  -0.59202
 Alpha  occ. eigenvalues --   -0.53385  -0.51143  -0.46176
 Alpha virt. eigenvalues --    0.17723   0.26280   0.28122   0.43660   0.75882
 Alpha virt. eigenvalues --    0.78120   0.85911   0.86252   0.92534   1.03439
 Alpha virt. eigenvalues --    1.15597   1.18206   1.22677   1.35632   2.51648

 Mulliken charges:
               1
     1  O   -0.786621
     2  H    0.429063
     3  H    0.354520
     4  O   -0.804594
     5  H    0.398838
     6  H    0.408794
 Sum of Mulliken charges =   0.00000

 Dipole moment (field-independent basis, Debye):
    X=             -1.3480    Y=             -4.5724    Z=              0.0000  Tot=              4.7670
 Quadrupole moment (field-independent basis, Debye-Ang):
   XX=             -9.4277   YY=             -8.6327   ZZ=            -15.0162
   XY=             -4.7915   XZ=              0.0000   YZ=              0.0000

 16\MP4DQ=-33.9027163\MP4SDQ=-33.9048273\CCSD=-33.9057885\CCSD(T)=-33.9
 Normal termination of Gaussian 16 at Sun Dec 10 06:39:33 2023.
