 Gaussian 16, Revision A.03,
 Gaussian 16:  ES64L-G16RevA.03 25-Dec-2016

 ------------------
 #p CCSD(T)/CEP-31G
 ------------------

 ------------
 H2O_H2O_2341
 ------------
 Symbolic Z-matrix:
 Charge =  0 Multiplicity = 1

                         Standard orientation:
 ---------------------------------------------------------------------
 Center     Atomic      Atomic             Coordinates (Angstroms)
 Number     Number       Type             X           Y           Z
 ---------------------------------------------------------------------
      1          8           0        0.041169    2.039858    0.000000
      2          1           0        0.038914    1.057259    0.000000
      3          1           0       -0.887590    2.360657   -0.000000
      4          8           0        0.041169   -1.859960    0.000000
      5          1           0        0.890998   -2.353213    0.000000
      6          1           0       -0.701031   -2.503889   -0.000000
 ---------------------------------------------------------------------

 SCF Done:  E(RHF) =  -33.6573236424     A.U. after   11 cycles
 E2 =    -0.2284547873D+00 EUMP2 =    -0.33885778429701D+02
 CCSD(T)
 CCSD(T)= -0.33902660404D+02

 The electronic state is 1-A'.
 Alpha  occ. eigenvalues --   -1.37100  -1.33451  -0.72748  -0.69083  -0.57197
 Alpha  occ. eigenvalues --   -0.53303  -0.51749  -0.48097
 Alpha virt. eigenvalues --    0.18354   0.23318   0.29221   0.33780   0.78740
 Alpha virt. eigenvalues --    0.82449   0.83758   0.85775   0.86044   0.88569
 Alpha virt. eigenvalues --    1.15996   1.20003   1.20462   1.30237   2.53569

 Mulliken charges:
               1
     1  O   -0.764019
     2  H    0.398615
     3  H    0.363384
     4  O   -0.758538
     5  H    0.382196
     6  H    0.378362
 Sum of Mulliken charges =  -0.00000

 Dipole moment (field-independent basis, Debye):
    X=             -1.8632    Y=             -4.3755    Z=             -0.0000  Tot=              4.7557
 Quadrupole moment (field-independent basis, Debye-Ang):
   XX=             -9.4032   YY=             -7.1147   ZZ=            -14.9995
   XY=             -5.7272   XZ=              0.0000   YZ=             -0.0000

 2292\MP4DQ=-33.8969822\MP4SDQ=-33.8990427\CCSD=-33.9000709\CCSD(T)=-33
 Normal termination of Gaussian 16 at Sun Dec 10 07:04:31 2023.
