 Gaussian 16, Revision A.03,
 Gaussian 16:  ES64L-G16RevA.03 25-Dec-2016

 ------------------
 #p CCSD(T)/CEP-31G
 ------------------

 -----------
 H2O_H2O_323
 -----------
 Symbolic Z-matrix:
 Charge =  0 Multiplicity = 1

                         Standard orientation:
 ---------------------------------------------------------------------
 Center     Atomic      Atomic             Coordinates (Angstroms)
 Number     Number       Type             X           Y           Z
 ---------------------------------------------------------------------
      1          8           0        0.016860   -1.223129    0.000000
      2          1           0        0.011187   -0.240544    0.000000
      3          1           0       -0.910777   -1.547157    0.000000
      4          8           0        0.016860    1.059835    0.000000
      5          1           0        0.996971    1.129759    0.000000
      6          1           0       -0.367144    1.964294    0.000000
 ---------------------------------------------------------------------

 SCF Done:  E(RHF) =  -33.6348024371     A.U. after   11 cycles
 E2 =    -0.2276457529D+00 EUMP2 =    -0.33862448190016D+02
 CCSD(T)
 CCSD(T)= -0.33877812325D+02

 The electronic state is 1-A'.
 Alpha  occ. eigenvalues --   -1.42890  -1.28638  -0.79738  -0.71398  -0.57960
 Alpha  occ. eigenvalues --   -0.56795  -0.46828  -0.43031
 Alpha virt. eigenvalues --    0.17128   0.25639   0.29148   0.58194   0.73577
 Alpha virt. eigenvalues --    0.75293   0.88531   0.90164   0.93551   1.03826
 Alpha virt. eigenvalues --    1.14606   1.21133   1.29124   1.40097   2.83521

 Mulliken charges:
               1
     1  O   -0.751888
     2  H    0.343182
     3  H    0.340022
     4  O   -0.832396
     5  H    0.424289
     6  H    0.476792
 Sum of Mulliken charges =  -0.00000

 Dipole moment (field-independent basis, Debye):
    X=             -0.7441    Y=              4.9655    Z=              0.0000  Tot=              5.0209
 Quadrupole moment (field-independent basis, Debye-Ang):
   XX=             -9.6617   YY=             -9.9731   ZZ=            -14.9789
   XY=              4.0502   XZ=              0.0000   YZ=              0.0000

 042\MP4DQ=-33.8717489\MP4SDQ=-33.8740132\CCSD=-33.8747642\CCSD(T)=-33.
 Normal termination of Gaussian 16 at Sun Dec 10 06:24:25 2023.
