 Gaussian 16, Revision A.03,
 Gaussian 16:  ES64L-G16RevA.03 25-Dec-2016

 ------------------
 #p CCSD(T)/CEP-31G
 ------------------

 ------------
 H2O_H2O_2856
 ------------
 Symbolic Z-matrix:
 Charge =  0 Multiplicity = 1

                         Standard orientation:
 ---------------------------------------------------------------------
 Center     Atomic      Atomic             Coordinates (Angstroms)
 Number     Number       Type             X           Y           Z
 ---------------------------------------------------------------------
      1          8           0        0.076761    2.240194    0.000000
      2          1           0        0.076124    1.257593    0.000000
      3          1           0       -0.852526    2.559463    0.000000
      4          8           0        0.076761   -2.076990    0.000000
      5          1           0        0.452199   -2.985040    0.000000
      6          1           0       -0.903967   -2.137648    0.000000
 ---------------------------------------------------------------------

 SCF Done:  E(RHF) =  -33.6541183860     A.U. after   11 cycles
 E2 =    -0.2284037744D+00 EUMP2 =    -0.33882522160346D+02
 CCSD(T)
 CCSD(T)= -0.33899469049D+02

 The electronic state is 1-A'.
 Alpha  occ. eigenvalues --   -1.36829  -1.34278  -0.72494  -0.69875  -0.56706
 Alpha  occ. eigenvalues --   -0.54053  -0.51429  -0.48873
 Alpha virt. eigenvalues --    0.18289   0.22238   0.29261   0.32215   0.79141
 Alpha virt. eigenvalues --    0.81643   0.82754   0.84686   0.85390   0.88030
 Alpha virt. eigenvalues --    1.16073   1.19104   1.20565   1.26868   2.55914

 Mulliken charges:
               1
     1  O   -0.750612
     2  H    0.386599
     3  H    0.363160
     4  O   -0.749614
     5  H    0.380030
     6  H    0.370437
 Sum of Mulliken charges =   0.00000

 Dipole moment (field-independent basis, Debye):
    X=             -3.5030    Y=             -3.9148    Z=              0.0000  Tot=              5.2532
 Quadrupole moment (field-independent basis, Debye-Ang):
   XX=            -10.3258   YY=             -7.5898   ZZ=            -14.9926
   XY=             -3.8950   XZ=              0.0000   YZ=              0.0000

 0636\MP4DQ=-33.8938112\MP4SDQ=-33.8958554\CCSD=-33.8968951\CCSD(T)=-33
 Normal termination of Gaussian 16 at Sun Dec 10 06:24:24 2023.
