 Gaussian 16, Revision A.03,
 Gaussian 16:  ES64L-G16RevA.03 25-Dec-2016

 ------------------
 #p CCSD(T)/CEP-31G
 ------------------

 ------------
 H2O_H2O_4304
 ------------
 Symbolic Z-matrix:
 Charge =  0 Multiplicity = 1

                         Standard orientation:
 ---------------------------------------------------------------------
 Center     Atomic      Atomic             Coordinates (Angstroms)
 Number     Number       Type             X           Y           Z
 ---------------------------------------------------------------------
      1          8           0        0.082798    2.813853   -0.000000
      2          1           0        0.082484    1.831252   -0.000000
      3          1           0       -0.846592    3.132817    0.000000
      4          8           0        0.082798   -2.659325   -0.000000
      5          1           0        0.336811   -3.608526   -0.000000
      6          1           0       -0.897478   -2.591773    0.000000
 ---------------------------------------------------------------------

 SCF Done:  E(RHF) =  -33.6525150538     A.U. after   11 cycles
 E2 =    -0.2283382285D+00 EUMP2 =    -0.33880853282253D+02
 CCSD(T)
 CCSD(T)= -0.33897833899D+02

 The electronic state is 1-A'.
 Alpha  occ. eigenvalues --   -1.36330  -1.34919  -0.71978  -0.70537  -0.56111
 Alpha  occ. eigenvalues --   -0.54669  -0.50911  -0.49498
 Alpha virt. eigenvalues --    0.19409   0.20981   0.29724   0.31209   0.79651
 Alpha virt. eigenvalues --    0.81033   0.82562   0.84045   0.85660   0.87229
 Alpha virt. eigenvalues --    1.16597   1.18025   1.21047   1.22572   2.56538

 Mulliken charges:
               1
     1  O   -0.744021
     2  H    0.377059
     3  H    0.366948
     4  O   -0.744184
     5  H    0.375027
     6  H    0.369172
 Sum of Mulliken charges =  -0.00000

 Dipole moment (field-independent basis, Debye):
    X=             -3.8053    Y=             -3.6319    Z=              0.0000  Tot=              5.2603
 Quadrupole moment (field-independent basis, Debye-Ang):
   XX=            -10.6380   YY=             -7.5574   ZZ=            -14.9897
   XY=             -3.6549   XZ=             -0.0000   YZ=              0.0000

 4503\MP4DQ=-33.8921937\MP4SDQ=-33.89422\CCSD=-33.8952735\CCSD(T)=-33.8
 Normal termination of Gaussian 16 at Sun Dec 10 06:50:28 2023.
