 Gaussian 16, Revision A.03,
 Gaussian 16:  ES64L-G16RevA.03 25-Dec-2016

 ------------------
 #p CCSD(T)/CEP-31G
 ------------------

 ------------
 H2O_H2O_4288
 ------------
 Symbolic Z-matrix:
 Charge =  0 Multiplicity = 1

                         Standard orientation:
 ---------------------------------------------------------------------
 Center     Atomic      Atomic             Coordinates (Angstroms)
 Number     Number       Type             X           Y           Z
 ---------------------------------------------------------------------
      1          8           0        0.052275    2.817675   -0.000000
      2          1           0        0.051010    1.835074   -0.000000
      3          1           0       -0.876807    3.137537   -0.000000
      4          8           0        0.052275   -2.637757    0.000000
      5          1           0        0.790199   -3.286580    0.000000
      6          1           0       -0.800798   -3.125376    0.000000
 ---------------------------------------------------------------------

 SCF Done:  E(RHF) =  -33.6533986633     A.U. after   11 cycles
 E2 =    -0.2282995143D+00 EUMP2 =    -0.33881698177620D+02
 CCSD(T)
 CCSD(T)= -0.33898652678D+02

 The electronic state is 1-A'.
 Alpha  occ. eigenvalues --   -1.36303  -1.34602  -0.71943  -0.70229  -0.56131
 Alpha  occ. eigenvalues --   -0.54386  -0.50898  -0.49199
 Alpha virt. eigenvalues --    0.19530   0.21321   0.29805   0.31599   0.79657
 Alpha virt. eigenvalues --    0.81316   0.82486   0.84315   0.85690   0.87438
 Alpha virt. eigenvalues --    1.16668   1.18374   1.21110   1.22912   2.56633

 Mulliken charges:
               1
     1  O   -0.747411
     2  H    0.379733
     3  H    0.367652
     4  O   -0.746846
     5  H    0.374887
     6  H    0.371984
 Sum of Mulliken charges =  -0.00000

 Dipole moment (field-independent basis, Debye):
    X=             -2.3994    Y=             -4.2266    Z=              0.0000  Tot=              4.8602
 Quadrupole moment (field-independent basis, Debye-Ang):
   XX=             -9.5146   YY=             -5.3420   ZZ=            -14.9919
   XY=             -6.6438   XZ=              0.0000   YZ=             -0.0000

 72\MP4DQ=-33.8930196\MP4SDQ=-33.8950436\CCSD=-33.8960952\CCSD(T)=-33.8
 Normal termination of Gaussian 16 at Sun Dec 10 06:50:11 2023.
