 Gaussian 16, Revision A.03,
 Gaussian 16:  ES64L-G16RevA.03 25-Dec-2016

 ------------------
 #p CCSD(T)/CEP-31G
 ------------------

 ------------
 H2O_H2O_4144
 ------------
 Symbolic Z-matrix:
 Charge =  0 Multiplicity = 1

                         Standard orientation:
 ---------------------------------------------------------------------
 Center     Atomic      Atomic             Coordinates (Angstroms)
 Number     Number       Type             X           Y           Z
 ---------------------------------------------------------------------
      1          8           0        0.030157    2.755516   -0.000000
      2          1           0        0.028160    1.772917   -0.000000
      3          1           0       -0.898687    3.076071   -0.000000
      4          8           0        0.030157   -2.579887    0.000000
      5          1           0        0.959969   -2.897624    0.000000
      6          1           0       -0.571953   -3.356399    0.000000
 ---------------------------------------------------------------------

 SCF Done:  E(RHF) =  -33.6537442220     A.U. after   11 cycles
 E2 =    -0.2282829849D+00 EUMP2 =    -0.33882027206897D+02
 CCSD(T)
 CCSD(T)= -0.33898972721D+02

 The electronic state is 1-A'.
 Alpha  occ. eigenvalues --   -1.36324  -1.34582  -0.71965  -0.70217  -0.56171
 Alpha  occ. eigenvalues --   -0.54382  -0.50925  -0.49186
 Alpha virt. eigenvalues --    0.19510   0.21367   0.29798   0.31644   0.79629
 Alpha virt. eigenvalues --    0.81323   0.82423   0.84313   0.85650   0.87419
 Alpha virt. eigenvalues --    1.16661   1.18419   1.21090   1.22992   2.56613

 Mulliken charges:
               1
     1  O   -0.748745
     2  H    0.379950
     3  H    0.368755
     4  O   -0.748022
     5  H    0.374510
     6  H    0.373552
 Sum of Mulliken charges =  -0.00000

 Dipole moment (field-independent basis, Debye):
    X=             -1.3828    Y=             -4.1280    Z=              0.0000  Tot=              4.3534
 Quadrupole moment (field-independent basis, Debye-Ang):
   XX=             -9.4743   YY=             -5.8063   ZZ=            -14.9925
   XY=             -8.3898   XZ=              0.0000   YZ=             -0.0000

 24\MP4DQ=-33.8933415\MP4SDQ=-33.895365\CCSD=-33.8964158\CCSD(T)=-33.89
 Normal termination of Gaussian 16 at Sun Dec 10 06:47:35 2023.
