 Gaussian 16, Revision A.03,
 Gaussian 16:  ES64L-G16RevA.03 25-Dec-2016

 ------------------
 #p CCSD(T)/CEP-31G
 ------------------

 ------------
 H2O_H2O_1402
 ------------
 Symbolic Z-matrix:
 Charge =  0 Multiplicity = 1

                         Standard orientation:
 ---------------------------------------------------------------------
 Center     Atomic      Atomic             Coordinates (Angstroms)
 Number     Number       Type             X           Y           Z
 ---------------------------------------------------------------------
      1          8           0        0.088237   -1.651557    0.000000
      2          1           0        0.087984   -0.668956    0.000000
      3          1           0       -0.841173   -1.970463    0.000000
      4          8           0        0.088237    1.507251    0.000000
      5          1           0        0.216241    2.481480    0.000000
      6          1           0       -0.874849    1.312385    0.000000
 ---------------------------------------------------------------------

 SCF Done:  E(RHF) =  -33.6543754431     A.U. after   11 cycles
 E2 =    -0.2290727557D+00 EUMP2 =    -0.33883448198873D+02
 CCSD(T)
 CCSD(T)= -0.33900474253D+02

 The electronic state is 1-A'.
 Alpha  occ. eigenvalues --   -1.38288  -1.33606  -0.74279  -0.69122  -0.58274
 Alpha  occ. eigenvalues --   -0.53238  -0.52841  -0.48152
 Alpha virt. eigenvalues --    0.16812   0.24673   0.28076   0.38377   0.76628
 Alpha virt. eigenvalues --    0.80902   0.83737   0.84828   0.89680   1.07842
 Alpha virt. eigenvalues --    1.15633   1.17267   1.21870   1.39797   2.50639

 Mulliken charges:
               1
     1  O   -0.754935
     2  H    0.397546
     3  H    0.351591
     4  O   -0.764915
     5  H    0.403337
     6  H    0.367376
 Sum of Mulliken charges =   0.00000

 Dipole moment (field-independent basis, Debye):
    X=             -3.9531    Y=              3.7027    Z=              0.0000  Tot=              5.4164
 Quadrupole moment (field-independent basis, Debye-Ang):
   XX=            -11.0169   YY=             -9.1374   ZZ=            -14.9920
   XY=              2.6819   XZ=              0.0000   YZ=              0.0000

 8979\MP4DQ=-33.8946018\MP4SDQ=-33.8967694\CCSD=-33.8977715\CCSD(T)=-33
 Normal termination of Gaussian 16 at Sun Dec 10 06:45:08 2023.
