 Gaussian 16, Revision A.03,
 Gaussian 16:  ES64L-G16RevA.03 25-Dec-2016

 ------------------
 #p CCSD(T)/CEP-31G
 ------------------

 ----------
 H2O_H2O_71
 ----------
 Symbolic Z-matrix:
 Charge =  0 Multiplicity = 1

                         Standard orientation:
 ---------------------------------------------------------------------
 Center     Atomic      Atomic             Coordinates (Angstroms)
 Number     Number       Type             X           Y           Z
 ---------------------------------------------------------------------
      1          8           0       -0.023475    1.127184    0.000000
      2          1           0       -0.017795    0.144599    0.000000
      3          1           0        0.904161    1.451217    0.000000
      4          8           0       -0.023475   -0.956943    0.000000
      5          1           0       -0.986072   -1.154205    0.000000
      6          1           0        0.475305   -1.803538    0.000000
 ---------------------------------------------------------------------

 SCF Done:  E(RHF) =  -33.5931119252     A.U. after   11 cycles
 E2 =    -0.2268328334D+00 EUMP2 =    -0.33819944758656D+02
 CCSD(T)
 CCSD(T)= -0.33834515553D+02

 The electronic state is 1-A'.
 Alpha  occ. eigenvalues --   -1.46295  -1.26666  -0.82867  -0.75692  -0.59091
 Alpha  occ. eigenvalues --   -0.55096  -0.43446  -0.40672
 Alpha virt. eigenvalues --    0.16594   0.24560   0.30433   0.62389   0.73295
 Alpha virt. eigenvalues --    0.73969   0.88690   0.91942   0.92349   1.03781
 Alpha virt. eigenvalues --    1.12335   1.19534   1.31072   1.41566   2.98494

 Mulliken charges:
               1
     1  O   -0.742382
     2  H    0.262814
     3  H    0.319057
     4  O   -0.770379
     5  H    0.443465
     6  H    0.487425
 Sum of Mulliken charges =  -0.00000

 Dipole moment (field-independent basis, Debye):
    X=              0.9879    Y=             -5.5729    Z=              0.0000  Tot=              5.6598
 Quadrupole moment (field-independent basis, Debye-Ang):
   XX=             -9.4233   YY=            -10.6217   ZZ=            -14.9194
   XY=              3.4964   XZ=              0.0000   YZ=              0.0000

 14\MP4DQ=-33.8283419\MP4SDQ=-33.8306886\CCSD=-33.8312983\CCSD(T)=-33.8
 Normal termination of Gaussian 16 at Sun Dec 10 06:19:26 2023.
