 Gaussian 16, Revision A.03,
 Gaussian 16:  ES64L-G16RevA.03 25-Dec-2016

 ------------------
 #p CCSD(T)/CEP-31G
 ------------------

 ------------
 H2O_H2O_2373
 ------------
 Symbolic Z-matrix:
 Charge =  0 Multiplicity = 1

                         Standard orientation:
 ---------------------------------------------------------------------
 Center     Atomic      Atomic             Coordinates (Angstroms)
 Number     Number       Type             X           Y           Z
 ---------------------------------------------------------------------
      1          8           0       -0.016663    2.040860    0.000000
      2          1           0       -0.013358    1.058264    0.000000
      3          1           0        0.911752    2.362651    0.000000
      4          8           0       -0.016663   -1.877485    0.000000
      5          1           0       -0.996940   -1.945048    0.000000
      6          1           0        0.365160   -2.782867    0.000000
 ---------------------------------------------------------------------

 SCF Done:  E(RHF) =  -33.6569798902     A.U. after   11 cycles
 E2 =    -0.2284214043D+00 EUMP2 =    -0.33885401294507D+02
 CCSD(T)
 CCSD(T)= -0.33902302834D+02

 The electronic state is 1-A'.
 Alpha  occ. eigenvalues --   -1.37054  -1.33803  -0.72722  -0.69457  -0.57111
 Alpha  occ. eigenvalues --   -0.53670  -0.51693  -0.48455
 Alpha virt. eigenvalues --    0.18004   0.23212   0.29248   0.33367   0.78783
 Alpha virt. eigenvalues --    0.82114   0.82958   0.85097   0.87655   0.88229
 Alpha virt. eigenvalues --    1.15950   1.19783   1.20539   1.31490   2.54629

 Mulliken charges:
               1
     1  O   -0.762914
     2  H    0.393161
     3  H    0.367968
     4  O   -0.758952
     5  H    0.379347
     6  H    0.381390
 Sum of Mulliken charges =   0.00000

 Dipole moment (field-independent basis, Debye):
    X=              0.7526    Y=             -3.9620    Z=              0.0000  Tot=              4.0328
 Quadrupole moment (field-independent basis, Debye-Ang):
   XX=             -9.7605   YY=             -7.8386   ZZ=            -14.9983
   XY=              7.1311   XZ=              0.0000   YZ=              0.0000

 684\MP4DQ=-33.8966222\MP4SDQ=-33.8986846\CCSD=-33.8997135\CCSD(T)=-33.
 Normal termination of Gaussian 16 at Sun Dec 10 07:05:07 2023.
