 Gaussian 16, Revision A.03,
 Gaussian 16:  ES64L-G16RevA.03 25-Dec-2016

 ------------------
 #p CCSD(T)/CEP-31G
 ------------------

 ------------
 H2O_H2O_3113
 ------------
 Symbolic Z-matrix:
 Charge =  0 Multiplicity = 1

                         Standard orientation:
 ---------------------------------------------------------------------
 Center     Atomic      Atomic             Coordinates (Angstroms)
 Number     Number       Type             X           Y           Z
 ---------------------------------------------------------------------
      1          8           0        0.052299    2.348980    0.000000
      2          1           0        0.050771    1.366380    0.000000
      3          1           0       -0.876698    2.669091    0.000000
      4          8           0        0.052299   -2.169090   -0.000000
      5          1           0        0.790050   -2.818112   -0.000000
      6          1           0       -0.800904   -2.656482   -0.000000
 ---------------------------------------------------------------------

 SCF Done:  E(RHF) =  -33.6549235925     A.U. after   11 cycles
 E2 =    -0.2283237827D+00 EUMP2 =    -0.33883247375246D+02
 CCSD(T)
 CCSD(T)= -0.33900162485D+02

 The electronic state is 1-A'.
 Alpha  occ. eigenvalues --   -1.36673  -1.34083  -0.72319  -0.69700  -0.56592
 Alpha  occ. eigenvalues --   -0.53898  -0.51289  -0.48698
 Alpha virt. eigenvalues --    0.18921   0.22156   0.29511   0.32289   0.79280
 Alpha virt. eigenvalues --    0.81788   0.82443   0.84785   0.85270   0.87987
 Alpha virt. eigenvalues --    1.16358   1.19164   1.20781   1.25096   2.56123

 Mulliken charges:
               1
     1  O   -0.753425
     2  H    0.387499
     3  H    0.365255
     4  O   -0.751451
     5  H    0.378350
     6  H    0.373772
 Sum of Mulliken charges =  -0.00000

 Dipole moment (field-independent basis, Debye):
    X=             -2.3864    Y=             -4.2896    Z=             -0.0000  Tot=              4.9087
 Quadrupole moment (field-independent basis, Debye-Ang):
   XX=             -9.5128   YY=             -6.3951   ZZ=            -14.9949
   XY=             -5.7566   XZ=             -0.0000   YZ=              0.0000

 7702\MP4DQ=-33.8945232\MP4SDQ=-33.8965575\CCSD=-33.8975986\CCSD(T)=-33
 Normal termination of Gaussian 16 at Sun Dec 10 06:29:05 2023.
