 Gaussian 16, Revision A.03,
 Gaussian 16:  ES64L-G16RevA.03 25-Dec-2016

 ------------------
 #p CCSD(T)/CEP-31G
 ------------------

 ------------
 H2O_H2O_1360
 ------------
 Symbolic Z-matrix:
 Charge =  0 Multiplicity = 1

                         Standard orientation:
 ---------------------------------------------------------------------
 Center     Atomic      Atomic             Coordinates (Angstroms)
 Number     Number       Type             X           Y           Z
 ---------------------------------------------------------------------
      1          8           0        0.063281    1.648531    0.000000
      2          1           0        0.061665    0.665931    0.000000
      3          1           0       -0.865687    1.968725   -0.000000
      4          8           0        0.063281   -1.473088    0.000000
      5          1           0        0.660168   -2.253621    0.000000
      6          1           0       -0.868641   -1.784581   -0.000000
 ---------------------------------------------------------------------

 SCF Done:  E(RHF) =  -33.6604033698     A.U. after   11 cycles
 E2 =    -0.2289593408D+00 EUMP2 =    -0.33889362710628D+02
 CCSD(T)
 CCSD(T)= -0.33906130772D+02

 The electronic state is 1-A'.
 Alpha  occ. eigenvalues --   -1.38224  -1.32268  -0.73907  -0.68224  -0.58647
 Alpha  occ. eigenvalues --   -0.52905  -0.51968  -0.46900
 Alpha virt. eigenvalues --    0.17655   0.25367   0.28312   0.40280   0.76681
 Alpha virt. eigenvalues --    0.79883   0.84725   0.85556   0.92080   1.01393
 Alpha virt. eigenvalues --    1.14941   1.19060   1.21290   1.35257   2.49886

 Mulliken charges:
               1
     1  O   -0.776651
     2  H    0.424311
     3  H    0.350871
     4  O   -0.785565
     5  H    0.404763
     6  H    0.382270
 Sum of Mulliken charges =   0.00000

 Dipole moment (field-independent basis, Debye):
    X=             -2.8054    Y=             -4.4824    Z=             -0.0000  Tot=              5.2880
 Quadrupole moment (field-independent basis, Debye-Ang):
   XX=             -9.7696   YY=             -8.3215   ZZ=            -15.0076
   XY=             -4.0554   XZ=              0.0000   YZ=             -0.0000

 31\MP4DQ=-33.9003206\MP4SDQ=-33.9024312\CCSD=-33.903425\CCSD(T)=-33.90
 Normal termination of Gaussian 16 at Sun Dec 10 06:44:17 2023.
