 Gaussian 16, Revision A.03,
 Gaussian 16:  ES64L-G16RevA.03 25-Dec-2016

 ------------------
 #p CCSD(T)/CEP-31G
 ------------------

 ------------
 H2O_H2O_1147
 ------------
 Symbolic Z-matrix:
 Charge =  0 Multiplicity = 1

                         Standard orientation:
 ---------------------------------------------------------------------
 Center     Atomic      Atomic             Coordinates (Angstroms)
 Number     Number       Type             X           Y           Z
 ---------------------------------------------------------------------
      1          8           0       -0.019987    1.554232    0.000000
      2          1           0       -0.015770    0.571640    0.000000
      3          1           0        0.908130    1.876885    0.000000
      4          8           0       -0.019987   -1.387188    0.000000
      5          1           0       -0.993623   -1.519624    0.000000
      6          1           0        0.421050   -2.265251    0.000000
 ---------------------------------------------------------------------

 SCF Done:  E(RHF) =  -33.6621520793     A.U. after   11 cycles
 E2 =    -0.2287422911D+00 EUMP2 =    -0.33890894370351D+02
 CCSD(T)
 CCSD(T)= -0.33907552917D+02

 The electronic state is 1-A'.
 Alpha  occ. eigenvalues --   -1.38595  -1.31844  -0.74407  -0.68131  -0.59146
 Alpha  occ. eigenvalues --   -0.53286  -0.51512  -0.46528
 Alpha virt. eigenvalues --    0.17683   0.26119   0.28125   0.42856   0.75938
 Alpha virt. eigenvalues --    0.78692   0.85602   0.86411   0.90981   1.07893
 Alpha virt. eigenvalues --    1.16519   1.17693   1.22695   1.36522   2.51891

 Mulliken charges:
               1
     1  O   -0.783776
     2  H    0.419145
     3  H    0.359391
     4  O   -0.802782
     5  H    0.394554
     6  H    0.413467
 Sum of Mulliken charges =   0.00000

 Dipole moment (field-independent basis, Debye):
    X=              0.8948    Y=             -4.3577    Z=              0.0000  Tot=              4.4487
 Quadrupole moment (field-independent basis, Debye-Ang):
   XX=             -9.6401   YY=             -8.6954   ZZ=            -15.0133
   XY=              5.1959   XZ=              0.0000   YZ=              0.0000

 108\MP4DQ=-33.901715\MP4SDQ=-33.9038423\CCSD=-33.9048158\CCSD(T)=-33.9
 Normal termination of Gaussian 16 at Sun Dec 10 06:40:05 2023.
