 Gaussian 16, Revision A.03,
 Gaussian 16:  ES64L-G16RevA.03 25-Dec-2016

 ------------------
 #p CCSD(T)/CEP-31G
 ------------------

 ------------
 H2O_H2O_1685
 ------------
 Symbolic Z-matrix:
 Charge =  0 Multiplicity = 1

                         Standard orientation:
 ---------------------------------------------------------------------
 Center     Atomic      Atomic             Coordinates (Angstroms)
 Number     Number       Type             X           Y           Z
 ---------------------------------------------------------------------
      1          8           0        0.063270    1.778174    0.000000
      2          1           0        0.061778    0.795574    0.000000
      3          1           0       -0.865738    2.098251    0.000000
      4          8           0        0.063270   -1.602715   -0.000000
      5          1           0        0.660256   -2.383173   -0.000000
      6          1           0       -0.868612   -1.914325   -0.000000
 ---------------------------------------------------------------------

 SCF Done:  E(RHF) =  -33.6589159069     A.U. after   11 cycles
 E2 =    -0.2287838029D+00 EUMP2 =    -0.33887699709791D+02
 CCSD(T)
 CCSD(T)= -0.33904565219D+02

 The electronic state is 1-A'.
 Alpha  occ. eigenvalues --   -1.37744  -1.32837  -0.73419  -0.68535  -0.58042
 Alpha  occ. eigenvalues --   -0.52613  -0.52405  -0.47473
 Alpha virt. eigenvalues --    0.17825   0.24563   0.28666   0.37151   0.77610
 Alpha virt. eigenvalues --    0.81630   0.83610   0.85628   0.90298   0.95784
 Alpha virt. eigenvalues --    1.15271   1.19675   1.20728   1.34772   2.50371

 Mulliken charges:
               1
     1  O   -0.771533
     2  H    0.414145
     3  H    0.355376
     4  O   -0.770906
     5  H    0.394516
     6  H    0.378402
 Sum of Mulliken charges =  -0.00000

 Dipole moment (field-independent basis, Debye):
    X=             -2.8346    Y=             -4.3913    Z=             -0.0000  Tot=              5.2267
 Quadrupole moment (field-independent basis, Debye-Ang):
   XX=             -9.7748   YY=             -7.9509   ZZ=            -15.0029
   XY=             -4.2308   XZ=             -0.0000   YZ=              0.0000

 0754\MP4DQ=-33.8988039\MP4SDQ=-33.9008978\CCSD=-33.901913\CCSD(T)=-33.
 Normal termination of Gaussian 16 at Sun Dec 10 06:50:42 2023.
