 Gaussian 16, Revision A.03,
 Gaussian 16:  ES64L-G16RevA.03 25-Dec-2016

 ------------------
 #p CCSD(T)/CEP-31G
 ------------------

 ------------
 H2O_H2O_1294
 ------------
 Symbolic Z-matrix:
 Charge =  0 Multiplicity = 1

                         Standard orientation:
 ---------------------------------------------------------------------
 Center     Atomic      Atomic             Coordinates (Angstroms)
 Number     Number       Type             X           Y           Z
 ---------------------------------------------------------------------
      1          8           0        0.030289    1.618675   -0.000000
      2          1           0        0.026810    0.636079   -0.000000
      3          1           0       -0.898069    1.940630   -0.000000
      4          8           0        0.030289   -1.443136    0.000000
      5          1           0        0.959621   -1.762276    0.000000
      6          1           0       -0.572992   -2.218738    0.000000
 ---------------------------------------------------------------------

 SCF Done:  E(RHF) =  -33.6625415298     A.U. after   11 cycles
 E2 =    -0.2288513341D+00 EUMP2 =    -0.33891392863889D+02
 CCSD(T)
 CCSD(T)= -0.33908073481D+02

 The electronic state is 1-A'.
 Alpha  occ. eigenvalues --   -1.38283  -1.31939  -0.73949  -0.68081  -0.58875
 Alpha  occ. eigenvalues --   -0.53000  -0.51675  -0.46623
 Alpha virt. eigenvalues --    0.17822   0.25779   0.28377   0.41323   0.76479
 Alpha virt. eigenvalues --    0.79208   0.85107   0.86354   0.91363   1.02248
 Alpha virt. eigenvalues --    1.15331   1.18473   1.22121   1.35148   2.50352

 Mulliken charges:
               1
     1  O   -0.785174
     2  H    0.425708
     3  H    0.357168
     4  O   -0.793778
     5  H    0.394578
     6  H    0.401498
 Sum of Mulliken charges =   0.00000

 Dipole moment (field-independent basis, Debye):
    X=             -1.3513    Y=             -4.5014    Z=              0.0000  Tot=              4.6999
 Quadrupole moment (field-independent basis, Debye-Ang):
   XX=             -9.4358   YY=             -8.3976   ZZ=            -15.0130
   XY=             -5.0155   XZ=              0.0000   YZ=             -0.0000

 636\MP4DQ=-33.9022729\MP4SDQ=-33.9043745\CCSD=-33.905359\CCSD(T)=-33.9
 Normal termination of Gaussian 16 at Sun Dec 10 06:42:59 2023.
