 Gaussian 16, Revision A.03,
 Gaussian 16:  ES64L-G16RevA.03 25-Dec-2016

 ------------------
 #p CCSD(T)/CEP-31G
 ------------------

 ------------
 H2O_H2O_2768
 ------------
 Symbolic Z-matrix:
 Charge =  0 Multiplicity = 1

                         Standard orientation:
 ---------------------------------------------------------------------
 Center     Atomic      Atomic             Coordinates (Angstroms)
 Number     Number       Type             X           Y           Z
 ---------------------------------------------------------------------
      1          8           0        0.033804    2.208085   -0.000000
      2          1           0        0.031435    1.225487   -0.000000
      3          1           0       -0.894918    2.528992   -0.000000
      4          8           0        0.033804   -2.030572    0.000000
      5          1           0        0.940701   -2.408786    0.000000
      6          1           0       -0.618081   -2.765794    0.000000
 ---------------------------------------------------------------------

 SCF Done:  E(RHF) =  -33.6560676381     A.U. after   11 cycles
 E2 =    -0.2283483411D+00 EUMP2 =    -0.33884415979182D+02
 CCSD(T)
 CCSD(T)= -0.33901310710D+02

 The electronic state is 1-A'.
 Alpha  occ. eigenvalues --   -1.36827  -1.33858  -0.72474  -0.69489  -0.56818
 Alpha  occ. eigenvalues --   -0.53704  -0.51459  -0.48492
 Alpha virt. eigenvalues --    0.18632   0.22609   0.29413   0.32734   0.79099
 Alpha virt. eigenvalues --    0.81992   0.83159   0.84520   0.85661   0.88062
 Alpha virt. eigenvalues --    1.16236   1.19558   1.20656   1.27192   2.55407

 Mulliken charges:
               1
     1  O   -0.758256
     2  H    0.390983
     3  H    0.366054
     4  O   -0.754764
     5  H    0.379013
     6  H    0.376970
 Sum of Mulliken charges =   0.00000

 Dipole moment (field-independent basis, Debye):
    X=             -1.5362    Y=             -4.2629    Z=              0.0000  Tot=              4.5313
 Quadrupole moment (field-independent basis, Debye-Ang):
   XX=             -9.4291   YY=             -6.8274   ZZ=            -14.9971
   XY=             -6.5706   XZ=              0.0000   YZ=             -0.0000

 05\MP4DQ=-33.8956607\MP4SDQ=-33.8977047\CCSD=-33.8987395\CCSD(T)=-33.9
 Normal termination of Gaussian 16 at Sun Dec 10 06:22:49 2023.
