 Gaussian 16, Revision A.03,
 Gaussian 16:  ES64L-G16RevA.03 25-Dec-2016

 ------------------
 #p CCSD(T)/CEP-31G
 ------------------

 ------------
 H2O_H2O_2035
 ------------
 Symbolic Z-matrix:
 Charge =  0 Multiplicity = 1

                         Standard orientation:
 ---------------------------------------------------------------------
 Center     Atomic      Atomic             Coordinates (Angstroms)
 Number     Number       Type             X           Y           Z
 ---------------------------------------------------------------------
      1          8           0        0.063260    1.917788    0.000000
      2          1           0        0.061881    0.935188    0.000000
      3          1           0       -0.865785    2.237758    0.000000
      4          8           0        0.063260   -1.742315   -0.000000
      5          1           0        0.660335   -2.522703   -0.000000
      6          1           0       -0.868587   -2.054032   -0.000000
 ---------------------------------------------------------------------

 SCF Done:  E(RHF) =  -33.6573892915     A.U. after   11 cycles
 E2 =    -0.2286124458D+00 EUMP2 =    -0.33886001737315D+02
 CCSD(T)
 CCSD(T)= -0.33902904838D+02

 The electronic state is 1-A'.
 Alpha  occ. eigenvalues --   -1.37375  -1.33299  -0.73042  -0.68919  -0.57514
 Alpha  occ. eigenvalues --   -0.53105  -0.52019  -0.47929
 Alpha virt. eigenvalues --    0.17992   0.23778   0.28941   0.34864   0.78323
 Alpha virt. eigenvalues --    0.82792   0.82985   0.85498   0.89117   0.90192
 Alpha virt. eigenvalues --    1.15644   1.20043   1.20321   1.33085   2.52132

 Mulliken charges:
               1
     1  O   -0.765082
     2  H    0.404044
     3  H    0.358823
     4  O   -0.761074
     5  H    0.387463
     6  H    0.375826
 Sum of Mulliken charges =   0.00000

 Dipole moment (field-independent basis, Debye):
    X=             -2.8557    Y=             -4.3201    Z=             -0.0000  Tot=              5.1787
 Quadrupole moment (field-independent basis, Debye-Ang):
   XX=             -9.7773   YY=             -7.5970   ZZ=            -14.9994
   XY=             -4.4213   XZ=             -0.0000   YZ=              0.0000

 4447\MP4DQ=-33.8971873\MP4SDQ=-33.8992656\CCSD=-33.9002905\CCSD(T)=-33
 Normal termination of Gaussian 16 at Sun Dec 10 06:57:17 2023.
