 Gaussian 16, Revision A.03,
 Gaussian 16:  ES64L-G16RevA.03 25-Dec-2016

 ------------------
 #p CCSD(T)/CEP-31G
 ------------------

 -----------
 H2O_H2O_512
 -----------
 Symbolic Z-matrix:
 Charge =  0 Multiplicity = 1

                         Standard orientation:
 ---------------------------------------------------------------------
 Center     Atomic      Atomic             Coordinates (Angstroms)
 Number     Number       Type             X           Y           Z
 ---------------------------------------------------------------------
      1          8           0        0.056097    1.311300   -0.000000
      2          1           0        0.053530    0.328701   -0.000000
      3          1           0       -0.872560    1.632394   -0.000000
      4          8           0        0.056097   -1.132526    0.000000
      5          1           0        0.749084   -1.829144    0.000000
      6          1           0       -0.827611   -1.562138    0.000000
 ---------------------------------------------------------------------

 SCF Done:  E(RHF) =  -33.6526275632     A.U. after   11 cycles
 E2 =    -0.2289495661D+00 EUMP2 =    -0.33881577129316D+02
 CCSD(T)
 CCSD(T)= -0.33897207869D+02

 The electronic state is 1-A'.
 Alpha  occ. eigenvalues --   -1.41189  -1.29343  -0.76455  -0.71572  -0.58149
 Alpha  occ. eigenvalues --   -0.55717  -0.48108  -0.43769
 Alpha virt. eigenvalues --    0.16945   0.26613   0.28299   0.54741   0.73940
 Alpha virt. eigenvalues --    0.74370   0.85423   0.89252   0.96011   1.02986
 Alpha virt. eigenvalues --    1.14140   1.17953   1.24237   1.36285   2.70492

 Mulliken charges:
               1
     1  O   -0.768987
     2  H    0.419504
     3  H    0.327678
     4  O   -0.834418
     5  H    0.443965
     6  H    0.412257
 Sum of Mulliken charges =  -0.00000

 Dipole moment (field-independent basis, Debye):
    X=             -2.3578    Y=             -5.0754    Z=              0.0000  Tot=              5.5963
 Quadrupole moment (field-independent basis, Debye-Ang):
   XX=             -9.5173   YY=             -9.7223   ZZ=            -15.0057
   XY=             -3.6718   XZ=              0.0000   YZ=             -0.0000

 32\MP4DQ=-33.8912041\MP4SDQ=-33.8934104\CCSD=-33.8941978\CCSD(T)=-33.8
 Normal termination of Gaussian 16 at Sun Dec 10 06:28:09 2023.
