 Gaussian 16, Revision A.03,
 Gaussian 16:  ES64L-G16RevA.03 25-Dec-2016

 ------------------
 #p CCSD(T)/CEP-31G
 ------------------

 ------------
 H2O_H2O_3298
 ------------
 Symbolic Z-matrix:
 Charge =  0 Multiplicity = 1

                         Standard orientation:
 ---------------------------------------------------------------------
 Center     Atomic      Atomic             Coordinates (Angstroms)
 Number     Number       Type             X           Y           Z
 ---------------------------------------------------------------------
      1          8           0       -0.016620    2.409828    0.000000
      2          1           0       -0.013838    1.427231    0.000000
      3          1           0        0.911967    2.731125    0.000000
      4          8           0       -0.016620   -2.246436    0.000000
      5          1           0       -0.996931   -2.313476    0.000000
      6          1           0        0.364722   -3.152021    0.000000
 ---------------------------------------------------------------------

 SCF Done:  E(RHF) =  -33.6547581020     A.U. after   11 cycles
 E2 =    -0.2282809013D+00 EUMP2 =    -0.33883039003309D+02
 CCSD(T)
 CCSD(T)= -0.33899960488D+02

 The electronic state is 1-A'.
 Alpha  occ. eigenvalues --   -1.36573  -1.34396  -0.72222  -0.70039  -0.56475
 Alpha  occ. eigenvalues --   -0.54226  -0.51186  -0.49017
 Alpha virt. eigenvalues --    0.18910   0.21877   0.29570   0.31962   0.79377
 Alpha virt. eigenvalues --    0.81476   0.82256   0.84346   0.85500   0.87630
 Alpha virt. eigenvalues --    1.16410   1.18857   1.20827   1.24540   2.56413

 Mulliken charges:
               1
     1  O   -0.752771
     2  H    0.383070
     3  H    0.369333
     4  O   -0.751631
     5  H    0.375551
     6  H    0.376448
 Sum of Mulliken charges =   0.00000

 Dipole moment (field-independent basis, Debye):
    X=              0.7584    Y=             -3.8757    Z=              0.0000  Tot=              3.9492
 Quadrupole moment (field-independent basis, Debye-Ang):
   XX=             -9.7686   YY=             -7.2963   ZZ=            -14.9943
   XY=              8.4380   XZ=              0.0000   YZ=              0.0000

 729\MP4DQ=-33.8943257\MP4SDQ=-33.8963549\CCSD=-33.8973992\CCSD(T)=-33.
 Normal termination of Gaussian 16 at Sun Dec 10 06:32:26 2023.
