 Gaussian 16, Revision A.03,
 Gaussian 16:  ES64L-G16RevA.03 25-Dec-2016

 ------------------
 #p CCSD(T)/CEP-31G
 ------------------

 ------------
 H2O_H2O_1170
 ------------
 Symbolic Z-matrix:
 Charge =  0 Multiplicity = 1

                         Standard orientation:
 ---------------------------------------------------------------------
 Center     Atomic      Atomic             Coordinates (Angstroms)
 Number     Number       Type             X           Y           Z
 ---------------------------------------------------------------------
      1          8           0        0.026773    1.567521   -0.000000
      2          1           0        0.022973    0.584927   -0.000000
      3          1           0       -0.901482    1.889779   -0.000000
      4          8           0        0.026773   -1.394367    0.000000
      5          1           0        0.974903   -1.652351    0.000000
      6          1           0       -0.524755   -2.207586    0.000000
 ---------------------------------------------------------------------

 SCF Done:  E(RHF) =  -33.6627843509     A.U. after   11 cycles
 E2 =    -0.2288374113D+00 EUMP2 =    -0.33891621762270D+02
 CCSD(T)
 CCSD(T)= -0.33908242205D+02

 The electronic state is 1-A'.
 Alpha  occ. eigenvalues --   -1.38538  -1.31706  -0.74242  -0.68075  -0.59112
 Alpha  occ. eigenvalues --   -0.53255  -0.51383  -0.46388
 Alpha virt. eigenvalues --    0.17740   0.26114   0.28188   0.42826   0.76049
 Alpha virt. eigenvalues --    0.78543   0.85620   0.86356   0.91735   1.04683
 Alpha virt. eigenvalues --    1.15761   1.17968   1.22558   1.35780   2.51301

 Mulliken charges:
               1
     1  O   -0.785812
     2  H    0.425743
     3  H    0.356722
     4  O   -0.801611
     5  H    0.396249
     6  H    0.408708
 Sum of Mulliken charges =   0.00000

 Dipole moment (field-independent basis, Debye):
    X=             -1.1947    Y=             -4.4940    Z=              0.0000  Tot=              4.6501
 Quadrupole moment (field-independent basis, Debye-Ang):
   XX=             -9.4858   YY=             -8.5868   ZZ=            -15.0147
   XY=             -4.9719   XZ=              0.0000   YZ=             -0.0000

 7177\MP4DQ=-33.902419\MP4SDQ=-33.9045316\CCSD=-33.9055029\CCSD(T)=-33.
 Normal termination of Gaussian 16 at Sun Dec 10 06:40:32 2023.
