 Gaussian 16, Revision A.03,
 Gaussian 16:  ES64L-G16RevA.03 25-Dec-2016

 ------------------
 #p CCSD(T)/CEP-31G
 ------------------

 ------------
 H2O_H2O_3568
 ------------
 Symbolic Z-matrix:
 Charge =  0 Multiplicity = 1

                         Standard orientation:
 ---------------------------------------------------------------------
 Center     Atomic      Atomic             Coordinates (Angstroms)
 Number     Number       Type             X           Y           Z
 ---------------------------------------------------------------------
      1          8           0        0.033776    2.527197   -0.000000
      2          1           0        0.031717    1.544598   -0.000000
      3          1           0       -0.895047    2.847811    0.000000
      4          8           0        0.033776   -2.349663   -0.000000
      5          1           0        0.940792   -2.727590   -0.000000
      6          1           0       -0.617877   -3.085091    0.000000
 ---------------------------------------------------------------------

 SCF Done:  E(RHF) =  -33.6544345390     A.U. after   11 cycles
 E2 =    -0.2282811514D+00 EUMP2 =    -0.33882715690395D+02
 CCSD(T)
 CCSD(T)= -0.33899641820D+02

 The electronic state is 1-A'.
 Alpha  occ. eigenvalues --   -1.36484  -1.34333  -0.72126  -0.69965  -0.56371
 Alpha  occ. eigenvalues --   -0.54149  -0.51094  -0.48946
 Alpha virt. eigenvalues --    0.19258   0.21745   0.29669   0.31965   0.79467
 Alpha virt. eigenvalues --    0.81548   0.82227   0.84536   0.85491   0.87678
 Alpha virt. eigenvalues --    1.16529   1.18772   1.20940   1.23734   2.56487

 Mulliken charges:
               1
     1  O   -0.751426
     2  H    0.383424
     3  H    0.367773
     4  O   -0.750182
     5  H    0.375988
     6  H    0.374422
 Sum of Mulliken charges =  -0.00000

 Dipole moment (field-independent basis, Debye):
    X=             -1.5445    Y=             -4.1987    Z=              0.0000  Tot=              4.4737
 Quadrupole moment (field-independent basis, Debye-Ang):
   XX=             -9.4340   YY=             -6.1427   ZZ=            -14.9939
   XY=             -7.4493   XZ=             -0.0000   YZ=              0.0000

 9\MP4DQ=-33.8940109\MP4SDQ=-33.8960369\CCSD=-33.8970835\CCSD(T)=-33.89
 Normal termination of Gaussian 16 at Sun Dec 10 06:37:13 2023.
