 Gaussian 16, Revision A.03,
 Gaussian 16:  ES64L-G16RevA.03 25-Dec-2016

 ------------------
 #p CCSD(T)/CEP-31G
 ------------------

 ------------
 H2O_H2O_1079
 ------------
 Symbolic Z-matrix:
 Charge =  0 Multiplicity = 1

                         Standard orientation:
 ---------------------------------------------------------------------
 Center     Atomic      Atomic             Coordinates (Angstroms)
 Number     Number       Type             X           Y           Z
 ---------------------------------------------------------------------
      1          8           0        0.082821   -1.527450    0.000000
      2          1           0        0.082227   -0.544849    0.000000
      3          1           0       -0.846480   -1.846679    0.000000
      4          8           0        0.082821    1.372969    0.000000
      5          1           0        0.336563    2.322242    0.000000
      6          1           0       -0.897438    1.305139    0.000000
 ---------------------------------------------------------------------

 SCF Done:  E(RHF) =  -33.6556054260     A.U. after   11 cycles
 E2 =    -0.2290532044D+00 EUMP2 =    -0.33884658630398D+02
 CCSD(T)
 CCSD(T)= -0.33901516513D+02

 The electronic state is 1-A'.
 Alpha  occ. eigenvalues --   -1.38958  -1.32611  -0.75046  -0.68542  -0.58947
 Alpha  occ. eigenvalues --   -0.53509  -0.52135  -0.47146
 Alpha virt. eigenvalues --    0.16945   0.25501   0.27686   0.42625   0.75563
 Alpha virt. eigenvalues --    0.79191   0.85046   0.85372   0.92042   1.11376
 Alpha virt. eigenvalues --    1.16131   1.20695   1.22337   1.37901   2.51327

 Mulliken charges:
               1
     1  O   -0.757602
     2  H    0.404274
     3  H    0.345019
     4  O   -0.787252
     5  H    0.421508
     6  H    0.374053
 Sum of Mulliken charges =  -0.00000

 Dipole moment (field-independent basis, Debye):
    X=             -3.6592    Y=              4.0912    Z=              0.0000  Tot=              5.4889
 Quadrupole moment (field-independent basis, Debye-Ang):
   XX=            -10.6874   YY=             -9.0124   ZZ=            -14.9986
   XY=              3.0200   XZ=              0.0000   YZ=              0.0000

 28\MP4DQ=-33.895587\MP4SDQ=-33.8977814\CCSD=-33.8987555\CCSD(T)=-33.90
 Normal termination of Gaussian 16 at Sun Dec 10 06:38:48 2023.
