 Gaussian 16, Revision A.03,
 Gaussian 16:  ES64L-G16RevA.03 25-Dec-2016

 ------------------
 #p CCSD(T)/CEP-31G
 ------------------

 ------------
 H2O_H2O_1209
 ------------
 Symbolic Z-matrix:
 Charge =  0 Multiplicity = 1

                         Standard orientation:
 ---------------------------------------------------------------------
 Center     Atomic      Atomic             Coordinates (Angstroms)
 Number     Number       Type             X           Y           Z
 ---------------------------------------------------------------------
      1          8           0        0.066804    1.587392   -0.000000
      2          1           0        0.065323    0.604791   -0.000000
      3          1           0       -0.862207    1.907459   -0.000000
      4          8           0        0.066804   -1.414355    0.000000
      5          1           0        0.611476   -2.232181    0.000000
      6          1           0       -0.883461   -1.664361    0.000000
 ---------------------------------------------------------------------

 SCF Done:  E(RHF) =  -33.6602864587     A.U. after   11 cycles
 E2 =    -0.2290217248D+00 EUMP2 =    -0.33889308183441D+02
 CCSD(T)
 CCSD(T)= -0.33906027293D+02

 The electronic state is 1-A'.
 Alpha  occ. eigenvalues --   -1.38533  -1.32054  -0.74254  -0.68222  -0.58896
 Alpha  occ. eigenvalues --   -0.53206  -0.51681  -0.46666
 Alpha virt. eigenvalues --    0.17490   0.25697   0.28061   0.41952   0.76163
 Alpha virt. eigenvalues --    0.79069   0.85296   0.85409   0.92846   1.04820
 Alpha virt. eigenvalues --    1.15062   1.18405   1.21638   1.35881   2.50592

 Mulliken charges:
               1
     1  O   -0.775559
     2  H    0.425906
     3  H    0.347809
     4  O   -0.793324
     5  H    0.412383
     6  H    0.382784
 Sum of Mulliken charges =   0.00000

 Dipole moment (field-independent basis, Debye):
    X=             -2.9448    Y=             -4.4817    Z=              0.0000  Tot=              5.3626
 Quadrupole moment (field-independent basis, Debye-Ang):
   XX=             -9.8930   YY=             -8.5445   ZZ=            -15.0084
   XY=             -3.8465   XZ=              0.0000   YZ=             -0.0000

 7\MP4DQ=-33.9001826\MP4SDQ=-33.9023109\CCSD=-33.9032905\CCSD(T)=-33.90
 Normal termination of Gaussian 16 at Sun Dec 10 06:41:18 2023.
