 Gaussian 16, Revision A.03,
 Gaussian 16:  ES64L-G16RevA.03 25-Dec-2016

 ------------------
 #p CCSD(T)/CEP-31G
 ------------------

 -----------
 H2O_H2O_297
 -----------
 Symbolic Z-matrix:
 Charge =  0 Multiplicity = 1

                         Standard orientation:
 ---------------------------------------------------------------------
 Center     Atomic      Atomic             Coordinates (Angstroms)
 Number     Number       Type             X           Y           Z
 ---------------------------------------------------------------------
      1          8           0       -0.020094    1.215165    0.000000
      2          1           0       -0.014613    0.232579    0.000000
      3          1           0        0.907607    1.539011    0.000000
      4          8           0       -0.020094   -1.048173    0.000000
      5          1           0       -0.993559   -1.181860    0.000000
      6          1           0        0.422071   -1.925667    0.000000
 ---------------------------------------------------------------------

 SCF Done:  E(RHF) =  -33.6332432374     A.U. after   11 cycles
 E2 =    -0.2276800711D+00 EUMP2 =    -0.33860923308452D+02
 CCSD(T)
 CCSD(T)= -0.33876149655D+02

 The electronic state is 1-A'.
 Alpha  occ. eigenvalues --   -1.43115  -1.28327  -0.79688  -0.72223  -0.57519
 Alpha  occ. eigenvalues --   -0.57016  -0.46392  -0.42676
 Alpha virt. eigenvalues --    0.17039   0.25622   0.29287   0.58886   0.73550
 Alpha virt. eigenvalues --    0.74895   0.88451   0.90424   0.93700   1.02492
 Alpha virt. eigenvalues --    1.14614   1.20820   1.28852   1.38823   2.84431

 Mulliken charges:
               1
     1  O   -0.754554
     2  H    0.347176
     3  H    0.335735
     4  O   -0.830541
     5  H    0.427270
     6  H    0.474914
 Sum of Mulliken charges =  -0.00000

 Dipole moment (field-independent basis, Debye):
    X=              0.8803    Y=             -5.0929    Z=              0.0000  Tot=              5.1684
 Quadrupole moment (field-independent basis, Debye-Ang):
   XX=             -9.5606   YY=            -10.0535   ZZ=            -14.9766
   XY=              3.9084   XZ=              0.0000   YZ=              0.0000

 84\MP4DQ=-33.8700868\MP4SDQ=-33.8723452\CCSD=-33.8730756\CCSD(T)=-33.8
 Normal termination of Gaussian 16 at Sun Dec 10 06:23:54 2023.
