 Gaussian 16, Revision A.03,
 Gaussian 16:  ES64L-G16RevA.03 25-Dec-2016

 ------------------
 #p CCSD(T)/CEP-31G
 ------------------

 -----------
 H2O_H2O_765
 -----------
 Symbolic Z-matrix:
 Charge =  0 Multiplicity = 1

                         Standard orientation:
 ---------------------------------------------------------------------
 Center     Atomic      Atomic             Coordinates (Angstroms)
 Number     Number       Type             X           Y           Z
 ---------------------------------------------------------------------
      1          8           0        0.044976    1.411840    0.000000
      2          1           0        0.041887    0.429244    0.000000
      3          1           0       -0.883511    1.733427    0.000000
      4          8           0        0.044976   -1.231558   -0.000000
      5          1           0        0.860260   -1.780027   -0.000000
      6          1           0       -0.738253   -1.824903   -0.000000
 ---------------------------------------------------------------------

 SCF Done:  E(RHF) =  -33.6613708605     A.U. after   11 cycles
 E2 =    -0.2290820773D+00 EUMP2 =    -0.33890452937823D+02
 CCSD(T)
 CCSD(T)= -0.33906537288D+02

 The electronic state is 1-A'.
 Alpha  occ. eigenvalues --   -1.39804  -1.30264  -0.75225  -0.69294  -0.59146
 Alpha  occ. eigenvalues --   -0.54523  -0.49521  -0.44843
 Alpha virt. eigenvalues --    0.17375   0.27346   0.27516   0.49847   0.74684
 Alpha virt. eigenvalues --    0.75518   0.85430   0.87862   0.97837   0.98293
 Alpha virt. eigenvalues --    1.14941   1.18460   1.23500   1.36820   2.59027

 Mulliken charges:
               1
     1  O   -0.783083
     2  H    0.435068
     3  H    0.340759
     4  O   -0.824930
     5  H    0.419905
     6  H    0.412282
 Sum of Mulliken charges =   0.00000

 Dipole moment (field-independent basis, Debye):
    X=             -1.9455    Y=             -4.8845    Z=             -0.0000  Tot=              5.2577
 Quadrupole moment (field-independent basis, Debye-Ang):
   XX=             -9.3611   YY=             -9.2215   ZZ=            -15.0190
   XY=             -4.0604   XZ=             -0.0000   YZ=              0.0000

 8\MP4DQ=-33.9006341\MP4SDQ=-33.9027749\CCSD=-33.9036472\CCSD(T)=-33.90
 Normal termination of Gaussian 16 at Sun Dec 10 06:32:54 2023.
