 Gaussian 16, Revision A.03,
 Gaussian 16:  ES64L-G16RevA.03 25-Dec-2016

 ------------------
 #p CCSD(T)/CEP-31G
 ------------------

 ------------
 H2O_H2O_1022
 ------------
 Symbolic Z-matrix:
 Charge =  0 Multiplicity = 1

                         Standard orientation:
 ---------------------------------------------------------------------
 Center     Atomic      Atomic             Coordinates (Angstroms)
 Number     Number       Type             X           Y           Z
 ---------------------------------------------------------------------
      1          8           0       -0.019999    1.504370    0.000000
      2          1           0       -0.015634    0.521778    0.000000
      3          1           0        0.908069    1.827163    0.000000
      4          8           0       -0.019999   -1.337332    0.000000
      5          1           0       -0.993615   -1.469914    0.000000
      6          1           0        0.421169   -2.215329    0.000000
 ---------------------------------------------------------------------

 SCF Done:  E(RHF) =  -33.6620660450     A.U. after   11 cycles
 E2 =    -0.2287176643D+00 EUMP2 =    -0.33890783709344D+02
 CCSD(T)
 CCSD(T)= -0.33907342942D+02

 The electronic state is 1-A'.
 Alpha  occ. eigenvalues --   -1.38917  -1.31502  -0.74776  -0.68136  -0.59371
 Alpha  occ. eigenvalues --   -0.53601  -0.51080  -0.46176
 Alpha virt. eigenvalues --    0.17628   0.26474   0.27917   0.44691   0.75500
 Alpha virt. eigenvalues --    0.78019   0.86223   0.86407   0.91666   1.08069
 Alpha virt. eigenvalues --    1.16354   1.18896   1.23284   1.36656   2.53427

 Mulliken charges:
               1
     1  O   -0.783177
     2  H    0.418580
     3  H    0.357571
     4  O   -0.811038
     5  H    0.397607
     6  H    0.420457
 Sum of Mulliken charges =   0.00000

 Dipole moment (field-independent basis, Debye):
    X=              0.8952    Y=             -4.4192    Z=              0.0000  Tot=              4.5089
 Quadrupole moment (field-independent basis, Debye-Ang):
   XX=             -9.6349   YY=             -8.8409   ZZ=            -15.0150
   XY=              5.0103   XZ=              0.0000   YZ=              0.0000

 87\MP4DQ=-33.9014829\MP4SDQ=-33.9036199\CCSD=-33.9045751\CCSD(T)=-33.9
 Normal termination of Gaussian 16 at Sun Dec 10 06:37:44 2023.
