 Gaussian 16, Revision A.03,
 Gaussian 16:  ES64L-G16RevA.03 25-Dec-2016

 ------------------
 #p CCSD(T)/CEP-31G
 ------------------

 ------------
 H2O_H2O_2427
 ------------
 Symbolic Z-matrix:
 Charge =  0 Multiplicity = 1

                         Standard orientation:
 ---------------------------------------------------------------------
 Center     Atomic      Atomic             Coordinates (Angstroms)
 Number     Number       Type             X           Y           Z
 ---------------------------------------------------------------------
      1          8           0        0.088233   -2.060411    0.000000
      2          1           0        0.088032   -1.077810    0.000000
      3          1           0       -0.841194   -2.379268    0.000000
      4          8           0        0.088233    1.916096    0.000000
      5          1           0        0.216290    2.890317    0.000000
      6          1           0       -0.874863    1.721281    0.000000
 ---------------------------------------------------------------------

 SCF Done:  E(RHF) =  -33.6534299811     A.U. after   11 cycles
 E2 =    -0.2285667475D+00 EUMP2 =    -0.33881996728551D+02
 CCSD(T)
 CCSD(T)= -0.33898990795D+02

 The electronic state is 1-A'.
 Alpha  occ. eigenvalues --   -1.37121  -1.34464  -0.72825  -0.70033  -0.56972
 Alpha  occ. eigenvalues --   -0.54199  -0.51703  -0.49039
 Alpha virt. eigenvalues --    0.17183   0.22818   0.29012   0.32545   0.78801
 Alpha virt. eigenvalues --    0.81590   0.82903   0.84519   0.87484   0.88186
 Alpha virt. eigenvalues --    1.15537   1.18969   1.20475   1.31451   2.55546

 Mulliken charges:
               1
     1  O   -0.748881
     2  H    0.386329
     3  H    0.361273
     4  O   -0.748335
     5  H    0.382625
     6  H    0.366989
 Sum of Mulliken charges =  -0.00000

 Dipole moment (field-independent basis, Debye):
    X=             -4.0177    Y=              3.5009    Z=              0.0000  Tot=              5.3290
 Quadrupole moment (field-independent basis, Debye-Ang):
   XX=            -10.9867   YY=             -8.8775   ZZ=            -14.9900
   XY=              2.7940   XZ=              0.0000   YZ=              0.0000

 8\MP4DQ=-33.893293\MP4SDQ=-33.8953604\CCSD=-33.8963949\CCSD(T)=-33.898
 Normal termination of Gaussian 16 at Sun Dec 10 07:06:07 2023.
