 Gaussian 16, Revision A.03,
 Gaussian 16:  ES64L-G16RevA.03 25-Dec-2016

 ------------------
 #p CCSD(T)/CEP-31G
 ------------------

 -----------
 H2O_H2O_654
 -----------
 Symbolic Z-matrix:
 Charge =  0 Multiplicity = 1

                         Standard orientation:
 ---------------------------------------------------------------------
 Center     Atomic      Atomic             Coordinates (Angstroms)
 Number     Number       Type             X           Y           Z
 ---------------------------------------------------------------------
      1          8           0        0.082827   -1.357921    0.000000
      2          1           0        0.082154   -0.375320    0.000000
      3          1           0       -0.846448   -1.677223    0.000000
      4          8           0        0.082827    1.203452    0.000000
      5          1           0        0.336494    2.152747    0.000000
      6          1           0       -0.897425    1.135544    0.000000
 ---------------------------------------------------------------------

 SCF Done:  E(RHF) =  -33.6483213700     A.U. after   11 cycles
 E2 =    -0.2288995543D+00 EUMP2 =    -0.33877220924326D+02
 CCSD(T)
 CCSD(T)= -0.33893661545D+02

 The electronic state is 1-A'.
 Alpha  occ. eigenvalues --   -1.40625  -1.31403  -0.77251  -0.68936  -0.59134
 Alpha  occ. eigenvalues --   -0.54944  -0.50545  -0.45822
 Alpha virt. eigenvalues --    0.16650   0.25596   0.27776   0.49823   0.74103
 Alpha virt. eigenvalues --    0.77171   0.85391   0.87591   0.94846   1.10004
 Alpha virt. eigenvalues --    1.15017   1.23190   1.29701   1.36759   2.62419

 Mulliken charges:
               1
     1  O   -0.736983
     2  H    0.379947
     3  H    0.332762
     4  O   -0.808831
     5  H    0.452438
     6  H    0.380667
 Sum of Mulliken charges =   0.00000

 Dipole moment (field-independent basis, Debye):
    X=             -3.5694    Y=              4.3707    Z=              0.0000  Tot=              5.6430
 Quadrupole moment (field-independent basis, Debye-Ang):
   XX=            -10.6947   YY=             -9.4387   ZZ=            -14.9921
   XY=              2.9194   XZ=              0.0000   YZ=              0.0000

 49\MP4DQ=-33.8875937\MP4SDQ=-33.889876\CCSD=-33.8907635\CCSD(T)=-33.89
 Normal termination of Gaussian 16 at Sun Dec 10 06:30:49 2023.
