 Gaussian 16, Revision A.03,
 Gaussian 16:  ES64L-G16RevA.03 25-Dec-2016

 ------------------
 #p CCSD(T)/CEP-31G
 ------------------

 ------------
 H2O_H2O_1311
 ------------
 Symbolic Z-matrix:
 Charge =  0 Multiplicity = 1

                         Standard orientation:
 ---------------------------------------------------------------------
 Center     Atomic      Atomic             Coordinates (Angstroms)
 Number     Number       Type             X           Y           Z
 ---------------------------------------------------------------------
      1          8           0        0.059694    1.629637    0.000000
      2          1           0        0.057859    0.647037    0.000000
      3          1           0       -0.869203    1.950038   -0.000000
      4          8           0        0.059694   -1.452263    0.000000
      5          1           0        0.706188   -2.192230    0.000000
      6          1           0       -0.849943   -1.823836   -0.000000
 ---------------------------------------------------------------------

 SCF Done:  E(RHF) =  -33.6610896493     A.U. after   11 cycles
 E2 =    -0.2289883293D+00 EUMP2 =    -0.33890077978683D+02
 CCSD(T)
 CCSD(T)= -0.33906797776D+02

 The electronic state is 1-A'.
 Alpha  occ. eigenvalues --   -1.38303  -1.32077  -0.73962  -0.68143  -0.58768
 Alpha  occ. eigenvalues --   -0.52998  -0.51767  -0.46715
 Alpha virt. eigenvalues --    0.17685   0.25553   0.28287   0.40988   0.76532
 Alpha virt. eigenvalues --    0.79499   0.84983   0.85603   0.92607   1.00960
 Alpha virt. eigenvalues --    1.14927   1.19227   1.21367   1.34893   2.49962

 Mulliken charges:
               1
     1  O   -0.779039
     2  H    0.427353
     3  H    0.350493
     4  O   -0.789010
     5  H    0.405351
     6  H    0.384852
 Sum of Mulliken charges =  -0.00000

 Dipole moment (field-independent basis, Debye):
    X=             -2.6401    Y=             -4.5438    Z=             -0.0000  Tot=              5.2551
 Quadrupole moment (field-independent basis, Debye-Ang):
   XX=             -9.6579   YY=             -8.3539   ZZ=            -15.0096
   XY=             -4.1541   XZ=              0.0000   YZ=             -0.0000

 823\MP4DQ=-33.9009859\MP4SDQ=-33.9030939\CCSD=-33.9040807\CCSD(T)=-33.
 Normal termination of Gaussian 16 at Sun Dec 10 06:43:20 2023.
