 Gaussian 16, Revision A.03,
 Gaussian 16:  ES64L-G16RevA.03 25-Dec-2016

 ------------------
 #p CCSD(T)/CEP-31G
 ------------------

 ------------
 H2O_H2O_2643
 ------------
 Symbolic Z-matrix:
 Charge =  0 Multiplicity = 1

                         Standard orientation:
 ---------------------------------------------------------------------
 Center     Atomic      Atomic             Coordinates (Angstroms)
 Number     Number       Type             X           Y           Z
 ---------------------------------------------------------------------
      1          8           0        0.033809    2.158224   -0.000000
      2          1           0        0.031383    1.175625   -0.000000
      3          1           0       -0.894894    2.479185   -0.000000
      4          8           0        0.033809   -1.980715    0.000000
      5          1           0        0.940684   -2.358981    0.000000
      6          1           0       -0.618119   -2.715898    0.000000
 ---------------------------------------------------------------------

 SCF Done:  E(RHF) =  -33.6564184505     A.U. after   11 cycles
 E2 =    -0.2283712195D+00 EUMP2 =    -0.33884789669965D+02
 CCSD(T)
 CCSD(T)= -0.33901680597D+02

 The electronic state is 1-A'.
 Alpha  occ. eigenvalues --   -1.36897  -1.33760  -0.72545  -0.69392  -0.56914
 Alpha  occ. eigenvalues --   -0.53611  -0.51534  -0.48399
 Alpha virt. eigenvalues --    0.18531   0.22796   0.29364   0.32959   0.79013
 Alpha virt. eigenvalues --    0.82094   0.83511   0.84563   0.85799   0.88136
 Alpha virt. eigenvalues --    1.16173   1.19694   1.20604   1.28102   2.54993

 Mulliken charges:
               1
     1  O   -0.759842
     2  H    0.392724
     3  H    0.365663
     4  O   -0.755776
     5  H    0.379663
     6  H    0.377568
 Sum of Mulliken charges =   0.00000

 Dipole moment (field-independent basis, Debye):
    X=             -1.5345    Y=             -4.2769    Z=              0.0000  Tot=              4.5438
 Quadrupole moment (field-independent basis, Debye-Ang):
   XX=             -9.4280   YY=             -6.9382   ZZ=            -14.9977
   XY=             -6.4329   XZ=              0.0000   YZ=             -0.0000

 2681\MP4DQ=-33.8960238\MP4SDQ=-33.8980725\CCSD=-33.8991052\CCSD(T)=-33
 Normal termination of Gaussian 16 at Sun Dec 10 06:20:35 2023.
