 Gaussian 16, Revision A.03,
 Gaussian 16:  ES64L-G16RevA.03 25-Dec-2016

 ------------------
 #p CCSD(T)/CEP-31G
 ------------------

 ------------
 H2O_H2O_1033
 ------------
 Symbolic Z-matrix:
 Charge =  0 Multiplicity = 1

                         Standard orientation:
 ---------------------------------------------------------------------
 Center     Atomic      Atomic             Coordinates (Angstroms)
 Number     Number       Type             X           Y           Z
 ---------------------------------------------------------------------
      1          8           0        0.070241    1.516033    0.000000
      2          1           0        0.068892    0.533432    0.000000
      3          1           0       -0.858813    1.835976   -0.000000
      4          8           0        0.070241   -1.345859    0.000000
      5          1           0        0.560374   -2.197491    0.000000
      6          1           0       -0.894315   -1.533308   -0.000000
 ---------------------------------------------------------------------

 SCF Done:  E(RHF) =  -33.6594982892     A.U. after   11 cycles
 E2 =    -0.2290553341D+00 EUMP2 =    -0.33888553623330D+02
 CCSD(T)
 CCSD(T)= -0.33905185018D+02

 The electronic state is 1-A'.
 Alpha  occ. eigenvalues --   -1.38983  -1.31758  -0.74780  -0.68332  -0.59127
 Alpha  occ. eigenvalues --   -0.53632  -0.51273  -0.46338
 Alpha virt. eigenvalues --    0.17289   0.26070   0.27744   0.44221   0.75524
 Alpha virt. eigenvalues --    0.78155   0.85269   0.86046   0.93760   1.07772
 Alpha virt. eigenvalues --    1.16267   1.17723   1.22064   1.36414   2.52516

 Mulliken charges:
               1
     1  O   -0.771826
     2  H    0.424648
     3  H    0.343735
     4  O   -0.803280
     5  H    0.422954
     6  H    0.383769
 Sum of Mulliken charges =   0.00000

 Dipole moment (field-independent basis, Debye):
    X=             -3.0722    Y=             -4.4944    Z=             -0.0000  Tot=              5.4441
 Quadrupole moment (field-independent basis, Debye-Ang):
   XX=            -10.0315   YY=             -8.8007   ZZ=            -15.0087
   XY=             -3.6365   XZ=              0.0000   YZ=             -0.0000

 6132\MP4DQ=-33.8992939\MP4SDQ=-33.9014489\CCSD=-33.9024061\CCSD(T)=-33
 Normal termination of Gaussian 16 at Sun Dec 10 06:37:56 2023.
