 Gaussian 16, Revision A.03,
 Gaussian 16:  ES64L-G16RevA.03 25-Dec-2016

 ------------------
 #p CCSD(T)/CEP-31G
 ------------------

 ------------
 H2O_H2O_1543
 ------------
 Symbolic Z-matrix:
 Charge =  0 Multiplicity = 1

                         Standard orientation:
 ---------------------------------------------------------------------
 Center     Atomic      Atomic             Coordinates (Angstroms)
 Number     Number       Type             X           Y           Z
 ---------------------------------------------------------------------
      1          8           0        0.033868    1.719438   -0.000000
      2          1           0        0.030789    0.736841   -0.000000
      3          1           0       -0.894622    2.041015   -0.000000
      4          8           0        0.033868   -1.541974    0.000000
      5          1           0        0.940491   -1.920842    0.000000
      6          1           0       -0.618548   -2.276725    0.000000
 ---------------------------------------------------------------------

 SCF Done:  E(RHF) =  -33.6613114449     A.U. after   11 cycles
 E2 =    -0.2287741634D+00 EUMP2 =    -0.33890085608347D+02
 CCSD(T)
 CCSD(T)= -0.33906863306D+02

 The electronic state is 1-A'.
 Alpha  occ. eigenvalues --   -1.37878  -1.32403  -0.73530  -0.68254  -0.58376
 Alpha  occ. eigenvalues --   -0.52580  -0.52214  -0.47084
 Alpha virt. eigenvalues --    0.17956   0.25120   0.28668   0.38680   0.77251
 Alpha virt. eigenvalues --    0.80629   0.84179   0.86390   0.90198   0.97850
 Alpha virt. eigenvalues --    1.15327   1.19264   1.21420   1.34431   2.49975

 Mulliken charges:
               1
     1  O   -0.780947
     2  H    0.419900
     3  H    0.359022
     4  O   -0.780559
     5  H    0.390693
     6  H    0.391891
 Sum of Mulliken charges =   0.00000

 Dipole moment (field-independent basis, Debye):
    X=             -1.5150    Y=             -4.4692    Z=              0.0000  Tot=              4.7190
 Quadrupole moment (field-independent basis, Debye-Ang):
   XX=             -9.4073   YY=             -8.0568   ZZ=            -15.0088
   XY=             -5.1934   XZ=              0.0000   YZ=             -0.0000

 3738\MP4DQ=-33.9010994\MP4SDQ=-33.9031885\CCSD=-33.9041933\CCSD(T)=-33
 Normal termination of Gaussian 16 at Sun Dec 10 06:47:57 2023.
