 Gaussian 16, Revision A.03,
 Gaussian 16:  ES64L-G16RevA.03 25-Dec-2016

 ------------------
 #p CCSD(T)/CEP-31G
 ------------------

 ---------
 H2O_H2O_1
 ---------
 Symbolic Z-matrix:
 Charge =  0 Multiplicity = 1

                         Standard orientation:
 ---------------------------------------------------------------------
 Center     Atomic      Atomic             Coordinates (Angstroms)
 Number     Number       Type             X           Y           Z
 ---------------------------------------------------------------------
      1          8           0        0.090692   -1.090078    0.000000
      2          1           0        0.090504   -0.107477    0.000000
      3          1           0       -0.838740   -1.408923    0.000000
      4          8           0        0.090692    0.951389    0.000000
      5          1           0        0.154769    1.931899    0.000000
      6          1           0       -0.857604    0.694015    0.000000
 ---------------------------------------------------------------------

 SCF Done:  E(RHF) =  -33.5428266313     A.U. after   11 cycles
 E2 =    -0.2282088497D+00 EUMP2 =    -0.33771035480997D+02
 CCSD(T)
 CCSD(T)= -0.33786175736D+02

 The electronic state is 1-A'.
 Alpha  occ. eigenvalues --   -1.49176  -1.28835  -0.87226  -0.72493  -0.59779
 Alpha  occ. eigenvalues --   -0.55494  -0.46162  -0.42778
 Alpha virt. eigenvalues --    0.15810   0.22093   0.30496   0.60608   0.72867
 Alpha virt. eigenvalues --    0.75636   0.90647   0.91126   0.96532   1.08021
 Alpha virt. eigenvalues --    1.10730   1.20681   1.28452   1.53797   3.04069

 Mulliken charges:
               1
     1  O   -0.643997
     2  H    0.120425
     3  H    0.296196
     4  O   -0.659129
     5  H    0.500991
     6  H    0.385512
 Sum of Mulliken charges =  -0.00000

 Dipole moment (field-independent basis, Debye):
    X=             -3.7063    Y=              4.8798    Z=              0.0000  Tot=              6.1277
 Quadrupole moment (field-independent basis, Debye-Ang):
   XX=            -11.1378   YY=            -10.7555   ZZ=            -14.8437
   XY=              2.1889   XZ=              0.0000   YZ=              0.0000

 5\MP4DQ=-33.7795366\MP4SDQ=-33.7822483\CCSD=-33.7828084\CCSD(T)=-33.78
 Normal termination of Gaussian 16 at Sun Dec 10 06:18:02 2023.
