 Gaussian 16, Revision A.03,
 Gaussian 16:  ES64L-G16RevA.03 25-Dec-2016

 ------------------
 #p CCSD(T)/CEP-31G
 ------------------

 ------------
 H2O_H2O_2040
 ------------
 Symbolic Z-matrix:
 Charge =  0 Multiplicity = 1

                         Standard orientation:
 ---------------------------------------------------------------------
 Center     Atomic      Atomic             Coordinates (Angstroms)
 Number     Number       Type             X           Y           Z
 ---------------------------------------------------------------------
      1          8           0        0.044897    1.920446    0.000000
      2          1           0        0.042667    0.937847    0.000000
      3          1           0       -0.883870    2.241222   -0.000000
      4          8           0        0.044897   -1.740085    0.000000
      5          1           0        0.860659   -2.287843    0.000000
      6          1           0       -0.737814   -2.334113   -0.000000
 ---------------------------------------------------------------------

 SCF Done:  E(RHF) =  -33.6584658393     A.U. after   11 cycles
 E2 =    -0.2285696252D+00 EUMP2 =    -0.33887035464518D+02
 CCSD(T)
 CCSD(T)= -0.33903901779D+02

 The electronic state is 1-A'.
 Alpha  occ. eigenvalues --   -1.37342  -1.33113  -0.72989  -0.68765  -0.57555
 Alpha  occ. eigenvalues --   -0.52959  -0.52005  -0.47768
 Alpha virt. eigenvalues --    0.18191   0.23918   0.29036   0.35078   0.78342
 Alpha virt. eigenvalues --    0.82921   0.83002   0.86060   0.88406   0.89841
 Alpha virt. eigenvalues --    1.15765   1.20117   1.20466   1.32249   2.51891

 Mulliken charges:
               1
     1  O   -0.769220
     2  H    0.405907
     3  H    0.361031
     4  O   -0.763319
     5  H    0.385453
     6  H    0.380148
 Sum of Mulliken charges =  -0.00000

 Dipole moment (field-independent basis, Debye):
    X=             -2.0237    Y=             -4.4346    Z=             -0.0000  Tot=              4.8745
 Quadrupole moment (field-independent basis, Debye-Ang):
   XX=             -9.4161   YY=             -7.4119   ZZ=            -15.0019
   XY=             -5.2704   XZ=              0.0000   YZ=             -0.0000

 4495\MP4DQ=-33.8981957\MP4SDQ=-33.9002672\CCSD=-33.9012906\CCSD(T)=-33
 Normal termination of Gaussian 16 at Sun Dec 10 06:57:23 2023.
