 Gaussian 16, Revision A.03,
 Gaussian 16:  ES64L-G16RevA.03 25-Dec-2016

 ------------------
 #p CCSD(T)/CEP-31G
 ------------------

 ------------
 H2O_H2O_4491
 ------------
 Symbolic Z-matrix:
 Charge =  0 Multiplicity = 1

                         Standard orientation:
 ---------------------------------------------------------------------
 Center     Atomic      Atomic             Coordinates (Angstroms)
 Number     Number       Type             X           Y           Z
 ---------------------------------------------------------------------
      1          8           0        0.041106    2.897472   -0.000000
      2          1           0        0.039540    1.914871   -0.000000
      3          1           0       -0.887878    3.217619   -0.000000
      4          8           0        0.041106   -2.717516    0.000000
      5          1           0        0.891280   -3.210172    0.000000
      6          1           0       -0.700642   -3.361965    0.000000
 ---------------------------------------------------------------------

 SCF Done:  E(RHF) =  -33.6533842151     A.U. after   11 cycles
 E2 =    -0.2282966106D+00 EUMP2 =    -0.33881680825754D+02
 CCSD(T)
 CCSD(T)= -0.33898636027D+02

 The electronic state is 1-A'.
 Alpha  occ. eigenvalues --   -1.36255  -1.34654  -0.71894  -0.70285  -0.56082
 Alpha  occ. eigenvalues --   -0.54441  -0.50851  -0.49252
 Alpha virt. eigenvalues --    0.19590   0.21254   0.29852   0.31535   0.79702
 Alpha virt. eigenvalues --    0.81265   0.82547   0.84255   0.85744   0.87365
 Alpha virt. eigenvalues --    1.16715   1.18319   1.21158   1.22827   2.56682

 Mulliken charges:
               1
     1  O   -0.747342
     2  H    0.378906
     3  H    0.368423
     4  O   -0.746756
     5  H    0.374282
     6  H    0.372486
 Sum of Mulliken charges =  -0.00000

 Dipole moment (field-independent basis, Debye):
    X=             -1.8876    Y=             -4.2205    Z=              0.0000  Tot=              4.6234
 Quadrupole moment (field-independent basis, Debye-Ang):
   XX=             -9.4133   YY=             -5.1523   ZZ=            -14.9918
   XY=             -7.7979   XZ=              0.0000   YZ=             -0.0000

 2555\MP4DQ=-33.8930032\MP4SDQ=-33.8950269\CCSD=-33.8960789\CCSD(T)=-33
 Normal termination of Gaussian 16 at Sun Dec 10 06:53:50 2023.
