 Gaussian 16, Revision A.03,
 Gaussian 16:  ES64L-G16RevA.03 25-Dec-2016

 ------------------
 #p CCSD(T)/CEP-31G
 ------------------

 ------------
 H2O_H2O_1794
 ------------
 Symbolic Z-matrix:
 Charge =  0 Multiplicity = 1

                         Standard orientation:
 ---------------------------------------------------------------------
 Center     Atomic      Atomic             Coordinates (Angstroms)
 Number     Number       Type             X           Y           Z
 ---------------------------------------------------------------------
      1          8           0        0.030254    1.818124    0.000000
      2          1           0        0.027175    0.835528    0.000000
      3          1           0       -0.898236    2.139701   -0.000000
      4          8           0        0.030254   -1.642562    0.000000
      5          1           0        0.959714   -1.961323    0.000000
      6          1           0       -0.572711   -2.418409   -0.000000
 ---------------------------------------------------------------------

 SCF Done:  E(RHF) =  -33.6598735258     A.U. after   11 cycles
 E2 =    -0.2286411606D+00 EUMP2 =    -0.33888514686391D+02
 CCSD(T)
 CCSD(T)= -0.33905358161D+02

 The electronic state is 1-A'.
 Alpha  occ. eigenvalues --   -1.37564  -1.32862  -0.73224  -0.68583  -0.57909
 Alpha  occ. eigenvalues --   -0.52714  -0.52244  -0.47538
 Alpha virt. eigenvalues --    0.18031   0.24490   0.28898   0.36515   0.77875
 Alpha virt. eigenvalues --    0.81801   0.83390   0.86401   0.88808   0.94364
 Alpha virt. eigenvalues --    1.15572   1.19639   1.20977   1.34249   2.50991

 Mulliken charges:
               1
     1  O   -0.775473
     2  H    0.410956
     3  H    0.362132
     4  O   -0.771161
     5  H    0.386244
     6  H    0.387303
 Sum of Mulliken charges =  -0.00000

 Dipole moment (field-independent basis, Debye):
    X=             -1.3588    Y=             -4.3621    Z=             -0.0000  Tot=              4.5689
 Quadrupole moment (field-independent basis, Debye-Ang):
   XX=             -9.4524   YY=             -7.8250   ZZ=            -15.0049
   XY=             -5.6351   XZ=              0.0000   YZ=             -0.0000

 8835\MP4DQ=-33.8996232\MP4SDQ=-33.9017062\CCSD=-33.9027232\CCSD(T)=-33
 Normal termination of Gaussian 16 at Sun Dec 10 06:52:45 2023.
