 Gaussian 16, Revision A.03,
 Gaussian 16:  ES64L-G16RevA.03 25-Dec-2016

 ------------------
 #p CCSD(T)/CEP-31G
 ------------------

 ------------
 H2O_H2O_2785
 ------------
 Symbolic Z-matrix:
 Charge =  0 Multiplicity = 1

                         Standard orientation:
 ---------------------------------------------------------------------
 Center     Atomic      Atomic             Coordinates (Angstroms)
 Number     Number       Type             X           Y           Z
 ---------------------------------------------------------------------
      1          8           0        0.063242    2.216958    0.000000
      2          1           0        0.062058    1.234358    0.000000
      3          1           0       -0.865866    2.536745    0.000000
      4          8           0        0.063242   -2.041460   -0.000000
      5          1           0        0.660471   -2.821731   -0.000000
      6          1           0       -0.868543   -2.353361   -0.000000
 ---------------------------------------------------------------------

 SCF Done:  E(RHF) =  -33.6551575424     A.U. after   11 cycles
 E2 =    -0.2283865823D+00 EUMP2 =    -0.33883544124738D+02
 CCSD(T)
 CCSD(T)= -0.33900462476D+02

 The electronic state is 1-A'.
 Alpha  occ. eigenvalues --   -1.36848  -1.33971  -0.72503  -0.69577  -0.56787
 Alpha  occ. eigenvalues --   -0.53777  -0.51466  -0.48583
 Alpha virt. eigenvalues --    0.18533   0.22470   0.29317   0.32595   0.79100
 Alpha virt. eigenvalues --    0.81914   0.83102   0.84869   0.85211   0.88183
 Alpha virt. eigenvalues --    1.16169   1.19390   1.20596   1.27093   2.55479

 Mulliken charges:
               1
     1  O   -0.754673
     2  H    0.390197
     3  H    0.363345
     4  O   -0.752242
     5  H    0.380299
     6  H    0.373074
 Sum of Mulliken charges =   0.00000

 Dipole moment (field-independent basis, Debye):
    X=             -2.8809    Y=             -4.2172    Z=             -0.0000  Tot=              5.1073
 Quadrupole moment (field-independent basis, Debye-Ang):
   XX=             -9.7774   YY=             -6.9314   ZZ=            -14.9951
   XY=             -4.8363   XZ=             -0.0000   YZ=              0.0000

 0557\MP4DQ=-33.8948074\MP4SDQ=-33.8968527\CCSD=-33.8978894\CCSD(T)=-33
 Normal termination of Gaussian 16 at Sun Dec 10 06:23:07 2023.
