 Gaussian 16, Revision A.03,
 Gaussian 16:  ES64L-G16RevA.03 25-Dec-2016

 ------------------
 #p CCSD(T)/CEP-31G
 ------------------

 ------------
 H2O_H2O_4524
 ------------
 Symbolic Z-matrix:
 Charge =  0 Multiplicity = 1

                         Standard orientation:
 ---------------------------------------------------------------------
 Center     Atomic      Atomic             Coordinates (Angstroms)
 Number     Number       Type             X           Y           Z
 ---------------------------------------------------------------------
      1          8           0       -0.013472    2.896216    0.000000
      2          1           0       -0.011079    1.913618    0.000000
      3          1           0        0.915242    3.217145    0.000000
      4          8           0       -0.013472   -2.736938    0.000000
      5          1           0       -0.996070   -2.739331    0.000000
      6          1           0        0.307458   -3.665653    0.000000
 ---------------------------------------------------------------------

 SCF Done:  E(RHF) =  -33.6533448944     A.U. after   11 cycles
 E2 =    -0.2282902469D+00 EUMP2 =    -0.33881635141341D+02
 CCSD(T)
 CCSD(T)= -0.33898593207D+02

 The electronic state is 1-A'.
 Alpha  occ. eigenvalues --   -1.36245  -1.34855  -0.71886  -0.70496  -0.56065
 Alpha  occ. eigenvalues --   -0.54647  -0.50839  -0.49455
 Alpha virt. eigenvalues --    0.19588   0.21045   0.29864   0.31310   0.79712
 Alpha virt. eigenvalues --    0.81065   0.82574   0.84049   0.85728   0.87142
 Alpha virt. eigenvalues --    1.16724   1.18122   1.21165   1.22617   2.56673

 Mulliken charges:
               1
     1  O   -0.747177
     2  H    0.376905
     3  H    0.370264
     4  O   -0.746867
     5  H    0.373073
     6  H    0.373801
 Sum of Mulliken charges =  -0.00000

 Dipole moment (field-independent basis, Debye):
    X=              0.6188    Y=             -3.7314    Z=              0.0000  Tot=              3.7824
 Quadrupole moment (field-independent basis, Debye-Ang):
   XX=             -9.8768   YY=             -6.9788   ZZ=            -14.9916
   XY=             10.5015   XZ=              0.0000   YZ=              0.0000

 12\MP4DQ=-33.8929595\MP4SDQ=-33.8949833\CCSD=-33.8960358\CCSD(T)=-33.8
 Normal termination of Gaussian 16 at Sun Dec 10 06:54:26 2023.
