 Gaussian 16, Revision A.03,
 Gaussian 16:  ES64L-G16RevA.03 25-Dec-2016

 ------------------
 #p CCSD(T)/CEP-31G
 ------------------

 -----------
 H2O_H2O_518
 -----------
 Symbolic Z-matrix:
 Charge =  0 Multiplicity = 1

                         Standard orientation:
 ---------------------------------------------------------------------
 Center     Atomic      Atomic             Coordinates (Angstroms)
 Number     Number       Type             X           Y           Z
 ---------------------------------------------------------------------
      1          8           0        0.033961    1.310556   -0.000000
      2          1           0        0.029852    0.327963   -0.000000
      3          1           0       -0.894191    1.633107   -0.000000
      4          8           0        0.033961   -1.133163    0.000000
      5          1           0        0.940186   -1.512981    0.000000
      6          1           0       -0.619226   -1.867229    0.000000
 ---------------------------------------------------------------------

 SCF Done:  E(RHF) =  -33.6539678314     A.U. after   11 cycles
 E2 =    -0.2286500984D+00 EUMP2 =    -0.33882617929840D+02
 CCSD(T)
 CCSD(T)= -0.33898228862D+02

 The electronic state is 1-A'.
 Alpha  occ. eigenvalues --   -1.41111  -1.29202  -0.76514  -0.71250  -0.58380
 Alpha  occ. eigenvalues --   -0.55656  -0.47972  -0.43683
 Alpha virt. eigenvalues --    0.17163   0.26771   0.28368   0.54818   0.73985
 Alpha virt. eigenvalues --    0.74505   0.86169   0.89304   0.95379   1.00332
 Alpha virt. eigenvalues --    1.15592   1.18456   1.25225   1.37078   2.69515

 Mulliken charges:
               1
     1  O   -0.775352
     2  H    0.412951
     3  H    0.336189
     4  O   -0.836075
     5  H    0.423676
     6  H    0.438611
 Sum of Mulliken charges =   0.00000

 Dipole moment (field-independent basis, Debye):
    X=             -1.4697    Y=             -5.0442    Z=              0.0000  Tot=              5.2539
 Quadrupole moment (field-independent basis, Debye-Ang):
   XX=             -9.3421   YY=             -9.6923   ZZ=            -15.0095
   XY=             -3.9357   XZ=              0.0000   YZ=             -0.0000

 226\MP4DQ=-33.8922621\MP4SDQ=-33.8944416\CCSD=-33.8952353\CCSD(T)=-33.
 Normal termination of Gaussian 16 at Sun Dec 10 06:28:16 2023.
