 Gaussian 16, Revision A.03,
 Gaussian 16:  ES64L-G16RevA.03 25-Dec-2016

 ------------------
 #p CCSD(T)/CEP-31G
 ------------------

 -----------
 H2O_H2O_678
 -----------
 Symbolic Z-matrix:
 Charge =  0 Multiplicity = 1

                         Standard orientation:
 ---------------------------------------------------------------------
 Center     Atomic      Atomic             Coordinates (Angstroms)
 Number     Number       Type             X           Y           Z
 ---------------------------------------------------------------------
      1          8           0        0.085617   -1.365226    0.000000
      2          1           0        0.085133   -0.382625    0.000000
      3          1           0       -0.843719   -1.684350    0.000000
      4          8           0        0.085617    1.215666    0.000000
      5          1           0        0.276839    2.179481    0.000000
      6          1           0       -0.888121    1.083978    0.000000
 ---------------------------------------------------------------------

 SCF Done:  E(RHF) =  -33.6472025835     A.U. after   11 cycles
 E2 =    -0.2289658197D+00 EUMP2 =    -0.33876168403192D+02
 CCSD(T)
 CCSD(T)= -0.33892717709D+02

 The electronic state is 1-A'.
 Alpha  occ. eigenvalues --   -1.40555  -1.31756  -0.77331  -0.68723  -0.59228
 Alpha  occ. eigenvalues --   -0.54839  -0.50945  -0.46171
 Alpha virt. eigenvalues --    0.16595   0.25441   0.27751   0.49062   0.74120
 Alpha virt. eigenvalues --    0.77568   0.85314   0.87306   0.94211   1.10612
 Alpha virt. eigenvalues --    1.14654   1.23332   1.31618   1.37080   2.60443

 Mulliken charges:
               1
     1  O   -0.732106
     2  H    0.371308
     3  H    0.334153
     4  O   -0.799031
     5  H    0.448881
     6  H    0.376796
 Sum of Mulliken charges =   0.00000

 Dipole moment (field-independent basis, Debye):
    X=             -3.7082    Y=              4.2271    Z=              0.0000  Tot=              5.6231
 Quadrupole moment (field-independent basis, Debye-Ang):
   XX=            -10.8717   YY=             -9.4755   ZZ=            -14.9894
   XY=              2.7543   XZ=              0.0000   YZ=              0.0000

 \MP4DQ=-33.8866379\MP4SDQ=-33.8889323\CCSD=-33.8898268\CCSD(T)=-33.892
 Normal termination of Gaussian 16 at Sun Dec 10 06:31:16 2023.
