 Gaussian 16, Revision A.03,
 Gaussian 16:  ES64L-G16RevA.03 25-Dec-2016

 ------------------
 #p CCSD(T)/CEP-31G
 ------------------

 ------------
 H2O_H2O_2297
 ------------
 Symbolic Z-matrix:
 Charge =  0 Multiplicity = 1

                         Standard orientation:
 ---------------------------------------------------------------------
 Center     Atomic      Atomic             Coordinates (Angstroms)
 Number     Number       Type             X           Y           Z
 ---------------------------------------------------------------------
      1          8           0       -0.019902    2.012958    0.000000
      2          1           0       -0.016687    1.030362    0.000000
      3          1           0        0.908544    2.334664    0.000000
      4          8           0       -0.019902   -1.845874    0.000000
      5          1           0       -0.993672   -1.977316    0.000000
      6          1           0        0.420239   -2.724386    0.000000
 ---------------------------------------------------------------------

 SCF Done:  E(RHF) =  -33.6573692242     A.U. after   11 cycles
 E2 =    -0.2284437424D+00 EUMP2 =    -0.33885812966668D+02
 CCSD(T)
 CCSD(T)= -0.33902708166D+02

 The electronic state is 1-A'.
 Alpha  occ. eigenvalues --   -1.37110  -1.33655  -0.72775  -0.69310  -0.57201
 Alpha  occ. eigenvalues --   -0.53523  -0.51755  -0.48311
 Alpha virt. eigenvalues --    0.18056   0.23363   0.29214   0.33693   0.78698
 Alpha virt. eigenvalues --    0.82277   0.82966   0.85360   0.87691   0.88726
 Alpha virt. eigenvalues --    1.15925   1.19885   1.20523   1.31937   2.54088

 Mulliken charges:
               1
     1  O   -0.764615
     2  H    0.395615
     3  H    0.367028
     4  O   -0.760075
     5  H    0.380280
     6  H    0.381767
 Sum of Mulliken charges =  -0.00000

 Dipole moment (field-independent basis, Debye):
    X=              0.8984    Y=             -4.0641    Z=              0.0000  Tot=              4.1622
 Quadrupole moment (field-independent basis, Debye-Ang):
   XX=             -9.6660   YY=             -7.7134   ZZ=            -14.9992
   XY=              6.8191   XZ=              0.0000   YZ=              0.0000

 686\MP4DQ=-33.8970219\MP4SDQ=-33.8990875\CCSD=-33.9001149\CCSD(T)=-33.
 Normal termination of Gaussian 16 at Sun Dec 10 07:03:42 2023.
