 Gaussian 16, Revision A.03,
 Gaussian 16:  ES64L-G16RevA.03 25-Dec-2016

 ------------------
 #p CCSD(T)/CEP-31G
 ------------------

 ------------
 H2O_H2O_1880
 ------------
 Symbolic Z-matrix:
 Charge =  0 Multiplicity = 1

                         Standard orientation:
 ---------------------------------------------------------------------
 Center     Atomic      Atomic             Coordinates (Angstroms)
 Number     Number       Type             X           Y           Z
 ---------------------------------------------------------------------
      1          8           0       -0.079863    1.849027    0.000000
      2          1           0       -0.079235    0.866426    0.000000
      3          1           0        0.849426    2.168288    0.000000
      4          8           0       -0.079863   -1.689988    0.000000
      5          1           0       -0.395116   -2.620645    0.000000
      6          1           0        0.902732   -1.686381    0.000000
 ---------------------------------------------------------------------

 SCF Done:  E(RHF) =  -33.6558352521     A.U. after   11 cycles
 E2 =    -0.2287458379D+00 EUMP2 =    -0.33884581090017D+02
 CCSD(T)
 CCSD(T)= -0.33901555994D+02

 The electronic state is 1-A'.
 Alpha  occ. eigenvalues --   -1.37571  -1.33645  -0.73303  -0.69226  -0.57614
 Alpha  occ. eigenvalues --   -0.53388  -0.52179  -0.48241
 Alpha virt. eigenvalues --    0.17380   0.23880   0.28686   0.35108   0.78004
 Alpha virt. eigenvalues --    0.82327   0.82710   0.85095   0.88922   0.94882
 Alpha virt. eigenvalues --    1.15290   1.19068   1.20727   1.36492   2.52256

 Mulliken charges:
               1
     1  O   -0.759751
     2  H    0.400527
     3  H    0.356763
     4  O   -0.759557
     5  H    0.390876
     6  H    0.371144
 Sum of Mulliken charges =   0.00000

 Dipole moment (field-independent basis, Debye):
    X=              3.6066    Y=             -3.9478    Z=              0.0000  Tot=              5.3472
 Quadrupole moment (field-independent basis, Debye-Ang):
   XX=            -10.4984   YY=             -8.3580   ZZ=            -14.9952
   XY=              3.3922   XZ=              0.0000   YZ=              0.0000

 0643\MP4DQ=-33.8957968\MP4SDQ=-33.897899\CCSD=-33.8989225\CCSD(T)=-33.
 Normal termination of Gaussian 16 at Sun Dec 10 06:54:22 2023.
