 Gaussian 16, Revision A.03,
 Gaussian 16:  ES64L-G16RevA.03 25-Dec-2016

 ------------------
 #p CCSD(T)/CEP-31G
 ------------------

 -----------
 H2O_H2O_354
 -----------
 Symbolic Z-matrix:
 Charge =  0 Multiplicity = 1

                         Standard orientation:
 ---------------------------------------------------------------------
 Center     Atomic      Atomic             Coordinates (Angstroms)
 Number     Number       Type             X           Y           Z
 ---------------------------------------------------------------------
      1          8           0        0.082832   -1.238252    0.000000
      2          1           0        0.082091   -0.255651    0.000000
      3          1           0       -0.846420   -1.557620    0.000000
      4          8           0        0.082832    1.083796    0.000000
      5          1           0        0.336432    2.033107    0.000000
      6          1           0       -0.897415    1.015818    0.000000
 ---------------------------------------------------------------------

 SCF Done:  E(RHF) =  -33.6290731216     A.U. after   11 cycles
 E2 =    -0.2285285262D+00 EUMP2 =    -0.33857601647834D+02
 CCSD(T)
 CCSD(T)= -0.33873448101D+02

 The electronic state is 1-A'.
 Alpha  occ. eigenvalues --   -1.42904  -1.30085  -0.80143  -0.70616  -0.57941
 Alpha  occ. eigenvalues --   -0.56625  -0.48639  -0.44332
 Alpha virt. eigenvalues --    0.16328   0.24613   0.28789   0.56146   0.73389
 Alpha virt. eigenvalues --    0.75940   0.86793   0.89283   0.96582   1.08948
 Alpha virt. eigenvalues --    1.13878   1.23832   1.26425   1.40479   2.81853

 Mulliken charges:
               1
     1  O   -0.712058
     2  H    0.334744
     3  H    0.318802
     4  O   -0.809735
     5  H    0.479548
     6  H    0.388699
 Sum of Mulliken charges =  -0.00000

 Dipole moment (field-independent basis, Debye):
    X=             -3.4763    Y=              4.6938    Z=              0.0000  Tot=              5.8409
 Quadrupole moment (field-independent basis, Debye-Ang):
   XX=            -10.6808   YY=             -9.9054   ZZ=            -14.9628
   XY=              2.8207   XZ=              0.0000   YZ=              0.0000

 7\MP4DQ=-33.8672352\MP4SDQ=-33.8696181\CCSD=-33.8703961\CCSD(T)=-33.87
 Normal termination of Gaussian 16 at Sun Dec 10 06:25:02 2023.
