 Gaussian 16, Revision A.03,
 Gaussian 16:  ES64L-G16RevA.03 25-Dec-2016

 ------------------
 #p CCSD(T)/CEP-31G
 ------------------

 -----------
 H2O_H2O_253
 -----------
 Symbolic Z-matrix:
 Charge =  0 Multiplicity = 1

                         Standard orientation:
 ---------------------------------------------------------------------
 Center     Atomic      Atomic             Coordinates (Angstroms)
 Number     Number       Type             X           Y           Z
 ---------------------------------------------------------------------
      1          8           0        0.085622   -1.195697    0.000000
      2          1           0        0.085066   -0.213096    0.000000
      3          1           0       -0.843690   -1.514890    0.000000
      4          8           0        0.085622    1.046149    0.000000
      5          1           0        0.276773    2.009979    0.000000
      6          1           0       -0.888105    0.914390    0.000000
 ---------------------------------------------------------------------

 SCF Done:  E(RHF) =  -33.6133124122     A.U. after   11 cycles
 E2 =    -0.2284068729D+00 EUMP2 =    -0.33841719285109D+02
 CCSD(T)
 CCSD(T)= -0.33857406075D+02

 The electronic state is 1-A'.
 Alpha  occ. eigenvalues --   -1.44196  -1.29826  -0.81912  -0.71001  -0.57416
 Alpha  occ. eigenvalues --   -0.57374  -0.48129  -0.43987
 Alpha virt. eigenvalues --    0.16159   0.23938   0.29229   0.57923   0.73183
 Alpha virt. eigenvalues --    0.75852   0.87765   0.89678   0.96680   1.09471
 Alpha virt. eigenvalues --    1.12876   1.23272   1.26009   1.44266   2.88952

 Mulliken charges:
               1
     1  O   -0.693189
     2  H    0.291773
     3  H    0.313366
     4  O   -0.787187
     5  H    0.487669
     6  H    0.387567
 Sum of Mulliken charges =   0.00000

 Dipole moment (field-independent basis, Debye):
    X=             -3.5719    Y=              4.7144    Z=              0.0000  Tot=              5.9148
 Quadrupole moment (field-independent basis, Debye-Ang):
   XX=            -10.8483   YY=            -10.1210   ZZ=            -14.9383
   XY=              2.6251   XZ=              0.0000   YZ=              0.0000

 989\MP4DQ=-33.8510983\MP4SDQ=-33.8535537\CCSD=-33.8542844\CCSD(T)=-33.
 Normal termination of Gaussian 16 at Sun Dec 10 06:23:02 2023.
