 Gaussian 16, Revision A.03,
 Gaussian 16:  ES64L-G16RevA.03 25-Dec-2016

 ------------------
 #p CCSD(T)/CEP-31G
 ------------------

 ------------
 H2O_H2O_2028
 ------------
 Symbolic Z-matrix:
 Charge =  0 Multiplicity = 1

                         Standard orientation:
 ---------------------------------------------------------------------
 Center     Atomic      Atomic             Coordinates (Angstroms)
 Number     Number       Type             X           Y           Z
 ---------------------------------------------------------------------
      1          8           0        0.085606   -1.903723    0.000000
      2          1           0        0.085265   -0.921122    0.000000
      3          1           0       -0.843776   -2.222712    0.000000
      4          8           0        0.085606    1.754138    0.000000
      5          1           0        0.276967    2.717926    0.000000
      6          1           0       -0.888151    1.622591    0.000000
 ---------------------------------------------------------------------

 SCF Done:  E(RHF) =  -33.6544675345     A.U. after   11 cycles
 E2 =    -0.2287195678D+00 EUMP2 =    -0.33883187102236D+02
 CCSD(T)
 CCSD(T)= -0.33900190298D+02

 The electronic state is 1-A'.
 Alpha  occ. eigenvalues --   -1.37443  -1.34068  -0.73184  -0.69622  -0.57380
 Alpha  occ. eigenvalues --   -0.53798  -0.52032  -0.48647
 Alpha virt. eigenvalues --    0.17117   0.23520   0.28754   0.34053   0.78263
 Alpha virt. eigenvalues --    0.82205   0.82605   0.84805   0.88332   0.92772
 Alpha virt. eigenvalues --    1.15347   1.18887   1.20656   1.35915   2.53618

 Mulliken charges:
               1
     1  O   -0.754165
     2  H    0.393642
     3  H    0.358330
     4  O   -0.753658
     5  H    0.387629
     6  H    0.368222
 Sum of Mulliken charges =   0.00000

 Dipole moment (field-independent basis, Debye):
    X=             -3.8792    Y=              3.6863    Z=              0.0000  Tot=              5.3514
 Quadrupole moment (field-independent basis, Debye-Ang):
   XX=            -10.8291   YY=             -8.7086   ZZ=            -14.9918
   XY=              2.9836   XZ=              0.0000   YZ=              0.0000

 7112\MP4DQ=-33.8944449\MP4SDQ=-33.896541\CCSD=-33.8975675\CCSD(T)=-33.
 Normal termination of Gaussian 16 at Sun Dec 10 06:57:08 2023.
