 Gaussian 16, Revision A.03,
 Gaussian 16:  ES64L-G16RevA.03 25-Dec-2016

 ------------------
 #p CCSD(T)/CEP-31G
 ------------------

 ------------
 H2O_H2O_3096
 ------------
 Symbolic Z-matrix:
 Charge =  0 Multiplicity = 1

                         Standard orientation:
 ---------------------------------------------------------------------
 Center     Atomic      Atomic             Coordinates (Angstroms)
 Number     Number       Type             X           Y           Z
 ---------------------------------------------------------------------
      1          8           0       -0.023211    2.333851    0.000000
      2          1           0       -0.020579    1.351253    0.000000
      3          1           0        0.905425    2.655006    0.000000
      4          8           0       -0.023211   -2.163465    0.000000
      5          1           0       -0.986415   -2.357741    0.000000
      6          1           0        0.472942   -3.011603    0.000000
 ---------------------------------------------------------------------

 SCF Done:  E(RHF) =  -33.6552486511     A.U. after   11 cycles
 E2 =    -0.2282981346D+00 EUMP2 =    -0.33883546785646D+02
 CCSD(T)
 CCSD(T)= -0.33900456390D+02

 The electronic state is 1-A'.
 Alpha  occ. eigenvalues --   -1.36658  -1.34185  -0.72306  -0.69824  -0.56592
 Alpha  occ. eigenvalues --   -0.54023  -0.51279  -0.48812
 Alpha virt. eigenvalues --    0.18818   0.22140   0.29507   0.32242   0.79286
 Alpha virt. eigenvalues --    0.81673   0.82409   0.84464   0.85560   0.87795
 Alpha virt. eigenvalues --    1.16361   1.19131   1.20761   1.25428   2.56217

 Mulliken charges:
               1
     1  O   -0.754760
     2  H    0.385944
     3  H    0.368189
     4  O   -0.752834
     5  H    0.376811
     6  H    0.376651
 Sum of Mulliken charges =   0.00000

 Dipole moment (field-independent basis, Debye):
    X=              1.0574    Y=             -4.0586    Z=              0.0000  Tot=              4.1941
 Quadrupole moment (field-independent basis, Debye-Ang):
   XX=             -9.5917   YY=             -6.9727   ZZ=            -14.9954
   XY=              7.6559   XZ=              0.0000   YZ=              0.0000

 637\MP4DQ=-33.8948182\MP4SDQ=-33.8968518\CCSD=-33.8978925\CCSD(T)=-33.
 Normal termination of Gaussian 16 at Sun Dec 10 06:28:47 2023.
