 Gaussian 16, Revision A.03,
 Gaussian 16:  ES64L-G16RevA.03 25-Dec-2016

 ------------------
 #p CCSD(T)/CEP-31G
 ------------------

 -----------
 H2O_H2O_233
 -----------
 Symbolic Z-matrix:
 Charge =  0 Multiplicity = 1

                         Standard orientation:
 ---------------------------------------------------------------------
 Center     Atomic      Atomic             Coordinates (Angstroms)
 Number     Number       Type             X           Y           Z
 ---------------------------------------------------------------------
      1          8           0        0.070275    1.196904   -0.000000
      2          1           0        0.068538    0.214304   -0.000000
      3          1           0       -0.858653    1.517213   -0.000000
      4          8           0        0.070275   -1.026786    0.000000
      5          1           0        0.560071   -1.878611    0.000000
      6          1           0       -0.894355   -1.213853    0.000000
 ---------------------------------------------------------------------

 SCF Done:  E(RHF) =  -33.6232240134     A.U. after   11 cycles
 E2 =    -0.2283619992D+00 EUMP2 =    -0.33851586012623D+02
 CCSD(T)
 CCSD(T)= -0.33866744237D+02

 The electronic state is 1-A'.
 Alpha  occ. eigenvalues --   -1.43922  -1.28421  -0.80171  -0.73804  -0.57598
 Alpha  occ. eigenvalues --   -0.56335  -0.46357  -0.42564
 Alpha virt. eigenvalues --    0.16304   0.24908   0.29466   0.59526   0.73341
 Alpha virt. eigenvalues --    0.74400   0.87430   0.90572   0.95603   1.07088
 Alpha virt. eigenvalues --    1.12705   1.21120   1.25656   1.35175   2.91671

 Mulliken charges:
               1
     1  O   -0.732779
     2  H    0.351564
     3  H    0.309734
     4  O   -0.819414
     5  H    0.481194
     6  H    0.409702
 Sum of Mulliken charges =   0.00000

 Dipole moment (field-independent basis, Debye):
    X=             -2.8669    Y=             -5.2435    Z=              0.0000  Tot=              5.9761
 Quadrupole moment (field-independent basis, Debye-Ang):
   XX=             -9.9826   YY=            -10.2318   ZZ=            -14.9555
   XY=             -3.2134   XZ=              0.0000   YZ=             -0.0000

 \MP4DQ=-33.8605467\MP4SDQ=-33.8629042\CCSD=-33.8635954\CCSD(T)=-33.866
 Normal termination of Gaussian 16 at Sun Dec 10 06:22:38 2023.
