 Gaussian 16, Revision A.03,
 Gaussian 16:  ES64L-G16RevA.03 25-Dec-2016

 ------------------
 #p CCSD(T)/CEP-31G
 ------------------

 ------------
 H2O_H2O_1333
 ------------
 Symbolic Z-matrix:
 Charge =  0 Multiplicity = 1

                         Standard orientation:
 ---------------------------------------------------------------------
 Center     Atomic      Atomic             Coordinates (Angstroms)
 Number     Number       Type             X           Y           Z
 ---------------------------------------------------------------------
      1          8           0        0.070232    1.635704   -0.000000
      2          1           0        0.068987    0.653103   -0.000000
      3          1           0       -0.858856    1.955548   -0.000000
      4          8           0        0.070232   -1.465515    0.000000
      5          1           0        0.560455   -2.317095    0.000000
      6          1           0       -0.894304   -1.653066    0.000000
 ---------------------------------------------------------------------

 SCF Done:  E(RHF) =  -33.6593248728     A.U. after   11 cycles
 E2 =    -0.2289639398D+00 EUMP2 =    -0.33888288812593D+02
 CCSD(T)
 CCSD(T)= -0.33905103722D+02

 The electronic state is 1-A'.
 Alpha  occ. eigenvalues --   -1.38300  -1.32442  -0.74043  -0.68350  -0.58635
 Alpha  occ. eigenvalues --   -0.52954  -0.52113  -0.47053
 Alpha virt. eigenvalues --    0.17487   0.25305   0.28191   0.40258   0.76566
 Alpha virt. eigenvalues --    0.79910   0.84685   0.85403   0.91786   1.04325
 Alpha virt. eigenvalues --    1.14974   1.18397   1.21442   1.36364   2.50087

 Mulliken charges:
               1
     1  O   -0.772551
     2  H    0.420534
     3  H    0.349827
     4  O   -0.784813
     5  H    0.407802
     6  H    0.379201
 Sum of Mulliken charges =   0.00000

 Dipole moment (field-independent basis, Debye):
    X=             -3.1158    Y=             -4.3678    Z=              0.0000  Tot=              5.3653
 Quadrupole moment (field-independent basis, Debye-Ang):
   XX=            -10.0340   YY=             -8.4492   ZZ=            -15.0050
   XY=             -3.7594   XZ=              0.0000   YZ=             -0.0000

 79\MP4DQ=-33.8992735\MP4SDQ=-33.9013996\CCSD=-33.902395\CCSD(T)=-33.90
 Normal termination of Gaussian 16 at Sun Dec 10 06:43:45 2023.
