 Gaussian 16, Revision A.03,
 Gaussian 16:  ES64L-G16RevA.03 25-Dec-2016

 ------------------
 #p CCSD(T)/CEP-31G
 ------------------

 ------------
 H2O_H2O_1496
 ------------
 Symbolic Z-matrix:
 Charge =  0 Multiplicity = 1

                         Standard orientation:
 ---------------------------------------------------------------------
 Center     Atomic      Atomic             Coordinates (Angstroms)
 Number     Number       Type             X           Y           Z
 ---------------------------------------------------------------------
      1          8           0       -0.023301    1.695625    0.000000
      2          1           0       -0.019626    0.713031    0.000000
      3          1           0        0.904994    2.017766    0.000000
      4          8           0       -0.023301   -1.525289    0.000000
      5          1           0       -0.986300   -1.720588    0.000000
      6          1           0        0.473751   -2.372900    0.000000
 ---------------------------------------------------------------------

 SCF Done:  E(RHF) =  -33.6612123625     A.U. after   11 cycles
 E2 =    -0.2287253725D+00 EUMP2 =    -0.33889937734958D+02
 CCSD(T)
 CCSD(T)= -0.33906738188D+02

 The electronic state is 1-A'.
 Alpha  occ. eigenvalues --   -1.37939  -1.32504  -0.73643  -0.68361  -0.58430
 Alpha  occ. eigenvalues --   -0.52630  -0.52314  -0.47192
 Alpha virt. eigenvalues --    0.17846   0.25205   0.28610   0.38872   0.77094
 Alpha virt. eigenvalues --    0.80421   0.84205   0.86453   0.89567   1.01384
 Alpha virt. eigenvalues --    1.15462   1.18620   1.21626   1.35918   2.50513

 Mulliken charges:
               1
     1  O   -0.781041
     2  H    0.416429
     3  H    0.361790
     4  O   -0.783337
     5  H    0.388926
     6  H    0.397233
 Sum of Mulliken charges =  -0.00000

 Dipole moment (field-independent basis, Debye):
    X=              1.0440    Y=             -4.3091    Z=              0.0000  Tot=              4.4338
 Quadrupole moment (field-independent basis, Debye-Ang):
   XX=             -9.5679   YY=             -8.2667   ZZ=            -15.0084
   XY=              5.5506   XZ=              0.0000   YZ=              0.0000

 2325\MP4DQ=-33.9009589\MP4SDQ=-33.9030602\CCSD=-33.9040646\CCSD(T)=-33
 Normal termination of Gaussian 16 at Sun Dec 10 06:46:59 2023.
