 Gaussian 16, Revision A.03,
 Gaussian 16:  ES64L-G16RevA.03 25-Dec-2016

 ------------------
 #p CCSD(T)/CEP-31G
 ------------------

 ------------
 H2O_H2O_1403
 ------------
 Symbolic Z-matrix:
 Charge =  0 Multiplicity = 1

                         Standard orientation:
 ---------------------------------------------------------------------
 Center     Atomic      Atomic             Coordinates (Angstroms)
 Number     Number       Type             X           Y           Z
 ---------------------------------------------------------------------
      1          8           0        0.085610   -1.654420    0.000000
      2          1           0        0.085215   -0.671819    0.000000
      3          1           0       -0.843755   -1.973460    0.000000
      4          8           0        0.085610    1.504844    0.000000
      5          1           0        0.276919    2.468642    0.000000
      6          1           0       -0.888139    1.373244    0.000000
 ---------------------------------------------------------------------

 SCF Done:  E(RHF) =  -33.6552965475     A.U. after   11 cycles
 E2 =    -0.2290208108D+00 EUMP2 =    -0.33884317358338D+02
 CCSD(T)
 CCSD(T)= -0.33901314861D+02

 The electronic state is 1-A'.
 Alpha  occ. eigenvalues --   -1.38264  -1.33400  -0.74199  -0.68980  -0.58312
 Alpha  occ. eigenvalues --   -0.53042  -0.52836  -0.47958
 Alpha virt. eigenvalues --    0.16952   0.24754   0.28094   0.38545   0.76668
 Alpha virt. eigenvalues --    0.80791   0.83867   0.84952   0.90001   1.07468
 Alpha virt. eigenvalues --    1.15430   1.17421   1.21746   1.39436   2.50505

 Mulliken charges:
               1
     1  O   -0.758185
     2  H    0.401823
     3  H    0.351247
     4  O   -0.768783
     5  H    0.404381
     6  H    0.369518
 Sum of Mulliken charges =   0.00000

 Dipole moment (field-independent basis, Debye):
    X=             -3.8318    Y=              3.8358    Z=              0.0000  Tot=              5.4218
 Quadrupole moment (field-independent basis, Debye-Ang):
   XX=            -10.8478   YY=             -8.9539   ZZ=            -14.9943
   XY=              2.8876   XZ=              0.0000   YZ=              0.0000

 746\MP4DQ=-33.8954525\MP4SDQ=-33.897612\CCSD=-33.8986159\CCSD(T)=-33.9
 Normal termination of Gaussian 16 at Sun Dec 10 06:45:09 2023.
