 Gaussian 16, Revision A.03,
 Gaussian 16:  ES64L-G16RevA.03 25-Dec-2016

 ------------------
 #p CCSD(T)/CEP-31G
 ------------------

 -----------
 H2O_H2O_498
 -----------
 Symbolic Z-matrix:
 Charge =  0 Multiplicity = 1

                         Standard orientation:
 ---------------------------------------------------------------------
 Center     Atomic      Atomic             Coordinates (Angstroms)
 Number     Number       Type             X           Y           Z
 ---------------------------------------------------------------------
      1          8           0        0.016833   -1.292937    0.000000
      2          1           0        0.011486   -0.310350    0.000000
      3          1           0       -0.910912   -1.616656    0.000000
      4          8           0        0.016833    1.129631    0.000000
      5          1           0        0.996967    1.199231    0.000000
      6          1           0       -0.366870    2.034218    0.000000
 ---------------------------------------------------------------------

 SCF Done:  E(RHF) =  -33.6493159988     A.U. after   11 cycles
 E2 =    -0.2280719169D+00 EUMP2 =    -0.33877387915647D+02
 CCSD(T)
 CCSD(T)= -0.33893188278D+02

 The electronic state is 1-A'.
 Alpha  occ. eigenvalues --   -1.41346  -1.29612  -0.77863  -0.69850  -0.58984
 Alpha  occ. eigenvalues --   -0.55668  -0.48368  -0.44131
 Alpha virt. eigenvalues --    0.17300   0.26327   0.28418   0.54449   0.73895
 Alpha virt. eigenvalues --    0.75902   0.87388   0.89105   0.93379   1.05171
 Alpha virt. eigenvalues --    1.15169   1.22060   1.28191   1.38825   2.72323

 Mulliken charges:
               1
     1  O   -0.762308
     2  H    0.376721
     3  H    0.347086
     4  O   -0.838023
     5  H    0.415179
     6  H    0.461345
 Sum of Mulliken charges =   0.00000

 Dipole moment (field-independent basis, Debye):
    X=             -0.7510    Y=              4.7420    Z=              0.0000  Tot=              4.8011
 Quadrupole moment (field-independent basis, Debye-Ang):
   XX=             -9.6907   YY=             -9.6333   ZZ=            -15.0011
   XY=              4.3261   XZ=              0.0000   YZ=              0.0000

 2\MP4DQ=-33.8871898\MP4SDQ=-33.8894105\CCSD=-33.8902335\CCSD(T)=-33.89
 Normal termination of Gaussian 16 at Sun Dec 10 06:27:53 2023.
