 Gaussian 16, Revision A.03,
 Gaussian 16:  ES64L-G16RevA.03 25-Dec-2016

 ------------------
 #p CCSD(T)/CEP-31G
 ------------------

 ------------
 H2O_H2O_3447
 ------------
 Symbolic Z-matrix:
 Charge =  0 Multiplicity = 1

                         Standard orientation:
 ---------------------------------------------------------------------
 Center     Atomic      Atomic             Coordinates (Angstroms)
 Number     Number       Type             X           Y           Z
 ---------------------------------------------------------------------
      1          8           0       -0.019849    2.471678    0.000000
      2          1           0       -0.017252    1.489080    0.000000
      3          1           0        0.908798    2.792800    0.000000
      4          8           0       -0.019849   -2.304568    0.000000
      5          1           0       -0.993702   -2.435398    0.000000
      6          1           0        0.419739   -3.183356    0.000000
 ---------------------------------------------------------------------

 SCF Done:  E(RHF) =  -33.6545704109     A.U. after   11 cycles
 E2 =    -0.2282763888D+00 EUMP2 =    -0.33882846799707D+02
 CCSD(T)
 CCSD(T)= -0.33899771530D+02

 The electronic state is 1-A'.
 Alpha  occ. eigenvalues --   -1.36519  -1.34412  -0.72165  -0.70052  -0.56412
 Alpha  occ. eigenvalues --   -0.54236  -0.51130  -0.49029
 Alpha virt. eigenvalues --    0.19094   0.21755   0.29616   0.31918   0.79431
 Alpha virt. eigenvalues --    0.81465   0.82228   0.84387   0.85488   0.87607
 Alpha virt. eigenvalues --    1.16480   1.18759   1.20874   1.24041   2.56458

 Mulliken charges:
               1
     1  O   -0.751992
     2  H    0.382667
     3  H    0.369054
     4  O   -0.750919
     5  H    0.375437
     6  H    0.375753
 Sum of Mulliken charges =   0.00000

 Dipole moment (field-independent basis, Debye):
    X=              0.9067    Y=             -3.9558    Z=              0.0000  Tot=              4.0584
 Quadrupole moment (field-independent basis, Debye-Ang):
   XX=             -9.6760   YY=             -6.9510   ZZ=            -14.9940
   XY=              8.3776   XZ=              0.0000   YZ=              0.0000

 3868\MP4DQ=-33.894139\MP4SDQ=-33.8961661\CCSD=-33.897212\CCSD(T)=-33.8
 Normal termination of Gaussian 16 at Sun Dec 10 06:35:04 2023.
