 Gaussian 16, Revision A.03,
 Gaussian 16:  ES64L-G16RevA.03 25-Dec-2016

 ------------------
 #p CCSD(T)/CEP-31G
 ------------------

 ------------
 H2O_H2O_4276
 ------------
 Symbolic Z-matrix:
 Charge =  0 Multiplicity = 1

                         Standard orientation:
 ---------------------------------------------------------------------
 Center     Atomic      Atomic             Coordinates (Angstroms)
 Number     Number       Type             X           Y           Z
 ---------------------------------------------------------------------
      1          8           0        0.090684   -2.795290    0.000000
      2          1           0        0.090613   -1.812688    0.000000
      3          1           0       -0.838786   -3.114023    0.000000
      4          8           0        0.090684    2.656579    0.000000
      5          1           0        0.154878    3.637081    0.000000
      6          1           0       -0.857643    2.399318    0.000000
 ---------------------------------------------------------------------

 SCF Done:  E(RHF) =  -33.6521270760     A.U. after   11 cycles
 E2 =    -0.2283572076D+00 EUMP2 =    -0.33880484283634D+02
 CCSD(T)
 CCSD(T)= -0.33897476999D+02

 The electronic state is 1-A'.
 Alpha  occ. eigenvalues --   -1.36351  -1.35096  -0.72001  -0.70713  -0.56112
 Alpha  occ. eigenvalues --   -0.54833  -0.50926  -0.49669
 Alpha virt. eigenvalues --    0.19295   0.20833   0.29682   0.30997   0.79640
 Alpha virt. eigenvalues --    0.80871   0.82584   0.83889   0.85644   0.87095
 Alpha virt. eigenvalues --    1.16536   1.17848   1.21016   1.22387   2.56337

 Mulliken charges:
               1
     1  O   -0.742520
     2  H    0.375491
     3  H    0.367017
     4  O   -0.742879
     5  H    0.374932
     6  H    0.367959
 Sum of Mulliken charges =  -0.00000

 Dipole moment (field-independent basis, Debye):
    X=             -4.1693    Y=              3.2613    Z=              0.0000  Tot=              5.2933
 Quadrupole moment (field-independent basis, Debye-Ang):
   XX=            -11.1273   YY=             -9.0559   ZZ=            -14.9886
   XY=              2.6372   XZ=              0.0000   YZ=              0.0000

 92\MP4DQ=-33.8918335\MP4SDQ=-33.8938608\CCSD=-33.8949151\CCSD(T)=-33.8
 Normal termination of Gaussian 16 at Sun Dec 10 06:49:58 2023.
