 Gaussian 16, Revision A.03,
 Gaussian 16:  ES64L-G16RevA.03 25-Dec-2016

 ------------------
 #p CCSD(T)/CEP-31G
 ------------------

 ------------
 H2O_H2O_3981
 ------------
 Symbolic Z-matrix:
 Charge =  0 Multiplicity = 1

                         Standard orientation:
 ---------------------------------------------------------------------
 Center     Atomic      Atomic             Coordinates (Angstroms)
 Number     Number       Type             X           Y           Z
 ---------------------------------------------------------------------
      1          8           0        0.076752    2.688940   -0.000000
      2          1           0        0.076224    1.706338   -0.000000
      3          1           0       -0.852570    3.008105   -0.000000
      4          8           0        0.076752   -2.525719    0.000000
      5          1           0        0.452289   -3.433726    0.000000
      6          1           0       -0.903970   -2.586485    0.000000
 ---------------------------------------------------------------------

 SCF Done:  E(RHF) =  -33.6529372628     A.U. after   11 cycles
 E2 =    -0.2283256732D+00 EUMP2 =    -0.33881262935939D+02
 CCSD(T)
 CCSD(T)= -0.33898231140D+02

 The electronic state is 1-A'.
 Alpha  occ. eigenvalues --   -1.36400  -1.34730  -0.72048  -0.70347  -0.56204
 Alpha  occ. eigenvalues --   -0.54492  -0.50987  -0.49315
 Alpha virt. eigenvalues --    0.19320   0.21229   0.29666   0.31459   0.79576
 Alpha virt. eigenvalues --    0.81207   0.82425   0.84221   0.85565   0.87422
 Alpha virt. eigenvalues --    1.16545   1.18249   1.20970   1.22925   2.56497

 Mulliken charges:
               1
     1  O   -0.745660
     2  H    0.379202
     3  H    0.366406
     4  O   -0.745651
     5  H    0.375805
     6  H    0.369899
 Sum of Mulliken charges =   0.00000

 Dipole moment (field-independent basis, Debye):
    X=             -3.5225    Y=             -3.8462    Z=              0.0000  Tot=              5.2155
 Quadrupole moment (field-independent basis, Debye-Ang):
   XX=            -10.3190   YY=             -6.9543   ZZ=            -14.9906
   XY=             -4.2385   XZ=              0.0000   YZ=             -0.0000

 848\MP4DQ=-33.8925931\MP4SDQ=-33.8946192\CCSD=-33.895671\CCSD(T)=-33.8
 Normal termination of Gaussian 16 at Sun Dec 10 06:44:39 2023.
