 Gaussian 16, Revision A.03,
 Gaussian 16:  ES64L-G16RevA.03 25-Dec-2016

 ------------------
 #p CCSD(T)/CEP-31G
 ------------------

 ------------
 H2O_H2O_1429
 ------------
 Symbolic Z-matrix:
 Charge =  0 Multiplicity = 1

                         Standard orientation:
 ---------------------------------------------------------------------
 Center     Atomic      Atomic             Coordinates (Angstroms)
 Number     Number       Type             X           Y           Z
 ---------------------------------------------------------------------
      1          8           0        0.082816   -1.667062    0.000000
      2          1           0        0.082275   -0.684461    0.000000
      3          1           0       -0.846501   -1.986240    0.000000
      4          8           0        0.082816    1.512571    0.000000
      5          1           0        0.336610    2.461832    0.000000
      6          1           0       -0.897445    1.444793    0.000000
 ---------------------------------------------------------------------

 SCF Done:  E(RHF) =  -33.6561445889     A.U. after   11 cycles
 E2 =    -0.2289735020D+00 EUMP2 =    -0.33885118090911D+02
 CCSD(T)
 CCSD(T)= -0.33902089496D+02

 The electronic state is 1-A'.
 Alpha  occ. eigenvalues --   -1.38198  -1.33245  -0.74072  -0.68874  -0.58304
 Alpha  occ. eigenvalues --   -0.52904  -0.52788  -0.47817
 Alpha virt. eigenvalues --    0.17094   0.24779   0.28155   0.38472   0.76785
 Alpha virt. eigenvalues --    0.80789   0.83898   0.85066   0.90195   1.06233
 Alpha virt. eigenvalues --    1.15195   1.17681   1.21583   1.38938   2.50449

 Mulliken charges:
               1
     1  O   -0.761280
     2  H    0.405644
     3  H    0.351386
     4  O   -0.771192
     5  H    0.404085
     6  H    0.371357
 Sum of Mulliken charges =  -0.00000

 Dipole moment (field-independent basis, Debye):
    X=             -3.7053    Y=              3.9507    Z=              0.0000  Tot=              5.4164
 Quadrupole moment (field-independent basis, Debye-Ang):
   XX=            -10.6765   YY=             -8.7800   ZZ=            -14.9964
   XY=              3.0911   XZ=              0.0000   YZ=              0.0000

 322\MP4DQ=-33.8962421\MP4SDQ=-33.8983907\CCSD=-33.8993972\CCSD(T)=-33.
 Normal termination of Gaussian 16 at Sun Dec 10 06:45:40 2023.
