 Gaussian 16, Revision A.03,
 Gaussian 16:  ES64L-G16RevA.03 25-Dec-2016

 ------------------
 #p CCSD(T)/CEP-31G
 ------------------

 ------------
 H2O_H2O_2818
 ------------
 Symbolic Z-matrix:
 Charge =  0 Multiplicity = 1

                         Standard orientation:
 ---------------------------------------------------------------------
 Center     Atomic      Atomic             Coordinates (Angstroms)
 Number     Number       Type             X           Y           Z
 ---------------------------------------------------------------------
      1          8           0        0.033802    2.228030    0.000000
      2          1           0        0.031455    1.245431    0.000000
      3          1           0       -0.894927    2.548916    0.000000
      4          8           0        0.033802   -2.050515    0.000000
      5          1           0        0.940707   -2.428708    0.000000
      6          1           0       -0.618068   -2.785752    0.000000
 ---------------------------------------------------------------------

 SCF Done:  E(RHF) =  -33.6559359074     A.U. after   11 cycles
 E2 =    -0.2283403370D+00 EUMP2 =    -0.33884276244427D+02
 CCSD(T)
 CCSD(T)= -0.33901172614D+02

 The electronic state is 1-A'.
 Alpha  occ. eigenvalues --   -1.36800  -1.33895  -0.72447  -0.69526  -0.56782
 Alpha  occ. eigenvalues --   -0.53739  -0.51431  -0.48528
 Alpha virt. eigenvalues --    0.18675   0.22539   0.29431   0.32656   0.79130
 Alpha virt. eigenvalues --    0.81955   0.83016   0.84531   0.85617   0.88036
 Alpha virt. eigenvalues --    1.16259   1.19504   1.20676   1.26853   2.55551

 Mulliken charges:
               1
     1  O   -0.757669
     2  H    0.390343
     3  H    0.366199
     4  O   -0.754396
     5  H    0.378770
     6  H    0.376754
 Sum of Mulliken charges =   0.00000

 Dipole moment (field-independent basis, Debye):
    X=             -1.5369    Y=             -4.2576    Z=              0.0000  Tot=              4.5265
 Quadrupole moment (field-independent basis, Debye-Ang):
   XX=             -9.4294   YY=             -6.7836   ZZ=            -14.9968
   XY=             -6.6256   XZ=              0.0000   YZ=              0.0000

 7693\MP4DQ=-33.895525\MP4SDQ=-33.8975672\CCSD=-33.8986029\CCSD(T)=-33.
 Normal termination of Gaussian 16 at Sun Dec 10 06:23:43 2023.
