 Gaussian 16, Revision A.03,
 Gaussian 16:  ES64L-G16RevA.03 25-Dec-2016

 ------------------
 #p CCSD(T)/CEP-31G
 ------------------

 ------------
 H2O_H2O_1024
 ------------
 Symbolic Z-matrix:
 Charge =  0 Multiplicity = 1

                         Standard orientation:
 ---------------------------------------------------------------------
 Center     Atomic      Atomic             Coordinates (Angstroms)
 Number     Number       Type             X           Y           Z
 ---------------------------------------------------------------------
      1          8           0        0.013662   -1.500121    0.000000
      2          1           0        0.008918   -0.517531    0.000000
      3          1           0       -0.914281   -1.823272    0.000000
      4          8           0        0.013662    1.340908    0.000000
      5          1           0        0.996252    1.345653    0.000000
      6          1           0       -0.309489    2.268853    0.000000
 ---------------------------------------------------------------------

 SCF Done:  E(RHF) =  -33.6608469646     A.U. after   11 cycles
 E2 =    -0.2286280986D+00 EUMP2 =    -0.33889475063174D+02
 CCSD(T)
 CCSD(T)= -0.33906113652D+02

 The electronic state is 1-A'.
 Alpha  occ. eigenvalues --   -1.38930  -1.31793  -0.74974  -0.68138  -0.59385
 Alpha  occ. eigenvalues --   -0.53572  -0.51378  -0.46469
 Alpha virt. eigenvalues --    0.17583   0.26341   0.27921   0.44295   0.75455
 Alpha virt. eigenvalues --    0.78479   0.86037   0.86382   0.90676   1.10772
 Alpha virt. eigenvalues --    1.16007   1.20639   1.23975   1.37022   2.53736

 Mulliken charges:
               1
     1  O   -0.779142
     2  H    0.407885
     3  H    0.361219
     4  O   -0.808235
     5  H    0.395418
     6  H    0.422854
 Sum of Mulliken charges =  -0.00000

 Dipole moment (field-independent basis, Debye):
    X=             -0.6123    Y=              4.2267    Z=              0.0000  Tot=              4.2708
 Quadrupole moment (field-independent basis, Debye-Ang):
   XX=             -9.8369   YY=             -8.9492   ZZ=            -15.0120
   XY=              5.2990   XZ=              0.0000   YZ=              0.0000

 374\MP4DQ=-33.9002368\MP4SDQ=-33.902393\CCSD=-33.903354\CCSD(T)=-33.90
 Normal termination of Gaussian 16 at Sun Dec 10 06:37:46 2023.
