 Gaussian 16, Revision A.03,
 Gaussian 16:  ES64L-G16RevA.03 25-Dec-2016

 ------------------
 #p CCSD(T)/CEP-31G
 ------------------

 ------------
 H2O_H2O_2998
 ------------
 Symbolic Z-matrix:
 Charge =  0 Multiplicity = 1

                         Standard orientation:
 ---------------------------------------------------------------------
 Center     Atomic      Atomic             Coordinates (Angstroms)
 Number     Number       Type             X           Y           Z
 ---------------------------------------------------------------------
      1          8           0       -0.016632    2.290163    0.000000
      2          1           0       -0.013700    1.307566    0.000000
      3          1           0        0.911905    2.611602    0.000000
      4          8           0       -0.016632   -2.126776    0.000000
      5          1           0       -0.996935   -2.193967    0.000000
      6          1           0        0.364848   -3.032303    0.000000
 ---------------------------------------------------------------------

 SCF Done:  E(RHF) =  -33.6553277538     A.U. after   11 cycles
 E2 =    -0.2283044169D+00 EUMP2 =    -0.33883632170611D+02
 CCSD(T)
 CCSD(T)= -0.33900543678D+02

 The electronic state is 1-A'.
 Alpha  occ. eigenvalues --   -1.36699  -1.34241  -0.72352  -0.69885  -0.56636
 Alpha  occ. eigenvalues --   -0.54083  -0.51320  -0.48870
 Alpha virt. eigenvalues --    0.18591   0.22228   0.29471   0.32224   0.79242
 Alpha virt. eigenvalues --    0.81620   0.82495   0.84365   0.85671   0.87737
 Alpha virt. eigenvalues --    1.16279   1.19165   1.20733   1.26077   2.56203

 Mulliken charges:
               1
     1  O   -0.755186
     2  H    0.385464
     3  H    0.369026
     4  O   -0.753380
     5  H    0.376508
     6  H    0.377569
 Sum of Mulliken charges =   0.00000

 Dipole moment (field-independent basis, Debye):
    X=              0.7568    Y=             -3.8971    Z=              0.0000  Tot=              3.9699
 Quadrupole moment (field-independent basis, Debye-Ang):
   XX=             -9.7665   YY=             -7.4672   ZZ=            -14.9954
   XY=              8.0148   XZ=              0.0000   YZ=              0.0000

 472\MP4DQ=-33.8949014\MP4SDQ=-33.8969376\CCSD=-33.8979773\CCSD(T)=-33.
 Normal termination of Gaussian 16 at Sun Dec 10 06:27:01 2023.
