 Gaussian 16, Revision A.03,
 Gaussian 16:  ES64L-G16RevA.03 25-Dec-2016

 ------------------
 #p CCSD(T)/CEP-31G
 ------------------

 ------------
 H2O_H2O_1653
 ------------
 Symbolic Z-matrix:
 Charge =  0 Multiplicity = 1

                         Standard orientation:
 ---------------------------------------------------------------------
 Center     Atomic      Atomic             Coordinates (Angstroms)
 Number     Number       Type             X           Y           Z
 ---------------------------------------------------------------------
      1          8           0        0.085608   -1.754141    0.000000
      2          1           0        0.085237   -0.771540    0.000000
      3          1           0       -0.843764   -2.073159    0.000000
      4          8           0        0.085608    1.604561    0.000000
      5          1           0        0.276939    2.568355    0.000000
      6          1           0       -0.888145    1.472985    0.000000
 ---------------------------------------------------------------------

 SCF Done:  E(RHF) =  -33.6551019558     A.U. after   11 cycles
 E2 =    -0.2289084993D+00 EUMP2 =    -0.33884010455140D+02
 CCSD(T)
 CCSD(T)= -0.33901024838D+02

 The electronic state is 1-A'.
 Alpha  occ. eigenvalues --   -1.37872  -1.33716  -0.73699  -0.69264  -0.57887
 Alpha  occ. eigenvalues --   -0.53409  -0.52456  -0.48288
 Alpha virt. eigenvalues --    0.17012   0.24247   0.28395   0.36345   0.77425
 Alpha virt. eigenvalues --    0.81683   0.83050   0.84927   0.89112   1.00834
 Alpha virt. eigenvalues --    1.15166   1.18102   1.21225   1.38911   2.51560

 Mulliken charges:
               1
     1  O   -0.757586
     2  H    0.399549
     3  H    0.354600
     4  O   -0.761129
     5  H    0.395839
     6  H    0.368727
 Sum of Mulliken charges =  -0.00000

 Dipole moment (field-independent basis, Debye):
    X=             -3.8548    Y=              3.7636    Z=              0.0000  Tot=              5.3874
 Quadrupole moment (field-independent basis, Debye-Ang):
   XX=            -10.8393   YY=             -8.8469   ZZ=            -14.9931
   XY=              2.9266   XZ=              0.0000   YZ=              0.0000

 945\MP4DQ=-33.8952148\MP4SDQ=-33.8973458\CCSD=-33.8983622\CCSD(T)=-33.
 Normal termination of Gaussian 16 at Sun Dec 10 06:50:06 2023.
