 Gaussian 16, Revision A.03,
 Gaussian 16:  ES64L-G16RevA.03 25-Dec-2016

 ------------------
 #p CCSD(T)/CEP-31G
 ------------------

 ------------
 H2O_H2O_1437
 ------------
 Symbolic Z-matrix:
 Charge =  0 Multiplicity = 1

                         Standard orientation:
 ---------------------------------------------------------------------
 Center     Atomic      Atomic             Coordinates (Angstroms)
 Number     Number       Type             X           Y           Z
 ---------------------------------------------------------------------
      1          8           0        0.056043    1.680294   -0.000000
      2          1           0        0.054071    0.697695   -0.000000
      3          1           0       -0.872808    2.000825   -0.000000
      4          8           0        0.056043   -1.501453    0.000000
      5          1           0        0.749452   -2.197650    0.000000
      6          1           0       -0.827405   -1.931600    0.000000
 ---------------------------------------------------------------------

 SCF Done:  E(RHF) =  -33.6609204103     A.U. after   11 cycles
 E2 =    -0.2289166557D+00 EUMP2 =    -0.33889837066037D+02
 CCSD(T)
 CCSD(T)= -0.33906596451D+02

 The electronic state is 1-A'.
 Alpha  occ. eigenvalues --   -1.38074  -1.32264  -0.73723  -0.68178  -0.58547
 Alpha  occ. eigenvalues --   -0.52770  -0.52007  -0.46914
 Alpha virt. eigenvalues --    0.17811   0.25272   0.28471   0.39672   0.76938
 Alpha virt. eigenvalues --    0.80216   0.84530   0.85760   0.91869   0.98490
 Alpha virt. eigenvalues --    1.15048   1.19609   1.21115   1.34376   2.49669

 Mulliken charges:
               1
     1  O   -0.778828
     2  H    0.424485
     3  H    0.353025
     4  O   -0.782876
     5  H    0.399749
     6  H    0.384445
 Sum of Mulliken charges =  -0.00000

 Dipole moment (field-independent basis, Debye):
    X=             -2.4902    Y=             -4.5367    Z=              0.0000  Tot=              5.1752
 Quadrupole moment (field-independent basis, Debye-Ang):
   XX=             -9.5682   YY=             -8.1661   ZZ=            -15.0085
   XY=             -4.3591   XZ=              0.0000   YZ=             -0.0000

 0961\MP4DQ=-33.9008097\MP4SDQ=-33.9029067\CCSD=-33.9039043\CCSD(T)=-33
 Normal termination of Gaussian 16 at Sun Dec 10 06:45:50 2023.
