 Gaussian 16, Revision A.03,
 Gaussian 16:  ES64L-G16RevA.03 25-Dec-2016

 ------------------
 #p CCSD(T)/CEP-31G
 ------------------

 ------------
 H2O_H2O_1247
 ------------
 Symbolic Z-matrix:
 Charge =  0 Multiplicity = 1

                         Standard orientation:
 ---------------------------------------------------------------------
 Center     Atomic      Atomic             Coordinates (Angstroms)
 Number     Number       Type             X           Y           Z
 ---------------------------------------------------------------------
      1          8           0       -0.019977    1.594122    0.000000
      2          1           0       -0.015871    0.611529    0.000000
      3          1           0        0.908176    1.916669    0.000000
      4          8           0       -0.019977   -1.427074    0.000000
      5          1           0       -0.993628   -1.559399    0.000000
      6          1           0        0.420960   -2.305186    0.000000
 ---------------------------------------------------------------------

 SCF Done:  E(RHF) =  -33.6619589515     A.U. after   11 cycles
 E2 =    -0.2287446506D+00 EUMP2 =    -0.33890703602031D+02
 CCSD(T)
 CCSD(T)= -0.33907423162D+02

 The electronic state is 1-A'.
 Alpha  occ. eigenvalues --   -1.38376  -1.32087  -0.74158  -0.68186  -0.58938
 Alpha  occ. eigenvalues --   -0.53068  -0.51811  -0.46776
 Alpha virt. eigenvalues --    0.17721   0.25841   0.28278   0.41533   0.76283
 Alpha virt. eigenvalues --    0.79225   0.85140   0.86421   0.90450   1.06973
 Alpha virt. eigenvalues --    1.16172   1.17580   1.22322   1.36513   2.51182

 Mulliken charges:
               1
     1  O   -0.783434
     2  H    0.418486
     3  H    0.360617
     4  O   -0.796566
     5  H    0.392427
     6  H    0.408470
 Sum of Mulliken charges =   0.00000

 Dipole moment (field-independent basis, Debye):
    X=              0.8946    Y=             -4.3151    Z=              0.0000  Tot=              4.4068
 Quadrupole moment (field-independent basis, Debye-Ang):
   XX=             -9.6437   YY=             -8.5880   ZZ=            -15.0117
   XY=              5.3429   XZ=              0.0000   YZ=              0.0000

 \MP4DQ=-33.9016017\MP4SDQ=-33.9037222\CCSD=-33.9047074\CCSD(T)=-33.907
 Normal termination of Gaussian 16 at Sun Dec 10 06:42:03 2023.
