 Gaussian 16, Revision A.03,
 Gaussian 16:  ES64L-G16RevA.03 25-Dec-2016

 ------------------
 #p CCSD(T)/CEP-31G
 ------------------

 ------------
 H2O_H2O_3055
 ------------
 Symbolic Z-matrix:
 Charge =  0 Multiplicity = 1

                         Standard orientation:
 ---------------------------------------------------------------------
 Center     Atomic      Atomic             Coordinates (Angstroms)
 Number     Number       Type             X           Y           Z
 ---------------------------------------------------------------------
      1          8           0        0.079852    2.317719   -0.000000
      2          1           0        0.079356    1.335117   -0.000000
      3          1           0       -0.849480    2.636855   -0.000000
      4          8           0        0.079852   -2.158658    0.000000
      5          1           0        0.395230   -3.089273    0.000000
      6          1           0       -0.902743   -2.155182    0.000000
 ---------------------------------------------------------------------

 SCF Done:  E(RHF) =  -33.6535958470     A.U. after   11 cycles
 E2 =    -0.2283801869D+00 EUMP2 =    -0.33881976033944D+02
 CCSD(T)
 CCSD(T)= -0.33898932196D+02

 The electronic state is 1-A'.
 Alpha  occ. eigenvalues --   -1.36735  -1.34459  -0.72398  -0.70058  -0.56580
 Alpha  occ. eigenvalues --   -0.54224  -0.51328  -0.49047
 Alpha virt. eigenvalues --    0.18422   0.21962   0.29334   0.31909   0.79248
 Alpha virt. eigenvalues --    0.81468   0.82459   0.84494   0.85340   0.87872
 Alpha virt. eigenvalues --    1.16139   1.18852   1.20634   1.25544   2.56225

 Mulliken charges:
               1
     1  O   -0.748404
     2  H    0.383937
     3  H    0.363916
     4  O   -0.748061
     5  H    0.378997
     6  H    0.369615
 Sum of Mulliken charges =  -0.00000

 Dipole moment (field-independent basis, Debye):
    X=             -3.6498    Y=             -3.7983    Z=              0.0000  Tot=              5.2676
 Quadrupole moment (field-independent basis, Debye-Ang):
   XX=            -10.4834   YY=             -7.7467   ZZ=            -14.9916
   XY=             -3.6867   XZ=              0.0000   YZ=             -0.0000

 48\MP4DQ=-33.8932811\MP4SDQ=-33.895319\CCSD=-33.8963625\CCSD(T)=-33.89
 Normal termination of Gaussian 16 at Sun Dec 10 06:28:03 2023.
