 Gaussian 16, Revision A.03,
 Gaussian 16:  ES64L-G16RevA.03 25-Dec-2016

 ------------------
 #p CCSD(T)/CEP-31G
 ------------------

 ------------
 H2O_H2O_2050
 ------------
 Symbolic Z-matrix:
 Charge =  0 Multiplicity = 1

                         Standard orientation:
 ---------------------------------------------------------------------
 Center     Atomic      Atomic             Coordinates (Angstroms)
 Number     Number       Type             X           Y           Z
 ---------------------------------------------------------------------
      1          8           0        0.092949   -1.904570    0.000000
      2          1           0        0.092949   -0.921969    0.000000
      3          1           0       -0.836544   -2.223237    0.000000
      4          8           0        0.092949    1.771783    0.000000
      5          1           0        0.092949    2.754385    0.000000
      6          1           0       -0.836544    1.453116    0.000000
 ---------------------------------------------------------------------

 SCF Done:  E(RHF) =  -33.6528078792     A.U. after   11 cycles
 E2 =    -0.2287973292D+00 EUMP2 =    -0.33881605208387D+02
 CCSD(T)
 CCSD(T)= -0.33898651574D+02

 The electronic state is 1-A'.
 Alpha  occ. eigenvalues --   -1.37457  -1.34565  -0.73243  -0.70080  -0.57291
 Alpha  occ. eigenvalues --   -0.54260  -0.52019  -0.49119
 Alpha virt. eigenvalues --    0.16542   0.23418   0.28696   0.33713   0.78259
 Alpha virt. eigenvalues --    0.81801   0.82569   0.84394   0.87806   0.92713
 Alpha virt. eigenvalues --    1.15373   1.18304   1.20796   1.36130   2.54829

 Mulliken charges:
               1
     1  O   -0.747889
     2  H    0.386575
     3  H    0.359350
     4  O   -0.747768
     5  H    0.386090
     6  H    0.363641
 Sum of Mulliken charges =   0.00000

 Dipole moment (field-independent basis, Debye):
    X=             -4.2174    Y=              3.2661    Z=              0.0000  Tot=              5.3342
 Quadrupole moment (field-independent basis, Debye-Ang):
   XX=            -11.3150   YY=             -9.5605   ZZ=            -14.9873
   XY=              2.2800   XZ=              0.0000   YZ=              0.0000

 1704\MP4DQ=-33.8928977\MP4SDQ=-33.894998\CCSD=-33.8960238\CCSD(T)=-33.
 Normal termination of Gaussian 16 at Sun Dec 10 06:57:35 2023.
