 Gaussian 16, Revision A.03,
 Gaussian 16:  ES64L-G16RevA.03 25-Dec-2016

 ------------------
 #p CCSD(T)/CEP-31G
 ------------------

 ----------
 H2O_H2O_72
 ----------
 Symbolic Z-matrix:
 Charge =  0 Multiplicity = 1

                         Standard orientation:
 ---------------------------------------------------------------------
 Center     Atomic      Atomic             Coordinates (Angstroms)
 Number     Number       Type             X           Y           Z
 ---------------------------------------------------------------------
      1          8           0        0.020134   -1.125409    0.000000
      2          1           0        0.014182   -0.142826    0.000000
      3          1           0       -0.907411   -1.449701    0.000000
      4          8           0        0.020134    0.958437    0.000000
      5          1           0        0.993535    1.092591    0.000000
      6          1           0       -0.422452    1.835718    0.000000
 ---------------------------------------------------------------------

 SCF Done:  E(RHF) =  -33.5915882448     A.U. after   11 cycles
 E2 =    -0.2267407778D+00 EUMP2 =    -0.33818329022587D+02
 CCSD(T)
 CCSD(T)= -0.33832954025D+02

 The electronic state is 1-A'.
 Alpha  occ. eigenvalues --   -1.46362  -1.26795  -0.83291  -0.75014  -0.59047
 Alpha  occ. eigenvalues --   -0.55363  -0.43614  -0.40837
 Alpha virt. eigenvalues --    0.16684   0.24443   0.30402   0.62317   0.73306
 Alpha virt. eigenvalues --    0.74132   0.89673   0.91838   0.92510   1.03959
 Alpha virt. eigenvalues --    1.12040   1.19685   1.31027   1.43506   2.99803

 Mulliken charges:
               1
     1  O   -0.738715
     2  H    0.252526
     3  H    0.322552
     4  O   -0.771298
     5  H    0.441818
     6  H    0.493117
 Sum of Mulliken charges =  -0.00000

 Dipole moment (field-independent basis, Debye):
    X=             -0.8522    Y=              5.4900    Z=              0.0000  Tot=              5.5558
 Quadrupole moment (field-independent basis, Debye-Ang):
   XX=             -9.5037   YY=            -10.5794   ZZ=            -14.9173
   XY=              3.5723   XZ=              0.0000   YZ=              0.0000

 MP4DQ=-33.8267723\MP4SDQ=-33.8291284\CCSD=-33.8297481\CCSD(T)=-33.8329
 Normal termination of Gaussian 16 at Sun Dec 10 06:19:27 2023.
