 Gaussian 16, Revision A.03,
 Gaussian 16:  ES64L-G16RevA.03 25-Dec-2016

 ------------------
 #p CCSD(T)/CEP-31G
 ------------------

 ------------
 H2O_H2O_2659
 ------------
 Symbolic Z-matrix:
 Charge =  0 Multiplicity = 1

                         Standard orientation:
 ---------------------------------------------------------------------
 Center     Atomic      Atomic             Coordinates (Angstroms)
 Number     Number       Type             X           Y           Z
 ---------------------------------------------------------------------
      1          8           0        0.066768    2.165791    0.000000
      2          1           0        0.065699    1.183191    0.000000
      3          1           0       -0.862378    2.485469    0.000000
      4          8           0        0.066768   -1.992699   -0.000000
      5          1           0        0.611783   -2.810296   -0.000000
      6          1           0       -0.883392   -2.243103   -0.000000
 ---------------------------------------------------------------------

 SCF Done:  E(RHF) =  -33.6552289026     A.U. after   11 cycles
 E2 =    -0.2284196298D+00 EUMP2 =    -0.33883648532427D+02
 CCSD(T)
 CCSD(T)= -0.33900571403D+02

 The electronic state is 1-A'.
 Alpha  occ. eigenvalues --   -1.36925  -1.33937  -0.72584  -0.69538  -0.56872
 Alpha  occ. eigenvalues --   -0.53738  -0.51542  -0.48548
 Alpha virt. eigenvalues --    0.18354   0.22614   0.29239   0.32750   0.79014
 Alpha virt. eigenvalues --    0.81963   0.83354   0.84931   0.85404   0.88255
 Alpha virt. eigenvalues --    1.16073   1.19472   1.20528   1.28146   2.55153

 Mulliken charges:
               1
     1  O   -0.755172
     2  H    0.391272
     3  H    0.362580
     4  O   -0.752609
     5  H    0.381162
     6  H    0.372765
 Sum of Mulliken charges =   0.00000

 Dipole moment (field-independent basis, Debye):
    X=             -3.0392    Y=             -4.1735    Z=             -0.0000  Tot=              5.1628
 Quadrupole moment (field-independent basis, Debye-Ang):
   XX=             -9.8975   YY=             -7.1633   ZZ=            -14.9951
   XY=             -4.5417   XZ=             -0.0000   YZ=              0.0000

 569\MP4DQ=-33.8949075\MP4SDQ=-33.8969583\CCSD=-33.8979932\CCSD(T)=-33.
 Normal termination of Gaussian 16 at Sun Dec 10 06:20:52 2023.
