 Gaussian 16, Revision A.03,
 Gaussian 16:  ES64L-G16RevA.03 25-Dec-2016

 ------------------
 #p CCSD(T)/CEP-31G
 ------------------

 ------------
 H2O_H2O_3374
 ------------
 Symbolic Z-matrix:
 Charge =  0 Multiplicity = 1

                         Standard orientation:
 ---------------------------------------------------------------------
 Center     Atomic      Atomic             Coordinates (Angstroms)
 Number     Number       Type             X           Y           Z
 ---------------------------------------------------------------------
      1          8           0       -0.013510    2.437502    0.000000
      2          1           0       -0.010651    1.454905    0.000000
      3          1           0        0.915052    2.758871    0.000000
      4          8           0       -0.013510   -2.278237    0.000000
      5          1           0       -0.996107   -2.281096    0.000000
      6          1           0        0.307860   -3.206800    0.000000
 ---------------------------------------------------------------------

 SCF Done:  E(RHF) =  -33.6545598083     A.U. after   11 cycles
 E2 =    -0.2282768998D+00 EUMP2 =    -0.33882836708087D+02
 CCSD(T)
 CCSD(T)= -0.33899763676D+02

 The electronic state is 1-A'.
 Alpha  occ. eigenvalues --   -1.36544  -1.34490  -0.72194  -0.70135  -0.56435
 Alpha  occ. eigenvalues --   -0.54317  -0.51154  -0.49109
 Alpha virt. eigenvalues --    0.18924   0.21777   0.29599   0.31836   0.79408
 Alpha virt. eigenvalues --    0.81389   0.82240   0.84279   0.85479   0.87553
 Alpha virt. eigenvalues --    1.16418   1.18747   1.20860   1.24230   2.56418

 Mulliken charges:
               1
     1  O   -0.751983
     2  H    0.381868
     3  H    0.369825
     4  O   -0.751136
     5  H    0.375015
     6  H    0.376410
 Sum of Mulliken charges =   0.00000

 Dipole moment (field-independent basis, Debye):
    X=              0.6169    Y=             -3.7721    Z=              0.0000  Tot=              3.8222
 Quadrupole moment (field-independent basis, Debye-Ang):
   XX=             -9.8720   YY=             -7.5428   ZZ=            -14.9939
   XY=              8.8137   XZ=              0.0000   YZ=              0.0000

 73\MP4DQ=-33.8941293\MP4SDQ=-33.8961573\CCSD=-33.8972029\CCSD(T)=-33.8
 Normal termination of Gaussian 16 at Sun Dec 10 06:33:47 2023.
