 Gaussian 16, Revision A.03,
 Gaussian 16:  ES64L-G16RevA.03 25-Dec-2016

 ------------------
 #p CCSD(T)/CEP-31G
 ------------------

 -----------
 H2O_H2O_869
 -----------
 Symbolic Z-matrix:
 Charge =  0 Multiplicity = 1

                         Standard orientation:
 ---------------------------------------------------------------------
 Center     Atomic      Atomic             Coordinates (Angstroms)
 Number     Number       Type             X           Y           Z
 ---------------------------------------------------------------------
      1          8           0        0.030328    1.449140   -0.000000
      2          1           0        0.026415    0.466546   -0.000000
      3          1           0       -0.897889    1.771505   -0.000000
      4          8           0        0.030328   -1.273628    0.000000
      5          1           0        0.959518   -1.593178    0.000000
      6          1           0       -0.573295   -2.048964    0.000000
 ---------------------------------------------------------------------

 SCF Done:  E(RHF) =  -33.6624306582     A.U. after   11 cycles
 E2 =    -0.2288769883D+00 EUMP2 =    -0.33891307646434D+02
 CCSD(T)
 CCSD(T)= -0.33907596194D+02

 The electronic state is 1-A'.
 Alpha  occ. eigenvalues --   -1.39390  -1.30732  -0.75040  -0.68547  -0.59404
 Alpha  occ. eigenvalues --   -0.54106  -0.50144  -0.45368
 Alpha virt. eigenvalues --    0.17546   0.27049   0.27674   0.47696   0.75016
 Alpha virt. eigenvalues --    0.76559   0.86118   0.87217   0.94212   1.02804
 Alpha virt. eigenvalues --    1.15993   1.18459   1.23613   1.36803   2.56156

 Mulliken charges:
               1
     1  O   -0.785071
     2  H    0.428820
     3  H    0.349407
     4  O   -0.821183
     5  H    0.406550
     6  H    0.421477
 Sum of Mulliken charges =  -0.00000

 Dipole moment (field-independent basis, Debye):
    X=             -1.3415    Y=             -4.7068    Z=              0.0000  Tot=              4.8942
 Quadrupole moment (field-independent basis, Debye-Ang):
   XX=             -9.4131   YY=             -9.0151   ZZ=            -15.0191
   XY=             -4.4648   XZ=              0.0000   YZ=             -0.0000

 492\MP4DQ=-33.9017212\MP4SDQ=-33.9038522\CCSD=-33.9047637\CCSD(T)=-33.
 Normal termination of Gaussian 16 at Sun Dec 10 06:34:51 2023.
