 Gaussian 16, Revision A.03,
 Gaussian 16:  ES64L-G16RevA.03 25-Dec-2016

 ------------------
 #p CCSD(T)/CEP-31G
 ------------------

 ------------
 H2O_H2O_1650
 ------------
 Symbolic Z-matrix:
 Charge =  0 Multiplicity = 1

                         Standard orientation:
 ---------------------------------------------------------------------
 Center     Atomic      Atomic             Coordinates (Angstroms)
 Number     Number       Type             X           Y           Z
 ---------------------------------------------------------------------
      1          8           0        0.092949   -1.745019    0.000000
      2          1           0        0.092949   -0.762418    0.000000
      3          1           0       -0.836544   -2.063686    0.000000
      4          8           0        0.092949    1.612232    0.000000
      5          1           0        0.092950    2.594834    0.000000
      6          1           0       -0.836544    1.293565    0.000000
 ---------------------------------------------------------------------

 SCF Done:  E(RHF) =  -33.6528243972     A.U. after   11 cycles
 E2 =    -0.2290578164D+00 EUMP2 =    -0.33881882213551D+02
 CCSD(T)
 CCSD(T)= -0.33898958413D+02

 The electronic state is 1-A'.
 Alpha  occ. eigenvalues --   -1.37927  -1.34296  -0.73870  -0.69732  -0.57795
 Alpha  occ. eigenvalues --   -0.53953  -0.52471  -0.48835
 Alpha virt. eigenvalues --    0.16517   0.24087   0.28341   0.35995   0.77327
 Alpha virt. eigenvalues --    0.81839   0.82660   0.84509   0.88335   1.01370
 Alpha virt. eigenvalues --    1.15539   1.17402   1.21538   1.39466   2.52535

 Mulliken charges:
               1
     1  O   -0.749424
     2  H    0.389670
     3  H    0.355710
     4  O   -0.752081
     5  H    0.393341
     6  H    0.362784
 Sum of Mulliken charges =   0.00000

 Dipole moment (field-independent basis, Debye):
    X=             -4.1915    Y=              3.3410    Z=              0.0000  Tot=              5.3601
 Quadrupole moment (field-independent basis, Debye-Ang):
   XX=            -11.3292   YY=             -9.5633   ZZ=            -14.9870
   XY=              2.2673   XZ=              0.0000   YZ=              0.0000

 4149\MP4DQ=-33.8931263\MP4SDQ=-33.8952729\CCSD=-33.8962838\CCSD(T)=-33
 Normal termination of Gaussian 16 at Sun Dec 10 06:50:03 2023.
