 Gaussian 16, Revision A.03,
 Gaussian 16:  ES64L-G16RevA.03 25-Dec-2016

 ------------------
 #p CCSD(T)/CEP-31G
 ------------------

 ------------
 H2O_H2O_4263
 ------------
 Symbolic Z-matrix:
 Charge =  0 Multiplicity = 1

                         Standard orientation:
 ---------------------------------------------------------------------
 Center     Atomic      Atomic             Coordinates (Angstroms)
 Number     Number       Type             X           Y           Z
 ---------------------------------------------------------------------
      1          8           0        0.052275    2.807702   -0.000000
      2          1           0        0.051005    1.825102   -0.000000
      3          1           0       -0.876805    3.127570    0.000000
      4          8           0        0.052275   -2.627785   -0.000000
      5          1           0        0.790197   -3.276613   -0.000000
      6          1           0       -0.800800   -3.115400    0.000000
 ---------------------------------------------------------------------

 SCF Done:  E(RHF) =  -33.6534188437     A.U. after   11 cycles
 E2 =    -0.2282990664D+00 EUMP2 =    -0.33881717910019D+02
 CCSD(T)
 CCSD(T)= -0.33898671830D+02

 The electronic state is 1-A'.
 Alpha  occ. eigenvalues --   -1.36308  -1.34594  -0.71949  -0.70221  -0.56138
 Alpha  occ. eigenvalues --   -0.54379  -0.50904  -0.49191
 Alpha virt. eigenvalues --    0.19523   0.21332   0.29800   0.31609   0.79651
 Alpha virt. eigenvalues --    0.81323   0.82477   0.84323   0.85683   0.87446
 Alpha virt. eigenvalues --    1.16664   1.18384   1.21105   1.22926   2.56627

 Mulliken charges:
               1
     1  O   -0.747490
     2  H    0.379844
     3  H    0.367618
     4  O   -0.746914
     5  H    0.374936
     6  H    0.372006
 Sum of Mulliken charges =  -0.00000

 Dipole moment (field-independent basis, Debye):
    X=             -2.3993    Y=             -4.2273    Z=              0.0000  Tot=              4.8608
 Quadrupole moment (field-independent basis, Debye-Ang):
   XX=             -9.5146   YY=             -5.3644   ZZ=            -14.9919
   XY=             -6.6250   XZ=             -0.0000   YZ=              0.0000

 2912\MP4DQ=-33.8930388\MP4SDQ=-33.8950628\CCSD=-33.8961144\CCSD(T)=-33
 Normal termination of Gaussian 16 at Sun Dec 10 06:49:44 2023.
