 Gaussian 16, Revision A.03,
 Gaussian 16:  ES64L-G16RevA.03 25-Dec-2016

 ------------------
 #p CCSD(T)/CEP-31G
 ------------------

 ------------
 H2O_H2O_4754
 ------------
 Symbolic Z-matrix:
 Charge =  0 Multiplicity = 1

                         Standard orientation:
 ---------------------------------------------------------------------
 Center     Atomic      Atomic             Coordinates (Angstroms)
 Number     Number       Type             X           Y           Z
 ---------------------------------------------------------------------
      1          8           0        0.082797    2.993350    0.000000
      2          1           0        0.082502    2.010748    0.000000
      3          1           0       -0.846600    3.312295    0.000000
      4          8           0        0.082797   -2.838818   -0.000000
      5          1           0        0.336828   -3.788014   -0.000000
      6          1           0       -0.897482   -2.771285   -0.000000
 ---------------------------------------------------------------------

 SCF Done:  E(RHF) =  -33.6523716174     A.U. after   11 cycles
 E2 =    -0.2283422244D+00 EUMP2 =    -0.33880713841772D+02
 CCSD(T)
 CCSD(T)= -0.33897698344D+02

 The electronic state is 1-A'.
 Alpha  occ. eigenvalues --   -1.36240  -1.35007  -0.71884  -0.70628  -0.56011
 Alpha  occ. eigenvalues --   -0.54754  -0.50819  -0.49585
 Alpha virt. eigenvalues --    0.19540   0.20843   0.29809   0.31093   0.79739
 Alpha virt. eigenvalues --    0.80951   0.82687   0.83962   0.85781   0.87116
 Alpha virt. eigenvalues --    1.16687   1.17919   1.21138   1.22415   2.56672

 Mulliken charges:
               1
     1  O   -0.743443
     2  H    0.375856
     3  H    0.367584
     4  O   -0.743557
     5  H    0.374231
     6  H    0.369329
 Sum of Mulliken charges =  -0.00000

 Dipole moment (field-independent basis, Debye):
    X=             -3.8098    Y=             -3.6217    Z=             -0.0000  Tot=              5.2565
 Quadrupole moment (field-independent basis, Debye-Ang):
   XX=            -10.6359   YY=             -7.3759   ZZ=            -14.9895
   XY=             -3.7409   XZ=             -0.0000   YZ=              0.0000

 48\MP4DQ=-33.8920578\MP4SDQ=-33.894084\CCSD=-33.8951382\CCSD(T)=-33.89
 Normal termination of Gaussian 16 at Sun Dec 10 06:58:35 2023.
