 Gaussian 16, Revision A.03,
 Gaussian 16:  ES64L-G16RevA.03 25-Dec-2016

 ------------------
 #p CCSD(T)/CEP-31G
 ------------------

 ------------
 H2O_H2O_2872
 ------------
 Symbolic Z-matrix:
 Charge =  0 Multiplicity = 1

                         Standard orientation:
 ---------------------------------------------------------------------
 Center     Atomic      Atomic             Coordinates (Angstroms)
 Number     Number       Type             X           Y           Z
 ---------------------------------------------------------------------
      1          8           0       -0.019872    2.242319    0.000000
      2          1           0       -0.016999    1.259722    0.000000
      3          1           0        0.908685    2.563702    0.000000
      4          8           0       -0.019872   -2.075221    0.000000
      5          1           0       -0.993689   -2.206323    0.000000
      6          1           0        0.419962   -2.953884    0.000000
 ---------------------------------------------------------------------

 SCF Done:  E(RHF) =  -33.6556886664     A.U. after   11 cycles
 E2 =    -0.2283216562D+00 EUMP2 =    -0.33884010322545D+02
 CCSD(T)
 CCSD(T)= -0.33900915073D+02

 The electronic state is 1-A'.
 Alpha  occ. eigenvalues --   -1.36762  -1.34103  -0.72414  -0.69745  -0.56723
 Alpha  occ. eigenvalues --   -0.53951  -0.51387  -0.48736
 Alpha virt. eigenvalues --    0.18535   0.22409   0.29429   0.32438   0.79172
 Alpha virt. eigenvalues --    0.81753   0.82712   0.84432   0.85793   0.87824
 Alpha virt. eigenvalues --    1.16243   1.19339   1.20689   1.26865   2.55932

 Mulliken charges:
               1
     1  O   -0.756720
     2  H    0.387477
     3  H    0.368324
     4  O   -0.754284
     5  H    0.377348
     6  H    0.377854
 Sum of Mulliken charges =   0.00000

 Dipole moment (field-independent basis, Debye):
    X=              0.9032    Y=             -3.9982    Z=              0.0000  Tot=              4.0989
 Quadrupole moment (field-independent basis, Debye-Ang):
   XX=             -9.6719   YY=             -7.3218   ZZ=            -14.9961
   XY=              7.6000   XZ=              0.0000   YZ=              0.0000

 134\MP4DQ=-33.8952685\MP4SDQ=-33.8973088\CCSD=-33.898346\CCSD(T)=-33.9
 Normal termination of Gaussian 16 at Sun Dec 10 06:24:41 2023.
