 Gaussian 16, Revision A.03,
 Gaussian 16:  ES64L-G16RevA.03 25-Dec-2016

 ------------------
 #p CCSD(T)/CEP-31G
 ------------------

 ------------
 H2O_H2O_4872
 ------------
 Symbolic Z-matrix:
 Charge =  0 Multiplicity = 1

                         Standard orientation:
 ---------------------------------------------------------------------
 Center     Atomic      Atomic             Coordinates (Angstroms)
 Number     Number       Type             X           Y           Z
 ---------------------------------------------------------------------
      1          8           0       -0.019806    3.040086    0.000000
      2          1           0       -0.017709    2.057487    0.000000
      3          1           0        0.909004    3.360736    0.000000
      4          8           0       -0.019806   -2.872957    0.000000
      5          1           0       -0.993727   -3.003291    0.000000
      6          1           0        0.419334   -3.751968    0.000000
 ---------------------------------------------------------------------

 SCF Done:  E(RHF) =  -33.6531750089     A.U. after   11 cycles
 E2 =    -0.2282997840D+00 EUMP2 =    -0.33881474792856D+02
 CCSD(T)
 CCSD(T)= -0.33898436866D+02

 The electronic state is 1-A'.
 Alpha  occ. eigenvalues --   -1.36184  -1.34862  -0.71824  -0.70500  -0.55996
 Alpha  occ. eigenvalues --   -0.54647  -0.50777  -0.49458
 Alpha virt. eigenvalues --    0.19660   0.21014   0.29914   0.31288   0.79773
 Alpha virt. eigenvalues --    0.81065   0.82660   0.84051   0.85817   0.87145
 Alpha virt. eigenvalues --    1.16778   1.18102   1.21222   1.22580   2.56753

 Mulliken charges:
               1
     1  O   -0.746504
     2  H    0.376597
     3  H    0.369905
     4  O   -0.746148
     5  H    0.373062
     6  H    0.373088
 Sum of Mulliken charges =  -0.00000

 Dipole moment (field-independent basis, Debye):
    X=              0.9104    Y=             -3.9093    Z=              0.0000  Tot=              4.0139
 Quadrupole moment (field-independent basis, Debye-Ang):
   XX=             -9.6814   YY=             -6.0308   ZZ=            -14.9913
   XY=             10.3048   XZ=              0.0000   YZ=              0.0000

 56\MP4DQ=-33.8928025\MP4SDQ=-33.8948265\CCSD=-33.8958795\CCSD(T)=-33.8
 Normal termination of Gaussian 16 at Sun Dec 10 07:00:58 2023.
