 Gaussian 16, Revision A.03,
 Gaussian 16:  ES64L-G16RevA.03 25-Dec-2016

 ------------------
 #p CCSD(T)/CEP-31G
 ------------------

 ------------
 H2O_H2O_4450
 ------------
 Symbolic Z-matrix:
 Charge =  0 Multiplicity = 1

                         Standard orientation:
 ---------------------------------------------------------------------
 Center     Atomic      Atomic             Coordinates (Angstroms)
 Number     Number       Type             X           Y           Z
 ---------------------------------------------------------------------
      1          8           0        0.092949   -2.861876    0.000000
      2          1           0        0.092949   -1.879274    0.000000
      3          1           0       -0.836544   -3.180542    0.000000
      4          8           0        0.092949    2.729089    0.000000
      5          1           0        0.092949    3.711690    0.000000
      6          1           0       -0.836544    2.410421    0.000000
 ---------------------------------------------------------------------

 SCF Done:  E(RHF) =  -33.6519697541     A.U. after   11 cycles
 E2 =    -0.2283638254D+00 EUMP2 =    -0.33880333579486D+02
 CCSD(T)
 CCSD(T)= -0.33897330972D+02

 The electronic state is 1-A'.
 Alpha  occ. eigenvalues --   -1.36318  -1.35187  -0.71966  -0.70804  -0.56070
 Alpha  occ. eigenvalues --   -0.54919  -0.50890  -0.49757
 Alpha virt. eigenvalues --    0.19345   0.20710   0.29699   0.30892   0.79675
 Alpha virt. eigenvalues --    0.80787   0.82643   0.83808   0.85698   0.86996
 Alpha virt. eigenvalues --    1.16567   1.17742   1.21036   1.22262   2.56367

 Mulliken charges:
               1
     1  O   -0.741901
     2  H    0.374548
     3  H    0.367347
     4  O   -0.742248
     5  H    0.374530
     6  H    0.367723
 Sum of Mulliken charges =   0.00000

 Dipole moment (field-independent basis, Debye):
    X=             -4.2761    Y=              3.1184    Z=              0.0000  Tot=              5.2924
 Quadrupole moment (field-independent basis, Debye-Ang):
   XX=            -11.2815   YY=             -9.6376   ZZ=            -14.9883
   XY=              2.3078   XZ=              0.0000   YZ=              0.0000

 56\MP4DQ=-33.8916865\MP4SDQ=-33.8937141\CCSD=-33.8947688\CCSD(T)=-33.8
 Normal termination of Gaussian 16 at Sun Dec 10 06:53:06 2023.
