 Gaussian 16, Revision A.03,
 Gaussian 16:  ES64L-G16RevA.03 25-Dec-2016

 ------------------
 #p CCSD(T)/CEP-31G
 ------------------

 ------------
 H2O_H2O_3718
 ------------
 Symbolic Z-matrix:
 Charge =  0 Multiplicity = 1

                         Standard orientation:
 ---------------------------------------------------------------------
 Center     Atomic      Atomic             Coordinates (Angstroms)
 Number     Number       Type             X           Y           Z
 ---------------------------------------------------------------------
      1          8           0        0.033772    2.587030    0.000000
      2          1           0        0.031762    1.604431    0.000000
      3          1           0       -0.895068    2.907597    0.000000
      4          8           0        0.033772   -2.409493   -0.000000
      5          1           0        0.940806   -2.787374   -0.000000
      6          1           0       -0.617846   -3.144952   -0.000000
 ---------------------------------------------------------------------

 SCF Done:  E(RHF) =  -33.6542214436     A.U. after   11 cycles
 E2 =    -0.2282796351D+00 EUMP2 =    -0.33882501078649D+02
 CCSD(T)
 CCSD(T)= -0.33899432951D+02

 The electronic state is 1-A'.
 Alpha  occ. eigenvalues --   -1.36437  -1.34400  -0.72079  -0.70032  -0.56312
 Alpha  occ. eigenvalues --   -0.54211  -0.51044  -0.49010
 Alpha virt. eigenvalues --    0.19341   0.21634   0.29707   0.31877   0.79515
 Alpha virt. eigenvalues --    0.81488   0.82262   0.84484   0.85531   0.87609
 Alpha virt. eigenvalues --    1.16568   1.18666   1.20985   1.23463   2.56525

 Mulliken charges:
               1
     1  O   -0.750595
     2  H    0.382452
     3  H    0.367992
     4  O   -0.749529
     5  H    0.375587
     6  H    0.374094
 Sum of Mulliken charges =   0.00000

 Dipole moment (field-independent basis, Debye):
    X=             -1.5456    Y=             -4.1908    Z=             -0.0000  Tot=              4.4667
 Quadrupole moment (field-independent basis, Debye-Ang):
   XX=             -9.4347   YY=             -6.0155   ZZ=            -14.9935
   XY=             -7.6138   XZ=             -0.0000   YZ=              0.0000

 0514\MP4DQ=-33.8938025\MP4SDQ=-33.8958273\CCSD=-33.8968754\CCSD(T)=-33
 Normal termination of Gaussian 16 at Sun Dec 10 06:39:54 2023.
