 Gaussian 16, Revision A.03,
 Gaussian 16:  ES64L-G16RevA.03 25-Dec-2016

 ------------------
 #p CCSD(T)/CEP-31G
 ------------------

 ---------
 H2O_H2O_2
 ---------
 Symbolic Z-matrix:
 Charge =  0 Multiplicity = 1

                         Standard orientation:
 ---------------------------------------------------------------------
 Center     Atomic      Atomic             Coordinates (Angstroms)
 Number     Number       Type             X           Y           Z
 ---------------------------------------------------------------------
      1          8           0        0.088247   -1.093116    0.000000
      2          1           0        0.087856   -0.110515    0.000000
      3          1           0       -0.841118   -1.412153    0.000000
      4          8           0        0.088247    0.948835    0.000000
      5          1           0        0.216114    1.923082    0.000000
      6          1           0       -0.874810    0.753834    0.000000
 ---------------------------------------------------------------------

 SCF Done:  E(RHF) =  -33.5491864743     A.U. after   11 cycles
 E2 =    -0.2279397189D+00 EUMP2 =    -0.33777126193228D+02
 CCSD(T)
 CCSD(T)= -0.33792222494D+02

 The electronic state is 1-A'.
 Alpha  occ. eigenvalues --   -1.48852  -1.28501  -0.86779  -0.73132  -0.59788
 Alpha  occ. eigenvalues --   -0.55183  -0.45736  -0.42418
 Alpha virt. eigenvalues --    0.15768   0.22245   0.30555   0.60976   0.72910
 Alpha virt. eigenvalues --    0.75274   0.90869   0.91059   0.96919   1.07960
 Alpha virt. eigenvalues --    1.10246   1.20445   1.28664   1.52784   3.08347

 Mulliken charges:
               1
     1  O   -0.653502
     2  H    0.139883
     3  H    0.295093
     4  O   -0.679519
     5  H    0.506271
     6  H    0.391775
 Sum of Mulliken charges =  -0.00000

 Dipole moment (field-independent basis, Debye):
    X=             -3.5886    Y=              5.0244    Z=              0.0000  Tot=              6.1744
 Quadrupole moment (field-independent basis, Debye-Ang):
   XX=            -10.9690   YY=            -10.7071   ZZ=            -14.8513
   XY=              2.3511   XZ=              0.0000   YZ=              0.0000

 3\MP4DQ=-33.7856364\MP4SDQ=-33.7883109\CCSD=-33.7888904\CCSD(T)=-33.79
 Normal termination of Gaussian 16 at Sun Dec 10 06:18:03 2023.
