 Gaussian 16, Revision A.03,
 Gaussian 16:  ES64L-G16RevA.03 25-Dec-2016

 ------------------
 #p CCSD(T)/CEP-31G
 ------------------

 ------------
 H2O_H2O_3576
 ------------
 Symbolic Z-matrix:
 Charge =  0 Multiplicity = 1

                         Standard orientation:
 ---------------------------------------------------------------------
 Center     Atomic      Atomic             Coordinates (Angstroms)
 Number     Number       Type             X           Y           Z
 ---------------------------------------------------------------------
      1          8           0        0.090684   -2.516075    0.000000
      2          1           0        0.090605   -1.533473    0.000000
      3          1           0       -0.838783   -2.834815    0.000000
      4          8           0        0.090684    2.377365    0.000000
      5          1           0        0.154872    3.357868    0.000000
      6          1           0       -0.857639    2.120097    0.000000
 ---------------------------------------------------------------------

 SCF Done:  E(RHF) =  -33.6523131278     A.U. after   11 cycles
 E2 =    -0.2283696425D+00 EUMP2 =    -0.33880682770332D+02
 CCSD(T)
 CCSD(T)= -0.33897671712D+02

 The electronic state is 1-A'.
 Alpha  occ. eigenvalues --   -1.36550  -1.34966  -0.72209  -0.70572  -0.56324
 Alpha  occ. eigenvalues --   -0.54702  -0.51125  -0.49538
 Alpha virt. eigenvalues --    0.18644   0.21324   0.29500   0.31210   0.79451
 Alpha virt. eigenvalues --    0.80998   0.82351   0.83999   0.85414   0.87377
 Alpha virt. eigenvalues --    1.16196   1.18172   1.20828   1.23229   2.55838

 Mulliken charges:
               1
     1  O   -0.743275
     2  H    0.377492
     3  H    0.365674
     4  O   -0.743856
     5  H    0.376723
     6  H    0.367242
 Sum of Mulliken charges =  -0.00000

 Dipole moment (field-independent basis, Debye):
    X=             -4.1594    Y=              3.2836    Z=              0.0000  Tot=              5.2993
 Quadrupole moment (field-independent basis, Debye-Ang):
   XX=            -11.1328   YY=             -9.1169   ZZ=            -14.9887
   XY=              2.6032   XZ=              0.0000   YZ=              0.0000

 835\MP4DQ=-33.8920251\MP4SDQ=-33.8940551\CCSD=-33.8951066\CCSD(T)=-33.
 Normal termination of Gaussian 16 at Sun Dec 10 06:37:21 2023.
