 Gaussian 16, Revision A.03,
 Gaussian 16:  ES64L-G16RevA.03 25-Dec-2016

 ------------------
 #p CCSD(T)/CEP-31G
 ------------------

 ------------
 H2O_H2O_1062
 ------------
 Symbolic Z-matrix:
 Charge =  0 Multiplicity = 1

                         Standard orientation:
 ---------------------------------------------------------------------
 Center     Atomic      Atomic             Coordinates (Angstroms)
 Number     Number       Type             X           Y           Z
 ---------------------------------------------------------------------
      1          8           0        0.056062    1.530704    0.000000
      2          1           0        0.053885    0.548105    0.000000
      3          1           0       -0.872723    1.851428    0.000000
      4          8           0        0.056062   -1.351886   -0.000000
      5          1           0        0.749325   -2.048227   -0.000000
      6          1           0       -0.827475   -1.781850   -0.000000
 ---------------------------------------------------------------------

 SCF Done:  E(RHF) =  -33.6621534890     A.U. after   11 cycles
 E2 =    -0.2291073251D+00 EUMP2 =    -0.33891260814102D+02
 CCSD(T)
 CCSD(T)= -0.33907777115D+02

 The electronic state is 1-A'.
 Alpha  occ. eigenvalues --   -1.38844  -1.31388  -0.74453  -0.68196  -0.59186
 Alpha  occ. eigenvalues --   -0.53564  -0.50949  -0.46013
 Alpha virt. eigenvalues --    0.17554   0.26301   0.27966   0.44484   0.75685
 Alpha virt. eigenvalues --    0.77739   0.85460   0.86176   0.94773   1.01522
 Alpha virt. eigenvalues --    1.14929   1.19040   1.22017   1.35384   2.52090

 Mulliken charges:
               1
     1  O   -0.782165
     2  H    0.434650
     3  H    0.346129
     4  O   -0.804988
     5  H    0.413890
     6  H    0.392484
 Sum of Mulliken charges =   0.00000

 Dipole moment (field-independent basis, Debye):
    X=             -2.4512    Y=             -4.6776    Z=             -0.0000  Tot=              5.2810
 Quadrupole moment (field-independent basis, Debye-Ang):
   XX=             -9.5539   YY=             -8.6997   ZZ=            -15.0149
   XY=             -4.0956   XZ=             -0.0000   YZ=              0.0000

 2447\MP4DQ=-33.9019262\MP4SDQ=-33.9040466\CCSD=-33.9049949\CCSD(T)=-33
 Normal termination of Gaussian 16 at Sun Dec 10 06:38:29 2023.
