 Gaussian 16, Revision A.03,
 Gaussian 16:  ES64L-G16RevA.03 25-Dec-2016

 ------------------
 #p CCSD(T)/CEP-31G
 ------------------

 ------------
 H2O_H2O_4863
 ------------
 Symbolic Z-matrix:
 Charge =  0 Multiplicity = 1

                         Standard orientation:
 ---------------------------------------------------------------------
 Center     Atomic      Atomic             Coordinates (Angstroms)
 Number     Number       Type             X           Y           Z
 ---------------------------------------------------------------------
      1          8           0        0.052266    3.047034   -0.000000
      2          1           0        0.051099    2.064433   -0.000000
      3          1           0       -0.876848    3.366804   -0.000000
      4          8           0        0.052266   -2.867105    0.000000
      5          1           0        0.790255   -3.515856    0.000000
      6          1           0       -0.800758   -3.354811    0.000000
 ---------------------------------------------------------------------

 SCF Done:  E(RHF) =  -33.6530193997     A.U. after   11 cycles
 E2 =    -0.2283120843D+00 EUMP2 =    -0.33881331483913D+02
 CCSD(T)
 CCSD(T)= -0.33898296861D+02

 The electronic state is 1-A'.
 Alpha  occ. eigenvalues --   -1.36195  -1.34764  -0.71834  -0.70393  -0.56000
 Alpha  occ. eigenvalues --   -0.54538  -0.50785  -0.49355
 Alpha virt. eigenvalues --    0.19640   0.21113   0.29892   0.31388   0.79767
 Alpha virt. eigenvalues --    0.81168   0.82660   0.84162   0.85823   0.87282
 Alpha virt. eigenvalues --    1.16760   1.18190   1.21206   1.22679   2.56742

 Mulliken charges:
               1
     1  O   -0.745918
     2  H    0.377600
     3  H    0.368315
     4  O   -0.745533
     5  H    0.373954
     6  H    0.371583
 Sum of Mulliken charges =   0.00000

 Dipole moment (field-independent basis, Debye):
    X=             -2.4032    Y=             -4.2121    Z=              0.0000  Tot=              4.8494
 Quadrupole moment (field-independent basis, Debye-Ang):
   XX=             -9.5149   YY=             -4.8263   ZZ=            -14.9911
   XY=             -7.0773   XZ=              0.0000   YZ=             -0.0000

 156\MP4DQ=-33.8926617\MP4SDQ=-33.8946861\CCSD=-33.8957391\CCSD(T)=-33.
 Normal termination of Gaussian 16 at Sun Dec 10 07:00:47 2023.
