 Gaussian 16, Revision A.03,
 Gaussian 16:  ES64L-G16RevA.03 25-Dec-2016

 ------------------
 #p CCSD(T)/CEP-31G
 ------------------

 ------------
 H2O_H2O_2286
 ------------
 Symbolic Z-matrix:
 Charge =  0 Multiplicity = 1

                         Standard orientation:
 ---------------------------------------------------------------------
 Center     Atomic      Atomic             Coordinates (Angstroms)
 Number     Number       Type             X           Y           Z
 ---------------------------------------------------------------------
      1          8           0        0.059660    2.018564    0.000000
      2          1           0        0.058195    1.035964    0.000000
      3          1           0       -0.869357    2.338616    0.000000
      4          8           0        0.059660   -1.841145   -0.000000
      5          1           0        0.706432   -2.580870   -0.000000
      6          1           0       -0.849837   -2.213061   -0.000000
 ---------------------------------------------------------------------

 SCF Done:  E(RHF) =  -33.6567421887     A.U. after   11 cycles
 E2 =    -0.2285068944D+00 EUMP2 =    -0.33885249083120D+02
 CCSD(T)
 CCSD(T)= -0.33902151751D+02

 The electronic state is 1-A'.
 Alpha  occ. eigenvalues --   -1.37164  -1.33506  -0.72821  -0.69117  -0.57231
 Alpha  occ. eigenvalues --   -0.53326  -0.51801  -0.48135
 Alpha virt. eigenvalues --    0.18198   0.23314   0.29111   0.33847   0.78672
 Alpha virt. eigenvalues --    0.82444   0.83681   0.85371   0.87031   0.88672
 Alpha virt. eigenvalues --    1.15884   1.19952   1.20374   1.30933   2.53387

 Mulliken charges:
               1
     1  O   -0.761879
     2  H    0.398896
     3  H    0.360962
     4  O   -0.757370
     5  H    0.384028
     6  H    0.375363
 Sum of Mulliken charges =  -0.00000

 Dipole moment (field-independent basis, Debye):
    X=             -2.7024    Y=             -4.3265    Z=             -0.0000  Tot=              5.1012
 Quadrupole moment (field-independent basis, Debye-Ang):
   XX=             -9.6719   YY=             -7.2790   ZZ=            -14.9982
   XY=             -4.7540   XZ=             -0.0000   YZ=              0.0000

 135\MP4DQ=-33.8964626\MP4SDQ=-33.8985282\CCSD=-33.8995568\CCSD(T)=-33.
 Normal termination of Gaussian 16 at Sun Dec 10 07:03:30 2023.
