 Gaussian 16, Revision A.03,
 Gaussian 16:  ES64L-G16RevA.03 25-Dec-2016

 ------------------
 #p CCSD(T)/CEP-31G
 ------------------

 ------------
 H2O_H2O_2560
 ------------
 Symbolic Z-matrix:
 Charge =  0 Multiplicity = 1

                         Standard orientation:
 ---------------------------------------------------------------------
 Center     Atomic      Atomic             Coordinates (Angstroms)
 Number     Number       Type             X           Y           Z
 ---------------------------------------------------------------------
      1          8           0        0.063247    2.127208   -0.000000
      2          1           0        0.062010    1.144607   -0.000000
      3          1           0       -0.865844    2.447044   -0.000000
      4          8           0        0.063247   -1.951716    0.000000
      5          1           0        0.660435   -2.732018    0.000000
      6          1           0       -0.868555   -2.263568    0.000000
 ---------------------------------------------------------------------

 SCF Done:  E(RHF) =  -33.6556972175     A.U. after   11 cycles
 E2 =    -0.2284351650D+00 EUMP2 =    -0.33884132382433D+02
 CCSD(T)
 CCSD(T)= -0.33901047029D+02

 The electronic state is 1-A'.
 Alpha  occ. eigenvalues --   -1.36981  -1.33803  -0.72638  -0.69407  -0.56961
 Alpha  occ. eigenvalues --   -0.53613  -0.51605  -0.48421
 Alpha virt. eigenvalues --    0.18336   0.22802   0.29221   0.33009   0.78938
 Alpha virt. eigenvalues --    0.82097   0.83672   0.84963   0.85567   0.88351
 Alpha virt. eigenvalues --    1.16041   1.19623   1.20501   1.28823   2.54720

 Mulliken charges:
               1
     1  O   -0.757169
     2  H    0.393347
     3  H    0.362283
     4  O   -0.753905
     5  H    0.381774
     6  H    0.373670
 Sum of Mulliken charges =  -0.00000

 Dipole moment (field-independent basis, Debye):
    X=             -2.8752    Y=             -4.2430    Z=              0.0000  Tot=              5.1254
 Quadrupole moment (field-independent basis, Debye-Ang):
   XX=             -9.7777   YY=             -7.1215   ZZ=            -14.9961
   XY=             -4.7113   XZ=              0.0000   YZ=             -0.0000

 6271\MP4DQ=-33.8953782\MP4SDQ=-33.8974327\CCSD=-33.8984656\CCSD(T)=-33
 Normal termination of Gaussian 16 at Sun Dec 10 06:19:05 2023.
