 Gaussian 16, Revision A.03,
 Gaussian 16:  ES64L-G16RevA.03 25-Dec-2016

 ------------------
 #p CCSD(T)/CEP-31G
 ------------------

 -----------
 H2O_H2O_198
 -----------
 Symbolic Z-matrix:
 Charge =  0 Multiplicity = 1

                         Standard orientation:
 ---------------------------------------------------------------------
 Center     Atomic      Atomic             Coordinates (Angstroms)
 Number     Number       Type             X           Y           Z
 ---------------------------------------------------------------------
      1          8           0        0.016882   -1.173265    0.000000
      2          1           0        0.010949   -0.190682    0.000000
      3          1           0       -0.910670   -1.497538    0.000000
      4          8           0        0.016882    1.009980    0.000000
      5          1           0        0.996974    1.080164    0.000000
      6          1           0       -0.367361    1.914338    0.000000
 ---------------------------------------------------------------------

 SCF Done:  E(RHF) =  -33.6171410629     A.U. after   11 cycles
 E2 =    -0.2272313557D+00 EUMP2 =    -0.33844372418623D+02
 CCSD(T)
 CCSD(T)= -0.33859393822D+02

 The electronic state is 1-A'.
 Alpha  occ. eigenvalues --   -1.44418  -1.27835  -0.81514  -0.72770  -0.57799
 Alpha  occ. eigenvalues --   -0.56926  -0.45458  -0.42096
 Alpha virt. eigenvalues --    0.16971   0.25034   0.29734   0.60545   0.73425
 Alpha virt. eigenvalues --    0.74847   0.89620   0.90933   0.93292   1.03587
 Alpha virt. eigenvalues --    1.13612   1.20237   1.29954   1.41936   2.92321

 Mulliken charges:
               1
     1  O   -0.743688
     2  H    0.303808
     3  H    0.333700
     4  O   -0.813514
     5  H    0.431859
     6  H    0.487835
 Sum of Mulliken charges =   0.00000

 Dipole moment (field-independent basis, Debye):
    X=             -0.7341    Y=              5.1627    Z=              0.0000  Tot=              5.2146
 Quadrupole moment (field-independent basis, Debye-Ang):
   XX=             -9.6327   YY=            -10.2461   ZZ=            -14.9525
   XY=              3.8552   XZ=              0.0000   YZ=              0.0000

 375\MP4DQ=-33.8532723\MP4SDQ=-33.8555801\CCSD=-33.8562725\CCSD(T)=-33.
 Normal termination of Gaussian 16 at Sun Dec 10 06:21:57 2023.
