 Gaussian 16, Revision A.03,
 Gaussian 16:  ES64L-G16RevA.03 25-Dec-2016

 ------------------
 #p CCSD(T)/CEP-31G
 ------------------

 -----------
 H2O_H2O_239
 -----------
 Symbolic Z-matrix:
 Charge =  0 Multiplicity = 1

                         Standard orientation:
 ---------------------------------------------------------------------
 Center     Atomic      Atomic             Coordinates (Angstroms)
 Number     Number       Type             X           Y           Z
 ---------------------------------------------------------------------
      1          8           0        0.048741    1.202397    0.000000
      2          1           0        0.045355    0.219801    0.000000
      3          1           0       -0.879649    1.524264   -0.000000
      4          8           0        0.048741   -1.022179    0.000000
      5          1           0        0.826225   -1.623032    0.000000
      6          1           0       -0.771782   -1.562779   -0.000000
 ---------------------------------------------------------------------

 SCF Done:  E(RHF) =  -33.6296910832     A.U. after   11 cycles
 E2 =    -0.2282968695D+00 EUMP2 =    -0.33857987952712D+02
 CCSD(T)
 CCSD(T)= -0.33872863871D+02

 The electronic state is 1-A'.
 Alpha  occ. eigenvalues --   -1.43641  -1.27647  -0.77901  -0.76243  -0.57615
 Alpha  occ. eigenvalues --   -0.56026  -0.45421  -0.41814
 Alpha virt. eigenvalues --    0.16537   0.25743   0.29596   0.60313   0.73381
 Alpha virt. eigenvalues --    0.73429   0.86241   0.91030   0.93004   1.04966
 Alpha virt. eigenvalues --    1.13072   1.16585   1.27179   1.35141   2.85773

 Mulliken charges:
               1
     1  O   -0.758488
     2  H    0.370915
     3  H    0.314209
     4  O   -0.815306
     5  H    0.452982
     6  H    0.435688
 Sum of Mulliken charges =   0.00000

 Dipole moment (field-independent basis, Debye):
    X=             -2.0035    Y=             -5.4817    Z=             -0.0000  Tot=              5.8364
 Quadrupole moment (field-independent basis, Debye-Ang):
   XX=             -9.3445   YY=            -10.3818   ZZ=            -14.9700
   XY=             -3.4711   XZ=              0.0000   YZ=             -0.0000

 44\MP4DQ=-33.8667546\MP4SDQ=-33.8690337\CCSD=-33.86969\CCSD(T)=-33.872
 Normal termination of Gaussian 16 at Sun Dec 10 06:22:45 2023.
