 Gaussian 16, Revision A.03,
 Gaussian 16:  ES64L-G16RevA.03 25-Dec-2016

 ------------------
 #p CCSD(T)/CEP-31G
 ------------------

 -----------
 H2O_H2O_788
 -----------
 Symbolic Z-matrix:
 Charge =  0 Multiplicity = 1

                         Standard orientation:
 ---------------------------------------------------------------------
 Center     Atomic      Atomic             Coordinates (Angstroms)
 Number     Number       Type             X           Y           Z
 ---------------------------------------------------------------------
      1          8           0        0.052396    1.421536    0.000000
      2          1           0        0.049805    0.438938    0.000000
      3          1           0       -0.876253    1.742652    0.000000
      4          8           0        0.052396   -1.241759   -0.000000
      5          1           0        0.789444   -1.891578   -0.000000
      6          1           0       -0.801335   -1.728227   -0.000000
 ---------------------------------------------------------------------

 SCF Done:  E(RHF) =  -33.6610792253     A.U. after   11 cycles
 E2 =    -0.2291357034D+00 EUMP2 =    -0.33890214928700D+02
 CCSD(T)
 CCSD(T)= -0.33906363514D+02

 The electronic state is 1-A'.
 Alpha  occ. eigenvalues --   -1.39727  -1.30438  -0.75194  -0.69153  -0.59155
 Alpha  occ. eigenvalues --   -0.54437  -0.49722  -0.45009
 Alpha virt. eigenvalues --    0.17335   0.27153   0.27554   0.49272   0.74749
 Alpha virt. eigenvalues --    0.75769   0.85261   0.87681   0.97153   1.00024
 Alpha virt. eigenvalues --    1.14832   1.18600   1.23062   1.36610   2.58389

 Mulliken charges:
               1
     1  O   -0.780868
     2  H    0.435698
     3  H    0.339428
     4  O   -0.823102
     5  H    0.424578
     6  H    0.404267
 Sum of Mulliken charges =   0.00000

 Dipole moment (field-independent basis, Debye):
    X=             -2.2565    Y=             -4.8567    Z=             -0.0000  Tot=              5.3553
 Quadrupole moment (field-independent basis, Debye-Ang):
   XX=             -9.4604   YY=             -9.1735   ZZ=            -15.0176
   XY=             -3.9607   XZ=             -0.0000   YZ=              0.0000

 008\MP4DQ=-33.9004558\MP4SDQ=-33.9026018\CCSD=-33.9034828\CCSD(T)=-33.
 Normal termination of Gaussian 16 at Sun Dec 10 06:33:20 2023.
