 Gaussian 16, Revision A.03,
 Gaussian 16:  ES64L-G16RevA.03 25-Dec-2016

 ------------------
 #p CCSD(T)/CEP-31G
 ------------------

 -----------
 H2O_H2O_521
 -----------
 Symbolic Z-matrix:
 Charge =  0 Multiplicity = 1

                         Standard orientation:
 ---------------------------------------------------------------------
 Center     Atomic      Atomic             Coordinates (Angstroms)
 Number     Number       Type             X           Y           Z
 ---------------------------------------------------------------------
      1          8           0       -0.023403    1.306696    0.000000
      2          1           0       -0.018557    0.324106    0.000000
      3          1           0        0.904508    1.629941    0.000000
      4          8           0       -0.023403   -1.136415    0.000000
      5          1           0       -0.986167   -1.332861    0.000000
      6          1           0        0.474660   -1.983434    0.000000
 ---------------------------------------------------------------------

 SCF Done:  E(RHF) =  -33.6525684683     A.U. after   11 cycles
 E2 =    -0.2283313515D+00 EUMP2 =    -0.33880899819846D+02
 CCSD(T)
 CCSD(T)= -0.33896632944D+02

 The electronic state is 1-A'.
 Alpha  occ. eigenvalues --   -1.41126  -1.29452  -0.77127  -0.70382  -0.58748
 Alpha  occ. eigenvalues --   -0.55583  -0.48247  -0.43964
 Alpha virt. eigenvalues --    0.17259   0.26584   0.28344   0.54336   0.73977
 Alpha virt. eigenvalues --    0.75326   0.86923   0.89137   0.94332   1.02599
 Alpha virt. eigenvalues --    1.15594   1.21021   1.26166   1.37647   2.70242

 Mulliken charges:
               1
     1  O   -0.770260
     2  H    0.396916
     3  H    0.342809
     4  O   -0.838865
     5  H    0.417153
     6  H    0.452246
 Sum of Mulliken charges =   0.00000

 Dipole moment (field-independent basis, Debye):
    X=              1.0344    Y=             -4.8807    Z=              0.0000  Tot=              4.9891
 Quadrupole moment (field-independent basis, Debye-Ang):
   XX=             -9.5109   YY=             -9.6171   ZZ=            -15.0067
   XY=              4.1525   XZ=              0.0000   YZ=              0.0000

 102\MP4DQ=-33.8906603\MP4SDQ=-33.8928534\CCSD=-33.8936694\CCSD(T)=-33.
 Normal termination of Gaussian 16 at Sun Dec 10 06:28:19 2023.
