 Gaussian 16, Revision A.03,
 Gaussian 16:  ES64L-G16RevA.03 25-Dec-2016

 ------------------
 #p CCSD(T)/CEP-31G
 ------------------

 -----------
 H2O_H2O_403
 -----------
 Symbolic Z-matrix:
 Charge =  0 Multiplicity = 1

                         Standard orientation:
 ---------------------------------------------------------------------
 Center     Atomic      Atomic             Coordinates (Angstroms)
 Number     Number       Type             X           Y           Z
 ---------------------------------------------------------------------
      1          8           0        0.085620   -1.255531    0.000000
      2          1           0        0.085092   -0.272930    0.000000
      3          1           0       -0.843701   -1.574697    0.000000
      4          8           0        0.085620    1.105979    0.000000
      5          1           0        0.276798    2.069802    0.000000
      6          1           0       -0.888112    0.974246    0.000000
 ---------------------------------------------------------------------

 SCF Done:  E(RHF) =  -33.6309992277     A.U. after   11 cycles
 E2 =    -0.2286571152D+00 EUMP2 =    -0.33859656342936D+02
 CCSD(T)
 CCSD(T)= -0.33875708453D+02

 The electronic state is 1-A'.
 Alpha  occ. eigenvalues --   -1.42532  -1.30625  -0.79922  -0.69850  -0.58412
 Alpha  occ. eigenvalues --   -0.56293  -0.49344  -0.44898
 Alpha virt. eigenvalues --    0.16343   0.24624   0.28575   0.54799   0.73424
 Alpha virt. eigenvalues --    0.76432   0.86478   0.88838   0.95960   1.09758
 Alpha virt. eigenvalues --    1.13824   1.23832   1.27781   1.41954   2.76724

 Mulliken charges:
               1
     1  O   -0.708102
     2  H    0.329916
     3  H    0.322152
     4  O   -0.800356
     5  H    0.473404
     6  H    0.382986
 Sum of Mulliken charges =  -0.00000

 Dipole moment (field-independent basis, Debye):
    X=             -3.6267    Y=              4.5087    Z=              0.0000  Tot=              5.7863
 Quadrupole moment (field-independent basis, Debye-Ang):
   XX=            -10.8641   YY=             -9.8515   ZZ=            -14.9655
   XY=              2.6793   XZ=              0.0000   YZ=              0.0000

 2\MP4DQ=-33.8694961\MP4SDQ=-33.8718821\CCSD=-33.8726814\CCSD(T)=-33.87
 Normal termination of Gaussian 16 at Sun Dec 10 06:26:00 2023.
