 Gaussian 16, Revision A.03,
 Gaussian 16:  ES64L-G16RevA.03 25-Dec-2016

 ------------------
 #p CCSD(T)/CEP-31G
 ------------------

 ------------
 H2O_H2O_3554
 ------------
 Symbolic Z-matrix:
 Charge =  0 Multiplicity = 1

                         Standard orientation:
 ---------------------------------------------------------------------
 Center     Atomic      Atomic             Coordinates (Angstroms)
 Number     Number       Type             X           Y           Z
 ---------------------------------------------------------------------
      1          8           0        0.082802    2.514692   -0.000000
      2          1           0        0.082448    1.532091   -0.000000
      3          1           0       -0.846577    2.833693    0.000000
      4          8           0        0.082802   -2.360170   -0.000000
      5          1           0        0.336777   -3.309381   -0.000000
      6          1           0       -0.897473   -2.292579    0.000000
 ---------------------------------------------------------------------

 SCF Done:  E(RHF) =  -33.6529105188     A.U. after   11 cycles
 E2 =    -0.2283461134D+00 EUMP2 =    -0.33881256632236D+02
 CCSD(T)
 CCSD(T)= -0.33898227004D+02

 The electronic state is 1-A'.
 Alpha  occ. eigenvalues --   -1.36539  -1.34724  -0.72194  -0.70333  -0.56344
 Alpha  occ. eigenvalues --   -0.54479  -0.51124  -0.49306
 Alpha virt. eigenvalues --    0.18909   0.21428   0.29520   0.31489   0.79448
 Alpha virt. eigenvalues --    0.81216   0.82310   0.84232   0.85413   0.87549
 Alpha virt. eigenvalues --    1.16349   1.18371   1.20823   1.23477   2.56307

 Mulliken charges:
               1
     1  O   -0.745585
     2  H    0.379993
     3  H    0.365435
     4  O   -0.745801
     5  H    0.376999
     6  H    0.368959
 Sum of Mulliken charges =  -0.00000

 Dipole moment (field-independent basis, Debye):
    X=             -3.7951    Y=             -3.6591    Z=              0.0000  Tot=              5.2718
 Quadrupole moment (field-independent basis, Debye-Ang):
   XX=            -10.6427   YY=             -7.8548   ZZ=            -14.9903
   XY=             -3.5105   XZ=             -0.0000   YZ=              0.0000

 01\MP4DQ=-33.8925846\MP4SDQ=-33.8946138\CCSD=-33.8956637\CCSD(T)=-33.8
 Normal termination of Gaussian 16 at Sun Dec 10 06:36:58 2023.
