 Gaussian 16, Revision A.03,
 Gaussian 16:  ES64L-G16RevA.03 25-Dec-2016

 ------------------
 #p CCSD(T)/CEP-31G
 ------------------

 ------------
 H2O_H2O_4781
 ------------
 Symbolic Z-matrix:
 Charge =  0 Multiplicity = 1

                         Standard orientation:
 ---------------------------------------------------------------------
 Center     Atomic      Atomic             Coordinates (Angstroms)
 Number     Number       Type             X           Y           Z
 ---------------------------------------------------------------------
      1          8           0        0.076747    3.008046   -0.000000
      2          1           0        0.076277    2.025445   -0.000000
      3          1           0       -0.852594    3.327157   -0.000000
      4          8           0        0.076747   -2.844816    0.000000
      5          1           0        0.452339   -3.752801    0.000000
      6          1           0       -0.903971   -2.905640    0.000000
 ---------------------------------------------------------------------

 SCF Done:  E(RHF) =  -33.6525557738     A.U. after   11 cycles
 E2 =    -0.2283335333D+00 EUMP2 =    -0.33880889307073D+02
 CCSD(T)
 CCSD(T)= -0.33897868218D+02

 The electronic state is 1-A'.
 Alpha  occ. eigenvalues --   -1.36228  -1.34923  -0.71871  -0.70546  -0.56008
 Alpha  occ. eigenvalues --   -0.54678  -0.50810  -0.49505
 Alpha virt. eigenvalues --    0.19570   0.20933   0.29831   0.31194   0.79746
 Alpha virt. eigenvalues --    0.81027   0.82679   0.84033   0.85791   0.87180
 Alpha virt. eigenvalues --    1.16708   1.18010   1.21155   1.22507   2.56698

 Mulliken charges:
               1
     1  O   -0.744149
     2  H    0.376501
     3  H    0.367645
     4  O   -0.744144
     5  H    0.374228
     6  H    0.369919
 Sum of Mulliken charges =  -0.00000

 Dipole moment (field-independent basis, Debye):
    X=             -3.5308    Y=             -3.8245    Z=              0.0000  Tot=              5.2051
 Quadrupole moment (field-independent basis, Debye-Ang):
   XX=            -10.3159   YY=             -6.4975   ZZ=            -14.9899
   XY=             -4.4804   XZ=             -0.0000   YZ=             -0.0000

 854\MP4DQ=-33.8922292\MP4SDQ=-33.8942549\CCSD=-33.8953088\CCSD(T)=-33.
 Normal termination of Gaussian 16 at Sun Dec 10 06:59:04 2023.
