 Gaussian 16, Revision A.03,
 Gaussian 16:  ES64L-G16RevA.03 25-Dec-2016

 ------------------
 #p CCSD(T)/CEP-31G
 ------------------

 -----------
 H2O_H2O_495
 -----------
 Symbolic Z-matrix:
 Charge =  0 Multiplicity = 1

                         Standard orientation:
 ---------------------------------------------------------------------
 Center     Atomic      Atomic             Coordinates (Angstroms)
 Number     Number       Type             X           Y           Z
 ---------------------------------------------------------------------
      1          8           0        0.026847    1.298259   -0.000000
      2          1           0        0.022204    0.315668   -0.000000
      3          1           0       -0.901130    1.621314   -0.000000
      4          8           0        0.026847   -1.125151    0.000000
      5          1           0        0.974755   -1.383949    0.000000
      6          1           0       -0.525378   -1.937895    0.000000
 ---------------------------------------------------------------------

 SCF Done:  E(RHF) =  -33.6518823062     A.U. after   11 cycles
 E2 =    -0.2283988543D+00 EUMP2 =    -0.33880281160493D+02
 CCSD(T)
 CCSD(T)= -0.33895905819D+02

 The electronic state is 1-A'.
 Alpha  occ. eigenvalues --   -1.41289  -1.29218  -0.77077  -0.70953  -0.58477
 Alpha  occ. eigenvalues --   -0.55750  -0.47937  -0.43704
 Alpha virt. eigenvalues --    0.17199   0.26577   0.28456   0.55060   0.73925
 Alpha virt. eigenvalues --    0.74922   0.86775   0.89359   0.94743   1.01390
 Alpha virt. eigenvalues --    1.15643   1.20135   1.25875   1.37322   2.71253

 Mulliken charges:
               1
     1  O   -0.771431
     2  H    0.400370
     3  H    0.339445
     4  O   -0.838414
     5  H    0.420276
     6  H    0.449755
 Sum of Mulliken charges =  -0.00000

 Dipole moment (field-independent basis, Debye):
    X=             -1.1770    Y=             -4.9742    Z=              0.0000  Tot=              5.1115
 Quadrupole moment (field-independent basis, Debye-Ang):
   XX=             -9.4355   YY=             -9.6922   ZZ=            -15.0059
   XY=             -4.0323   XZ=              0.0000   YZ=             -0.0000

 853\MP4DQ=-33.8899296\MP4SDQ=-33.8921206\CCSD=-33.8929186\CCSD(T)=-33.
 Normal termination of Gaussian 16 at Sun Dec 10 06:27:50 2023.
