 Gaussian 16, Revision A.03,
 Gaussian 16:  ES64L-G16RevA.03 25-Dec-2016

 ------------------
 #p CCSD(T)/CEP-31G
 ------------------

 ------------
 H2O_H2O_1441
 ------------
 Symbolic Z-matrix:
 Charge =  0 Multiplicity = 1

                         Standard orientation:
 ---------------------------------------------------------------------
 Center     Atomic      Atomic             Coordinates (Angstroms)
 Number     Number       Type             X           Y           Z
 ---------------------------------------------------------------------
      1          8           0        0.041216    1.680848    0.000000
      2          1           0        0.038452    0.698251    0.000000
      3          1           0       -0.887377    2.002128   -0.000000
      4          8           0        0.041216   -1.500993    0.000000
      5          1           0        0.890789   -1.994685    0.000000
      6          1           0       -0.701317   -2.144538   -0.000000
 ---------------------------------------------------------------------

 SCF Done:  E(RHF) =  -33.6618178272     A.U. after   11 cycles
 E2 =    -0.2288688575D+00 EUMP2 =    -0.33890686684749D+02
 CCSD(T)
 CCSD(T)= -0.33907416759D+02

 The electronic state is 1-A'.
 Alpha  occ. eigenvalues --   -1.38040  -1.32162  -0.73672  -0.68115  -0.58585
 Alpha  occ. eigenvalues --   -0.52752  -0.51936  -0.46836
 Alpha virt. eigenvalues --    0.17916   0.25378   0.28549   0.39791   0.76959
 Alpha virt. eigenvalues --    0.80076   0.84582   0.86176   0.91409   0.98036
 Alpha virt. eigenvalues --    1.15172   1.19446   1.21466   1.34058   2.49683

 Mulliken charges:
               1
     1  O   -0.782450
     2  H    0.424952
     3  H    0.355978
     4  O   -0.784568
     5  H    0.394789
     6  H    0.391299
 Sum of Mulliken charges =   0.00000

 Dipole moment (field-independent basis, Debye):
    X=             -1.8361    Y=             -4.5563    Z=             -0.0000  Tot=              4.9123
 Quadrupole moment (field-independent basis, Debye-Ang):
   XX=             -9.3818   YY=             -8.1420   ZZ=            -15.0105
   XY=             -4.8345   XZ=              0.0000   YZ=             -0.0000

 9243\MP4DQ=-33.9016408\MP4SDQ=-33.9037306\CCSD=-33.9047267\CCSD(T)=-33
 Normal termination of Gaussian 16 at Sun Dec 10 06:45:54 2023.
