 Gaussian 16, Revision A.03,
 Gaussian 16:  ES64L-G16RevA.03 25-Dec-2016

 ------------------
 #p CCSD(T)/CEP-31G
 ------------------

 -----------
 H2O_H2O_204
 -----------
 Symbolic Z-matrix:
 Charge =  0 Multiplicity = 1

                         Standard orientation:
 ---------------------------------------------------------------------
 Center     Atomic      Atomic             Coordinates (Angstroms)
 Number     Number       Type             X           Y           Z
 ---------------------------------------------------------------------
      1          8           0        0.082835   -1.178417    0.000000
      2          1           0        0.082053   -0.195816    0.000000
      3          1           0       -0.846404   -1.497823    0.000000
      4          8           0        0.082835    1.023967    0.000000
      5          1           0        0.336396    1.973290    0.000000
      6          1           0       -0.897409    0.955949    0.000000
 ---------------------------------------------------------------------

 SCF Done:  E(RHF) =  -33.6088634650     A.U. after   11 cycles
 E2 =    -0.2282419698D+00 EUMP2 =    -0.33837105434768D+02
 CCSD(T)
 CCSD(T)= -0.33852568372D+02

 The electronic state is 1-A'.
 Alpha  occ. eigenvalues --   -1.44716  -1.29233  -0.82249  -0.72010  -0.57791
 Alpha  occ. eigenvalues --   -0.56769  -0.47294  -0.43349
 Alpha virt. eigenvalues --    0.16112   0.23879   0.29502   0.59125   0.73173
 Alpha virt. eigenvalues --    0.75372   0.88222   0.90134   0.97002   1.08726
 Alpha virt. eigenvalues --    1.12435   1.22666   1.26051   1.42714   2.94787

 Mulliken charges:
               1
     1  O   -0.697544
     2  H    0.292197
     3  H    0.309284
     4  O   -0.791615
     5  H    0.493589
     6  H    0.394088
 Sum of Mulliken charges =   0.00000

 Dipole moment (field-independent basis, Debye):
    X=             -3.4196    Y=              4.9134    Z=              0.0000  Tot=              5.9863
 Quadrupole moment (field-independent basis, Debye-Ang):
   XX=            -10.6613   YY=            -10.2055   ZZ=            -14.9318
   XY=              2.7543   XZ=              0.0000   YZ=              0.0000

 573\MP4DQ=-33.8462561\MP4SDQ=-33.8487128\CCSD=-33.8494195\CCSD(T)=-33.
 Normal termination of Gaussian 16 at Sun Dec 10 06:22:04 2023.
