 Gaussian 16, Revision A.03,
 Gaussian 16:  ES64L-G16RevA.03 25-Dec-2016

 ------------------
 #p CCSD(T)/CEP-31G
 ------------------

 ------------
 H2O_H2O_3340
 ------------
 Symbolic Z-matrix:
 Charge =  0 Multiplicity = 1

                         Standard orientation:
 ---------------------------------------------------------------------
 Center     Atomic      Atomic             Coordinates (Angstroms)
 Number     Number       Type             X           Y           Z
 ---------------------------------------------------------------------
      1          8           0        0.044852    2.439008    0.000000
      2          1           0        0.043114    1.456408    0.000000
      3          1           0       -0.884076    2.759318    0.000000
      4          8           0        0.044852   -2.258602    0.000000
      5          1           0        0.860889   -2.805951    0.000000
      6          1           0       -0.737561   -2.853023    0.000000
 ---------------------------------------------------------------------

 SCF Done:  E(RHF) =  -33.6546801743     A.U. after   11 cycles
 E2 =    -0.2282982766D+00 EUMP2 =    -0.33882978450977D+02
 CCSD(T)
 CCSD(T)= -0.33899897912D+02

 The electronic state is 1-A'.
 Alpha  occ. eigenvalues --   -1.36572  -1.34192  -0.72216  -0.69816  -0.56476
 Alpha  occ. eigenvalues --   -0.54008  -0.51186  -0.48806
 Alpha virt. eigenvalues --    0.19114   0.21954   0.29606   0.32124   0.79380
 Alpha virt. eigenvalues --    0.81682   0.82253   0.84690   0.85389   0.87844
 Alpha virt. eigenvalues --    1.16451   1.18979   1.20879   1.24265   2.56368

 Mulliken charges:
               1
     1  O   -0.752396
     2  H    0.385564
     3  H    0.366418
     4  O   -0.750792
     5  H    0.377195
     6  H    0.374013
 Sum of Mulliken charges =  -0.00000

 Dipole moment (field-independent basis, Debye):
    X=             -2.0490    Y=             -4.2830    Z=              0.0000  Tot=              4.7479
 Quadrupole moment (field-independent basis, Debye-Ang):
   XX=             -9.4257   YY=             -6.1562   ZZ=            -14.9944
   XY=             -6.4383   XZ=              0.0000   YZ=              0.0000

 5116\MP4DQ=-33.8942643\MP4SDQ=-33.8962935\CCSD=-33.8973376\CCSD(T)=-33
 Normal termination of Gaussian 16 at Sun Dec 10 06:33:10 2023.
