 Gaussian 16, Revision A.03,
 Gaussian 16:  ES64L-G16RevA.03 25-Dec-2016

 ------------------
 #p CCSD(T)/CEP-31G
 ------------------

 ------------
 H2O_H2O_1626
 ------------
 Symbolic Z-matrix:
 Charge =  0 Multiplicity = 1

                         Standard orientation:
 ---------------------------------------------------------------------
 Center     Atomic      Atomic             Coordinates (Angstroms)
 Number     Number       Type             X           Y           Z
 ---------------------------------------------------------------------
      1          8           0        0.090687   -1.738261    0.000000
      2          1           0        0.090572   -0.755659    0.000000
      3          1           0       -0.838769   -2.057036    0.000000
      4          8           0        0.090687    1.599558    0.000000
      5          1           0        0.154837    2.580064    0.000000
      6          1           0       -0.857628    1.342254    0.000000
 ---------------------------------------------------------------------

 SCF Done:  E(RHF) =  -33.6536191474     A.U. after   11 cycles
 E2 =    -0.2290136156D+00 EUMP2 =    -0.33882632762978D+02
 CCSD(T)
 CCSD(T)= -0.33899690003D+02

 The electronic state is 1-A'.
 Alpha  occ. eigenvalues --   -1.37944  -1.34069  -0.73855  -0.69543  -0.57863
 Alpha  occ. eigenvalues --   -0.53734  -0.52500  -0.48618
 Alpha virt. eigenvalues --    0.16686   0.24186   0.28324   0.36276   0.77292
 Alpha virt. eigenvalues --    0.81714   0.82866   0.84661   0.88665   1.01995
 Alpha virt. eigenvalues --    1.15397   1.17563   1.21470   1.39567   2.52002

 Mulliken charges:
               1
     1  O   -0.752295
     2  H    0.393247
     3  H    0.354964
     4  O   -0.755830
     5  H    0.394983
     6  H    0.364930
 Sum of Mulliken charges =  -0.00000

 Dipole moment (field-independent basis, Debye):
    X=             -4.0861    Y=              3.4965    Z=              0.0000  Tot=              5.3779
 Quadrupole moment (field-independent basis, Debye-Ang):
   XX=            -11.1724   YY=             -9.3030   ZZ=            -14.9892
   XY=              2.4892   XZ=              0.0000   YZ=              0.0000

 464\MP4DQ=-33.8938602\MP4SDQ=-33.8960048\CCSD=-33.897017\CCSD(T)=-33.8
 Normal termination of Gaussian 16 at Sun Dec 10 06:49:35 2023.
