 Gaussian 16, Revision A.03,
 Gaussian 16:  ES64L-G16RevA.03 25-Dec-2016

 ------------------
 #p CCSD(T)/CEP-31G
 ------------------

 -----------
 H2O_H2O_963
 -----------
 Symbolic Z-matrix:
 Charge =  0 Multiplicity = 1

                         Standard orientation:
 ---------------------------------------------------------------------
 Center     Atomic      Atomic             Coordinates (Angstroms)
 Number     Number       Type             X           Y           Z
 ---------------------------------------------------------------------
      1          8           0        0.052384    1.491346   -0.000000
      2          1           0        0.049922    0.508747   -0.000000
      3          1           0       -0.876307    1.812340   -0.000000
      4          8           0        0.052384   -1.311555    0.000000
      5          1           0        0.789518   -1.961278    0.000000
      6          1           0       -0.801281   -1.798136    0.000000
 ---------------------------------------------------------------------

 SCF Done:  E(RHF) =  -33.6624358325     A.U. after   11 cycles
 E2 =    -0.2291341578D+00 EUMP2 =    -0.33891569990270D+02
 CCSD(T)
 CCSD(T)= -0.33907960563D+02

 The electronic state is 1-A'.
 Alpha  occ. eigenvalues --   -1.39113  -1.31031  -0.74668  -0.68392  -0.59272
 Alpha  occ. eigenvalues --   -0.53844  -0.50516  -0.45648
 Alpha virt. eigenvalues --    0.17509   0.26650   0.27834   0.46164   0.75344
 Alpha virt. eigenvalues --    0.76952   0.85422   0.86723   0.95889   1.00390
 Alpha virt. eigenvalues --    1.14907   1.18973   1.22432   1.35793   2.53790

 Mulliken charges:
               1
     1  O   -0.783442
     2  H    0.436758
     3  H    0.344471
     4  O   -0.811916
     5  H    0.416058
     6  H    0.398071
 Sum of Mulliken charges =  -0.00000

 Dipole moment (field-independent basis, Debye):
    X=             -2.2805    Y=             -4.7492    Z=              0.0000  Tot=              5.2683
 Quadrupole moment (field-independent basis, Debye-Ang):
   XX=             -9.4714   YY=             -8.8600   ZZ=            -15.0172
   XY=             -4.1061   XZ=              0.0000   YZ=             -0.0000

 \MP4DQ=-33.9020948\MP4SDQ=-33.9042195\CCSD=-33.9051454\CCSD(T)=-33.907
 Normal termination of Gaussian 16 at Sun Dec 10 06:36:37 2023.
