 Gaussian 16, Revision A.03,
 Gaussian 16:  ES64L-G16RevA.03 25-Dec-2016

 ------------------
 #p CCSD(T)/CEP-31G
 ------------------

 ------------
 H2O_H2O_4906
 ------------
 Symbolic Z-matrix:
 Charge =  0 Multiplicity = 1

                         Standard orientation:
 ---------------------------------------------------------------------
 Center     Atomic      Atomic             Coordinates (Angstroms)
 Number     Number       Type             X           Y           Z
 ---------------------------------------------------------------------
      1          8           0        0.076746    3.057906   -0.000000
      2          1           0        0.076284    2.075305   -0.000000
      3          1           0       -0.852597    3.377009    0.000000
      4          8           0        0.076746   -2.894675   -0.000000
      5          1           0        0.452344   -3.802657   -0.000000
      6          1           0       -0.903971   -2.955506    0.000000
 ---------------------------------------------------------------------

 SCF Done:  E(RHF) =  -33.6525138642     A.U. after   11 cycles
 E2 =    -0.2283351934D+00 EUMP2 =    -0.33880849057621D+02
 CCSD(T)
 CCSD(T)= -0.33897829141D+02

 The electronic state is 1-A'.
 Alpha  occ. eigenvalues --   -1.36207  -1.34948  -0.71849  -0.70572  -0.55984
 Alpha  occ. eigenvalues --   -0.54702  -0.50789  -0.49529
 Alpha virt. eigenvalues --    0.19593   0.20902   0.29850   0.31162   0.79767
 Alpha virt. eigenvalues --    0.81004   0.82708   0.84010   0.85818   0.87154
 Alpha virt. eigenvalues --    1.16728   1.17983   1.21176   1.22474   2.56722

 Mulliken charges:
               1
     1  O   -0.743980
     2  H    0.376184
     3  H    0.367794
     4  O   -0.743975
     5  H    0.374046
     6  H    0.369931
 Sum of Mulliken charges =   0.00000

 Dipole moment (field-independent basis, Debye):
    X=             -3.5318    Y=             -3.8221    Z=              0.0000  Tot=              5.2040
 Quadrupole moment (field-independent basis, Debye-Ang):
   XX=            -10.3155   YY=             -6.4260   ZZ=            -14.9899
   XY=             -4.5181   XZ=             -0.0000   YZ=              0.0000

 4462\MP4DQ=-33.8921899\MP4SDQ=-33.8942157\CCSD=-33.8952697\CCSD(T)=-33
 Normal termination of Gaussian 16 at Sun Dec 10 07:01:46 2023.
