 Gaussian 16, Revision A.03,
 Gaussian 16:  ES64L-G16RevA.03 25-Dec-2016

 ------------------
 #p CCSD(T)/CEP-31G
 ------------------

 ------------
 H2O_H2O_3950
 ------------
 Symbolic Z-matrix:
 Charge =  0 Multiplicity = 1

                         Standard orientation:
 ---------------------------------------------------------------------
 Center     Atomic      Atomic             Coordinates (Angstroms)
 Number     Number       Type             X           Y           Z
 ---------------------------------------------------------------------
      1          8           0        0.092949   -2.662437    0.000000
      2          1           0        0.092949   -1.679836    0.000000
      3          1           0       -0.836544   -2.981104    0.000000
      4          8           0        0.092949    2.529650    0.000000
      5          1           0        0.092949    3.512251    0.000000
      6          1           0       -0.836544    2.210984    0.000000
 ---------------------------------------------------------------------

 SCF Done:  E(RHF) =  -33.6520323450     A.U. after   11 cycles
 E2 =    -0.2283675998D+00 EUMP2 =    -0.33880399944746D+02
 CCSD(T)
 CCSD(T)= -0.33897396380D+02

 The electronic state is 1-A'.
 Alpha  occ. eigenvalues --   -1.36440  -1.35117  -0.72094  -0.70729  -0.56199
 Alpha  occ. eigenvalues --   -0.54848  -0.51012  -0.49686
 Alpha virt. eigenvalues --    0.18977   0.20981   0.29575   0.31015   0.79559
 Alpha virt. eigenvalues --    0.80856   0.82486   0.83871   0.85530   0.87148
 Alpha virt. eigenvalues --    1.16359   1.17897   1.20906   1.22576   2.55890

 Mulliken charges:
               1
     1  O   -0.742161
     2  H    0.375572
     3  H    0.366557
     4  O   -0.742679
     5  H    0.375580
     6  H    0.367131
 Sum of Mulliken charges =  -0.00000

 Dipole moment (field-independent basis, Debye):
    X=             -4.2699    Y=              3.1306    Z=              0.0000  Tot=              5.2946
 Quadrupole moment (field-independent basis, Debye-Ang):
   XX=            -11.2850   YY=             -9.6262   ZZ=            -14.9882
   XY=              2.3047   XZ=              0.0000   YZ=              0.0000

 1\MP4DQ=-33.8917507\MP4SDQ=-33.8937792\CCSD=-33.8948329\CCSD(T)=-33.89
 Normal termination of Gaussian 16 at Sun Dec 10 06:44:05 2023.
