 Gaussian 16, Revision A.03,
 Gaussian 16:  ES64L-G16RevA.03 25-Dec-2016

 ------------------
 #p CCSD(T)/CEP-31G
 ------------------

 ------------
 H2O_H2O_2573
 ------------
 Symbolic Z-matrix:
 Charge =  0 Multiplicity = 1

                         Standard orientation:
 ---------------------------------------------------------------------
 Center     Atomic      Atomic             Coordinates (Angstroms)
 Number     Number       Type             X           Y           Z
 ---------------------------------------------------------------------
      1          8           0       -0.016653    2.120637    0.000000
      2          1           0       -0.013476    1.138041    0.000000
      3          1           0        0.911805    2.442306    0.000000
      4          8           0       -0.016653   -1.957258    0.000000
      5          1           0       -0.996938   -2.024691    0.000000
      6          1           0        0.365053   -2.862689    0.000000
 ---------------------------------------------------------------------

 SCF Done:  E(RHF) =  -33.6563702519     A.U. after   11 cycles
 E2 =    -0.2283730287D+00 EUMP2 =    -0.33884743280540D+02
 CCSD(T)
 CCSD(T)= -0.33901646150D+02

 The electronic state is 1-A'.
 Alpha  occ. eigenvalues --   -1.36925  -1.33964  -0.72586  -0.69613  -0.56933
 Alpha  occ. eigenvalues --   -0.53824  -0.51558  -0.48608
 Alpha virt. eigenvalues --    0.18157   0.22858   0.29327   0.32863   0.78969
 Alpha virt. eigenvalues --    0.81913   0.83016   0.84701   0.86685   0.87839
 Alpha virt. eigenvalues --    1.16061   1.19611   1.20597   1.29511   2.55322

 Mulliken charges:
               1
     1  O   -0.759973
     2  H    0.390186
     3  H    0.368389
     4  O   -0.756700
     5  H    0.378286
     6  H    0.379812
 Sum of Mulliken charges =  -0.00000

 Dipole moment (field-independent basis, Debye):
    X=              0.7540    Y=             -3.9378    Z=              0.0000  Tot=              4.0093
 Quadrupole moment (field-independent basis, Debye-Ang):
   XX=             -9.7627   YY=             -7.7163   ZZ=            -14.9972
   XY=              7.4146   XZ=              0.0000   YZ=              0.0000

 2269\MP4DQ=-33.8959817\MP4SDQ=-33.8980342\CCSD=-33.8990664\CCSD(T)=-33
 Normal termination of Gaussian 16 at Sun Dec 10 06:19:19 2023.
