 Gaussian 16, Revision A.03,
 Gaussian 16:  ES64L-G16RevA.03 25-Dec-2016

 ------------------
 #p CCSD(T)/CEP-31G
 ------------------

 ------------
 H2O_H2O_3625
 ------------
 Symbolic Z-matrix:
 Charge =  0 Multiplicity = 1

                         Standard orientation:
 ---------------------------------------------------------------------
 Center     Atomic      Atomic             Coordinates (Angstroms)
 Number     Number       Type             X           Y           Z
 ---------------------------------------------------------------------
      1          8           0        0.092949   -2.532802    0.000000
      2          1           0        0.092949   -1.550200    0.000000
      3          1           0       -0.836544   -2.851468    0.000000
      4          8           0        0.092949    2.400015    0.000000
      5          1           0        0.092950    3.382617    0.000000
      6          1           0       -0.836544    2.081348    0.000000
 ---------------------------------------------------------------------

 SCF Done:  E(RHF) =  -33.6520965976     A.U. after   11 cycles
 E2 =    -0.2283769743D+00 EUMP2 =    -0.33880473571886D+02
 CCSD(T)
 CCSD(T)= -0.33897469159D+02

 The electronic state is 1-A'.
 Alpha  occ. eigenvalues --   -1.36539  -1.35061  -0.72199  -0.70668  -0.56303
 Alpha  occ. eigenvalues --   -0.54791  -0.51111  -0.49630
 Alpha virt. eigenvalues --    0.18584   0.21261   0.29479   0.31133   0.79465
 Alpha virt. eigenvalues --    0.80911   0.82377   0.83912   0.85424   0.87289
 Alpha virt. eigenvalues --    1.16149   1.18073   1.20808   1.23097   2.55587

 Mulliken charges:
               1
     1  O   -0.742427
     2  H    0.376439
     3  H    0.365905
     4  O   -0.743074
     5  H    0.376471
     6  H    0.366687
 Sum of Mulliken charges =   0.00000

 Dipole moment (field-independent basis, Debye):
    X=             -4.2650    Y=              3.1414    Z=              0.0000  Tot=              5.2970
 Quadrupole moment (field-independent basis, Debye-Ang):
   XX=            -11.2878   YY=             -9.6158   ZZ=            -14.9882
   XY=              2.3021   XZ=              0.0000   YZ=              0.0000

 0808\MP4DQ=-33.8918214\MP4SDQ=-33.8938515\CCSD=-33.8949037\CCSD(T)=-33
 Normal termination of Gaussian 16 at Sun Dec 10 06:38:13 2023.
