 Gaussian 16, Revision A.03,
 Gaussian 16:  ES64L-G16RevA.03 25-Dec-2016

 ------------------
 #p CCSD(T)/CEP-31G
 ------------------

 ------------
 H2O_H2O_2569
 ------------
 Symbolic Z-matrix:
 Charge =  0 Multiplicity = 1

                         Standard orientation:
 ---------------------------------------------------------------------
 Center     Atomic      Atomic             Coordinates (Angstroms)
 Number     Number       Type             X           Y           Z
 ---------------------------------------------------------------------
      1          8           0        0.030212    2.127268    0.000000
      2          1           0        0.027600    1.144670    0.000000
      3          1           0       -0.898431    2.448404    0.000000
      4          8           0        0.030212   -1.951676   -0.000000
      5          1           0        0.959824   -2.269995   -0.000000
      6          1           0       -0.572384   -2.727810   -0.000000
 ---------------------------------------------------------------------

 SCF Done:  E(RHF) =  -33.6566440781     A.U. after   11 cycles
 E2 =    -0.2283831298D+00 EUMP2 =    -0.33885027207930D+02
 CCSD(T)
 CCSD(T)= -0.33901917147D+02

 The electronic state is 1-A'.
 Alpha  occ. eigenvalues --   -1.36938  -1.33730  -0.72588  -0.69367  -0.56971
 Alpha  occ. eigenvalues --   -0.53587  -0.51578  -0.48373
 Alpha virt. eigenvalues --    0.18438   0.22905   0.29332   0.33094   0.78958
 Alpha virt. eigenvalues --    0.82130   0.83492   0.84752   0.86051   0.88133
 Alpha virt. eigenvalues --    1.16128   1.19758   1.20575   1.28821   2.54784

 Mulliken charges:
               1
     1  O   -0.760905
     2  H    0.393381
     3  H    0.365952
     4  O   -0.756611
     5  H    0.379783
     6  H    0.378400
 Sum of Mulliken charges =  -0.00000

 Dipole moment (field-independent basis, Debye):
    X=             -1.3697    Y=             -4.2385    Z=             -0.0000  Tot=              4.4543
 Quadrupole moment (field-independent basis, Debye-Ang):
   XX=             -9.4648   YY=             -7.0970   ZZ=            -14.9981
   XY=             -6.5556   XZ=             -0.0000   YZ=              0.0000

 998\MP4DQ=-33.8962554\MP4SDQ=-33.8983071\CCSD=-33.8993386\CCSD(T)=-33.
 Normal termination of Gaussian 16 at Sun Dec 10 06:19:15 2023.
