 Gaussian 16, Revision A.03,
 Gaussian 16:  ES64L-G16RevA.03 25-Dec-2016

 ------------------
 #p CCSD(T)/CEP-31G
 ------------------

 ------------
 H2O_H2O_1766
 ------------
 Symbolic Z-matrix:
 Charge =  0 Multiplicity = 1

                         Standard orientation:
 ---------------------------------------------------------------------
 Center     Atomic      Atomic             Coordinates (Angstroms)
 Number     Number       Type             X           Y           Z
 ---------------------------------------------------------------------
      1          8           0        0.041197    1.810491   -0.000000
      2          1           0        0.038641    0.827893   -0.000000
      3          1           0       -0.887464    2.131574   -0.000000
      4          8           0        0.041197   -1.630618    0.000000
      5          1           0        0.890874   -2.124131    0.000000
      6          1           0       -0.701200   -2.274321    0.000000
 ---------------------------------------------------------------------

 SCF Done:  E(RHF) =  -33.6599659641     A.U. after   11 cycles
 E2 =    -0.2286906196D+00 EUMP2 =    -0.33888656583688D+02
 CCSD(T)
 CCSD(T)= -0.33905484328D+02

 The electronic state is 1-A'.
 Alpha  occ. eigenvalues --   -1.37608  -1.32735  -0.73253  -0.68458  -0.57973
 Alpha  occ. eigenvalues --   -0.52570  -0.52291  -0.47403
 Alpha virt. eigenvalues --    0.18072   0.24558   0.28852   0.36835   0.77818
 Alpha virt. eigenvalues --    0.81837   0.83537   0.86256   0.89539   0.93476
 Alpha virt. eigenvalues --    1.15516   1.19856   1.20858   1.33505   2.50498

 Mulliken charges:
               1
     1  O   -0.775570
     2  H    0.413941
     3  H    0.359492
     4  O   -0.771110
     5  H    0.388608
     6  H    0.384639
 Sum of Mulliken charges =   0.00000

 Dipole moment (field-independent basis, Debye):
    X=             -1.8482    Y=             -4.4746    Z=              0.0000  Tot=              4.8412
 Quadrupole moment (field-independent basis, Debye-Ang):
   XX=             -9.3928   YY=             -7.7361   ZZ=            -15.0053
   XY=             -5.1620   XZ=              0.0000   YZ=             -0.0000

 9\MP4DQ=-33.8997491\MP4SDQ=-33.9018291\CCSD=-33.9028448\CCSD(T)=-33.90
 Normal termination of Gaussian 16 at Sun Dec 10 06:52:13 2023.
