 Gaussian 16, Revision A.03,
 Gaussian 16:  ES64L-G16RevA.03 25-Dec-2016

 ------------------
 #p CCSD(T)/CEP-31G
 ------------------

 ------------
 H2O_H2O_4732
 ------------
 Symbolic Z-matrix:
 Charge =  0 Multiplicity = 1

                         Standard orientation:
 ---------------------------------------------------------------------
 Center     Atomic      Atomic             Coordinates (Angstroms)
 Number     Number       Type             X           Y           Z
 ---------------------------------------------------------------------
      1          8           0        0.073522    2.990131   -0.000000
      2          1           0        0.072955    2.007530   -0.000000
      3          1           0       -0.855787    3.309334   -0.000000
      4          8           0        0.073522   -2.823166    0.000000
      5          1           0        0.507608   -3.704685    0.000000
      6          1           0       -0.901130   -2.947904    0.000000
 ---------------------------------------------------------------------

 SCF Done:  E(RHF) =  -33.6526643380     A.U. after   11 cycles
 E2 =    -0.2283287595D+00 EUMP2 =    -0.33880993097502D+02
 CCSD(T)
 CCSD(T)= -0.33897968798D+02

 The electronic state is 1-A'.
 Alpha  occ. eigenvalues --   -1.36233  -1.34874  -0.71876  -0.70498  -0.56019
 Alpha  occ. eigenvalues --   -0.54633  -0.50817  -0.49458
 Alpha virt. eigenvalues --    0.19572   0.20990   0.29832   0.31255   0.79739
 Alpha virt. eigenvalues --    0.81072   0.82660   0.84076   0.85783   0.87220
 Alpha virt. eigenvalues --    1.16707   1.18063   1.21153   1.22564   2.56695

 Mulliken charges:
               1
     1  O   -0.744569
     2  H    0.376942
     3  H    0.367623
     4  O   -0.744500
     5  H    0.374309
     6  H    0.370195
 Sum of Mulliken charges =   0.00000

 Dipole moment (field-independent basis, Debye):
    X=             -3.3816    Y=             -3.9128    Z=              0.0000  Tot=              5.1716
 Quadrupole moment (field-independent basis, Debye-Ang):
   XX=            -10.1652   YY=             -6.1641   ZZ=            -14.9902
   XY=             -4.8298   XZ=              0.0000   YZ=             -0.0000

 5863\MP4DQ=-33.8923306\MP4SDQ=-33.894356\CCSD=-33.8954097\CCSD(T)=-33.
 Normal termination of Gaussian 16 at Sun Dec 10 06:58:11 2023.
