 Gaussian 16, Revision A.03,
 Gaussian 16:  ES64L-G16RevA.03 25-Dec-2016

 ------------------
 #p CCSD(T)/CEP-31G
 ------------------

 -----------
 H2O_H2O_794
 -----------
 Symbolic Z-matrix:
 Charge =  0 Multiplicity = 1

                         Standard orientation:
 ---------------------------------------------------------------------
 Center     Atomic      Atomic             Coordinates (Angstroms)
 Number     Number       Type             X           Y           Z
 ---------------------------------------------------------------------
      1          8           0        0.030336    1.419221    0.000000
      2          1           0        0.026335    0.436628    0.000000
      3          1           0       -0.897852    1.741669   -0.000000
      4          8           0        0.030336   -1.243715    0.000000
      5          1           0        0.959498   -1.563348    0.000000
      6          1           0       -0.573356   -2.018997   -0.000000
 ---------------------------------------------------------------------

 SCF Done:  E(RHF) =  -33.6616161967     A.U. after   11 cycles
 E2 =    -0.2288433163D+00 EUMP2 =    -0.33890459513012D+02
 CCSD(T)
 CCSD(T)= -0.33906638069D+02

 The electronic state is 1-A'.
 Alpha  occ. eigenvalues --   -1.39673  -1.30460  -0.75314  -0.68869  -0.59349
 Alpha  occ. eigenvalues --   -0.54373  -0.49775  -0.45077
 Alpha virt. eigenvalues --    0.17483   0.27267   0.27544   0.49075   0.74769
 Alpha virt. eigenvalues --    0.76117   0.86107   0.87638   0.94642   1.02297
 Alpha virt. eigenvalues --    1.16010   1.18645   1.23930   1.37120   2.58298

 Mulliken charges:
               1
     1  O   -0.783609
     2  H    0.426974
     3  H    0.347474
     4  O   -0.825913
     5  H    0.409290
     6  H    0.425785
 Sum of Mulliken charges =   0.00000

 Dipole moment (field-independent basis, Debye):
    X=             -1.3388    Y=             -4.7573    Z=             -0.0000  Tot=              4.9421
 Quadrupole moment (field-independent basis, Debye-Ang):
   XX=             -9.4077   YY=             -9.1426   ZZ=            -15.0189
   XY=             -4.3653   XZ=              0.0000   YZ=             -0.0000

 \MP4DQ=-33.9007466\MP4SDQ=-33.9028858\CCSD=-33.9037778\CCSD(T)=-33.906
 Normal termination of Gaussian 16 at Sun Dec 10 06:33:27 2023.
