 Gaussian 16, Revision A.03,
 Gaussian 16:  ES64L-G16RevA.03 25-Dec-2016

 ------------------
 #p CCSD(T)/CEP-31G
 ------------------

 ------------
 H2O_H2O_4716
 ------------
 Symbolic Z-matrix:
 Charge =  0 Multiplicity = 1

                         Standard orientation:
 ---------------------------------------------------------------------
 Center     Atomic      Atomic             Coordinates (Angstroms)
 Number     Number       Type             X           Y           Z
 ---------------------------------------------------------------------
      1          8           0        0.041102    2.987221   -0.000000
      2          1           0        0.039584    2.004621   -0.000000
      3          1           0       -0.887898    3.307323   -0.000000
      4          8           0        0.041102   -2.807261    0.000000
      5          1           0        0.891300   -3.299875    0.000000
      6          1           0       -0.700615   -3.451747    0.000000
 ---------------------------------------------------------------------

 SCF Done:  E(RHF) =  -33.6532280922     A.U. after   11 cycles
 E2 =    -0.2283022097D+00 EUMP2 =    -0.33881530301902D+02
 CCSD(T)
 CCSD(T)= -0.33898489942D+02

 The electronic state is 1-A'.
 Alpha  occ. eigenvalues --   -1.36215  -1.34717  -0.71853  -0.70349  -0.56031
 Alpha  occ. eigenvalues --   -0.54500  -0.50808  -0.49313
 Alpha virt. eigenvalues --    0.19630   0.21173   0.29885   0.31453   0.79744
 Alpha virt. eigenvalues --    0.81207   0.82614   0.84197   0.85795   0.87307
 Alpha virt. eigenvalues --    1.16749   1.18247   1.21194   1.22740   2.56724

 Mulliken charges:
               1
     1  O   -0.746726
     2  H    0.378087
     3  H    0.368634
     4  O   -0.746221
     5  H    0.373948
     6  H    0.372278
 Sum of Mulliken charges =  -0.00000

 Dipole moment (field-independent basis, Debye):
    X=             -1.8887    Y=             -4.2151    Z=              0.0000  Tot=              4.6189
 Quadrupole moment (field-independent basis, Debye-Ang):
   XX=             -9.4137   YY=             -4.9503   ZZ=            -14.9915
   XY=             -8.0140   XZ=              0.0000   YZ=             -0.0000

 92\MP4DQ=-33.8928562\MP4SDQ=-33.8948801\CCSD=-33.8959327\CCSD(T)=-33.8
 Normal termination of Gaussian 16 at Sun Dec 10 06:57:53 2023.
