 Gaussian 16, Revision A.03,
 Gaussian 16:  ES64L-G16RevA.03 25-Dec-2016

 ------------------
 #p CCSD(T)/CEP-31G
 ------------------

 ------------
 H2O_H2O_1615
 ------------
 Symbolic Z-matrix:
 Charge =  0 Multiplicity = 1

                         Standard orientation:
 ---------------------------------------------------------------------
 Center     Atomic      Atomic             Coordinates (Angstroms)
 Number     Number       Type             X           Y           Z
 ---------------------------------------------------------------------
      1          8           0        0.044918    1.750914    0.000000
      2          1           0        0.042460    0.768315    0.000000
      3          1           0       -0.883775    2.071904   -0.000000
      4          8           0        0.044918   -1.570574    0.000000
      5          1           0        0.860554   -2.118519    0.000000
      6          1           0       -0.737931   -2.164420   -0.000000
 ---------------------------------------------------------------------

 SCF Done:  E(RHF) =  -33.6606953715     A.U. after   11 cycles
 E2 =    -0.2287851971D+00 EUMP2 =    -0.33889480568552D+02
 CCSD(T)
 CCSD(T)= -0.33906274015D+02

 The electronic state is 1-A'.
 Alpha  occ. eigenvalues --   -1.37796  -1.32490  -0.73435  -0.68283  -0.58242
 Alpha  occ. eigenvalues --   -0.52490  -0.52298  -0.47157
 Alpha virt. eigenvalues --    0.17995   0.24914   0.28711   0.38079   0.77451
 Alpha virt. eigenvalues --    0.81119   0.83979   0.86142   0.90542   0.95416
 Alpha virt. eigenvalues --    1.15332   1.19788   1.21013   1.33737   2.49879

 Mulliken charges:
               1
     1  O   -0.778344
     2  H    0.419288
     3  H    0.357257
     4  O   -0.776260
     5  H    0.392085
     6  H    0.385973
 Sum of Mulliken charges =  -0.00000

 Dipole moment (field-independent basis, Debye):
    X=             -2.0080    Y=             -4.5213    Z=             -0.0000  Tot=              4.9472
 Quadrupole moment (field-independent basis, Debye-Ang):
   XX=             -9.4058   YY=             -7.9086   ZZ=            -15.0073
   XY=             -4.8807   XZ=              0.0000   YZ=             -0.0000

 7927\MP4DQ=-33.9005201\MP4SDQ=-33.9026044\CCSD=-33.903613\CCSD(T)=-33.
 Normal termination of Gaussian 16 at Sun Dec 10 06:49:22 2023.
