 Gaussian 16, Revision A.03,
 Gaussian 16:  ES64L-G16RevA.03 25-Dec-2016

 ------------------
 #p CCSD(T)/CEP-31G
 ------------------

 -----------
 H2O_H2O_643
 -----------
 Symbolic Z-matrix:
 Charge =  0 Multiplicity = 1

                         Standard orientation:
 ---------------------------------------------------------------------
 Center     Atomic      Atomic             Coordinates (Angstroms)
 Number     Number       Type             X           Y           Z
 ---------------------------------------------------------------------
      1          8           0        0.033947    1.360421    0.000000
      2          1           0        0.029998    0.377827    0.000000
      3          1           0       -0.894258    1.682819    0.000000
      4          8           0        0.033947   -1.183017   -0.000000
      5          1           0        0.940233   -1.562687   -0.000000
      6          1           0       -0.619121   -1.917190   -0.000000
 ---------------------------------------------------------------------

 SCF Done:  E(RHF) =  -33.6587611089     A.U. after   11 cycles
 E2 =    -0.2288114976D+00 EUMP2 =    -0.33887572606490D+02
 CCSD(T)
 CCSD(T)= -0.33903456150D+02

 The electronic state is 1-A'.
 Alpha  occ. eigenvalues --   -1.40367  -1.29790  -0.75857  -0.70005  -0.58937
 Alpha  occ. eigenvalues --   -0.55019  -0.48846  -0.44342
 Alpha virt. eigenvalues --    0.17315   0.27137   0.27878   0.52181   0.74314
 Alpha virt. eigenvalues --    0.75093   0.85969   0.88552   0.95751   1.00360
 Alpha virt. eigenvalues --    1.15743   1.18449   1.24506   1.37317   2.63720

 Mulliken charges:
               1
     1  O   -0.780165
     2  H    0.423532
     3  H    0.341031
     4  O   -0.832916
     5  H    0.417698
     6  H    0.430820
 Sum of Mulliken charges =   0.00000

 Dipole moment (field-independent basis, Debye):
    X=             -1.4802    Y=             -4.9205    Z=             -0.0000  Tot=              5.1383
 Quadrupole moment (field-independent basis, Debye-Ang):
   XX=             -9.3551   YY=             -9.4355   ZZ=            -15.0163
   XY=             -4.0957   XZ=              0.0000   YZ=              0.0000

 8\MP4DQ=-33.8975273\MP4SDQ=-33.8996842\CCSD=-33.9005246\CCSD(T)=-33.90
 Normal termination of Gaussian 16 at Sun Dec 10 06:30:37 2023.
