 Gaussian 16, Revision A.03,
 Gaussian 16:  ES64L-G16RevA.03 25-Dec-2016

 ------------------
 #p CCSD(T)/CEP-31G
 ------------------

 ------------
 H2O_H2O_1175
 ------------
 Symbolic Z-matrix:
 Charge =  0 Multiplicity = 1

                         Standard orientation:
 ---------------------------------------------------------------------
 Center     Atomic      Atomic             Coordinates (Angstroms)
 Number     Number       Type             X           Y           Z
 ---------------------------------------------------------------------
      1          8           0        0.092949   -1.555552    0.000000
      2          1           0        0.092949   -0.572951    0.000000
      3          1           0       -0.836544   -1.874219    0.000000
      4          8           0        0.092949    1.422765    0.000000
      5          1           0        0.092950    2.405367    0.000000
      6          1           0       -0.836544    1.104099    0.000000
 ---------------------------------------------------------------------

 SCF Done:  E(RHF) =  -33.6511439845     A.U. after   11 cycles
 E2 =    -0.2293419503D+00 EUMP2 =    -0.33880485934769D+02
 CCSD(T)
 CCSD(T)= -0.33897531244D+02

 The electronic state is 1-A'.
 Alpha  occ. eigenvalues --   -1.38833  -1.33762  -0.75221  -0.69076  -0.58623
 Alpha  occ. eigenvalues --   -0.53308  -0.53297  -0.48254
 Alpha virt. eigenvalues --    0.16515   0.24837   0.27858   0.40502   0.75715
 Alpha virt. eigenvalues --    0.80363   0.84354   0.84610   0.89857   1.11651
 Alpha virt. eigenvalues --    1.15262   1.21096   1.22831   1.39274   2.50386

 Mulliken charges:
               1
     1  O   -0.743250
     2  H    0.382578
     3  H    0.348961
     4  O   -0.759903
     5  H    0.409096
     6  H    0.362518
 Sum of Mulliken charges =  -0.00000

 Dipole moment (field-independent basis, Debye):
    X=             -4.1433    Y=              3.4905    Z=              0.0000  Tot=              5.4176
 Quadrupole moment (field-independent basis, Debye-Ang):
   XX=            -11.3526   YY=             -9.6132   ZZ=            -14.9866
   XY=              2.2409   XZ=              0.0000   YZ=              0.0000

 945\MP4DQ=-33.8915714\MP4SDQ=-33.8937954\CCSD=-33.8947685\CCSD(T)=-33.
 Normal termination of Gaussian 16 at Sun Dec 10 06:40:38 2023.
