 Gaussian 16, Revision A.03,
 Gaussian 16:  ES64L-G16RevA.03 25-Dec-2016

 ------------------
 #p CCSD(T)/CEP-31G
 ------------------

 ------------
 H2O_H2O_4560
 ------------
 Symbolic Z-matrix:
 Charge =  0 Multiplicity = 1

                         Standard orientation:
 ---------------------------------------------------------------------
 Center     Atomic      Atomic             Coordinates (Angstroms)
 Number     Number       Type             X           Y           Z
 ---------------------------------------------------------------------
      1          8           0        0.063216    2.924984    0.000000
      2          1           0        0.062327    1.942383    0.000000
      3          1           0       -0.865988    3.244492    0.000000
      4          8           0        0.063216   -2.749448   -0.000000
      5          1           0        0.660680   -3.529538   -0.000000
      6          1           0       -0.868476   -3.061629   -0.000000
 ---------------------------------------------------------------------

 SCF Done:  E(RHF) =  -33.6529992265     A.U. after   11 cycles
 E2 =    -0.2283146004D+00 EUMP2 =    -0.33881313826907D+02
 CCSD(T)
 CCSD(T)= -0.33898279758D+02

 The electronic state is 1-A'.
 Alpha  occ. eigenvalues --   -1.36256  -1.34739  -0.71897  -0.70364  -0.56061
 Alpha  occ. eigenvalues --   -0.54509  -0.50845  -0.49328
 Alpha virt. eigenvalues --    0.19567   0.21150   0.29828   0.31425   0.79710
 Alpha virt. eigenvalues --    0.81194   0.82592   0.84193   0.85751   0.87329
 Alpha virt. eigenvalues --    1.16699   1.18214   1.21142   1.22727   2.56677

 Mulliken charges:
               1
     1  O   -0.745864
     2  H    0.378232
     3  H    0.367623
     4  O   -0.745570
     5  H    0.374543
     6  H    0.371036
 Sum of Mulliken charges =  -0.00000

 Dipole moment (field-independent basis, Debye):
    X=             -2.9052    Y=             -4.1170    Z=             -0.0000  Tot=              5.0388
 Quadrupole moment (field-independent basis, Debye-Ang):
   XX=             -9.7752   YY=             -5.4912   ZZ=            -14.9910
   XY=             -5.8183   XZ=             -0.0000   YZ=              0.0000

 8982\MP4DQ=-33.8926441\MP4SDQ=-33.8946687\CCSD=-33.8957215\CCSD(T)=-33
 Normal termination of Gaussian 16 at Sun Dec 10 06:55:05 2023.
