 Gaussian 16, Revision A.03,
 Gaussian 16:  ES64L-G16RevA.03 25-Dec-2016

 ------------------
 #p CCSD(T)/CEP-31G
 ------------------

 ------------
 H2O_H2O_1605
 ------------
 Symbolic Z-matrix:
 Charge =  0 Multiplicity = 1

                         Standard orientation:
 ---------------------------------------------------------------------
 Center     Atomic      Atomic             Coordinates (Angstroms)
 Number     Number       Type             X           Y           Z
 ---------------------------------------------------------------------
      1          8           0        0.079866   -1.739333    0.000000
      2          1           0        0.079197   -0.756731    0.000000
      3          1           0       -0.849409   -2.058632    0.000000
      4          8           0        0.079866    1.580300    0.000000
      5          1           0        0.395080    2.510971    0.000000
      6          1           0       -0.902729    1.576651    0.000000
 ---------------------------------------------------------------------

 SCF Done:  E(RHF) =  -33.6565631119     A.U. after   11 cycles
 E2 =    -0.2288744423D+00 EUMP2 =    -0.33885437554268D+02
 CCSD(T)
 CCSD(T)= -0.33902402620D+02

 The electronic state is 1-A'.
 Alpha  occ. eigenvalues --   -1.37908  -1.33322  -0.73690  -0.68938  -0.58032
 Alpha  occ. eigenvalues --   -0.53030  -0.52517  -0.47913
 Alpha virt. eigenvalues --    0.17284   0.24464   0.28407   0.37053   0.77338
 Alpha virt. eigenvalues --    0.81420   0.83425   0.85167   0.89743   1.01025
 Alpha virt. eigenvalues --    1.15071   1.18437   1.21156   1.38043   2.50882

 Mulliken charges:
               1
     1  O   -0.762946
     2  H    0.406234
     3  H    0.353687
     4  O   -0.767289
     5  H    0.398136
     6  H    0.372179
 Sum of Mulliken charges =  -0.00000

 Dipole moment (field-independent basis, Debye):
    X=             -3.5861    Y=              4.0117    Z=              0.0000  Tot=              5.3809
 Quadrupole moment (field-independent basis, Debye-Ang):
   XX=            -10.5037   YY=             -8.5245   ZZ=            -14.9970
   XY=              3.3250   XZ=              0.0000   YZ=              0.0000

 8765\MP4DQ=-33.8965974\MP4SDQ=-33.898722\CCSD=-33.8997374\CCSD(T)=-33.
 Normal termination of Gaussian 16 at Sun Dec 10 06:49:11 2023.
