 Gaussian 16, Revision A.03,
 Gaussian 16:  ES64L-G16RevA.03 25-Dec-2016

 ------------------
 #p CCSD(T)/CEP-31G
 ------------------

 ------------
 H2O_H2O_2574
 ------------
 Symbolic Z-matrix:
 Charge =  0 Multiplicity = 1

                         Standard orientation:
 ---------------------------------------------------------------------
 Center     Atomic      Atomic             Coordinates (Angstroms)
 Number     Number       Type             X           Y           Z
 ---------------------------------------------------------------------
      1          8           0       -0.013546    2.118396    0.000000
      2          1           0       -0.010240    1.135800    0.000000
      3          1           0        0.914870    2.440188    0.000000
      4          8           0       -0.013546   -1.959144    0.000000
      5          1           0       -0.996142   -1.962449    0.000000
      6          1           0        0.308246   -2.887559    0.000000
 ---------------------------------------------------------------------

 SCF Done:  E(RHF) =  -33.6562348178     A.U. after   11 cycles
 E2 =    -0.2283720631D+00 EUMP2 =    -0.33884606880919D+02
 CCSD(T)
 CCSD(T)= -0.33901514793D+02

 The electronic state is 1-A'.
 Alpha  occ. eigenvalues --   -1.36922  -1.34046  -0.72588  -0.69698  -0.56921
 Alpha  occ. eigenvalues --   -0.53905  -0.51552  -0.48689
 Alpha virt. eigenvalues --    0.18045   0.22855   0.29331   0.32774   0.78972
 Alpha virt. eigenvalues --    0.81838   0.82929   0.84647   0.86815   0.87759
 Alpha virt. eigenvalues --    1.16031   1.19554   1.20603   1.29679   2.55513

 Mulliken charges:
               1
     1  O   -0.759479
     2  H    0.389089
     3  H    0.369050
     4  O   -0.756557
     5  H    0.377811
     6  H    0.380086
 Sum of Mulliken charges =  -0.00000

 Dipole moment (field-independent basis, Debye):
    X=              0.6132    Y=             -3.8363    Z=              0.0000  Tot=              3.8850
 Quadrupole moment (field-independent basis, Debye-Ang):
   XX=             -9.8657   YY=             -7.9384   ZZ=            -14.9968
   XY=              7.6400   XZ=              0.0000   YZ=              0.0000

 0951\MP4DQ=-33.8958495\MP4SDQ=-33.8979021\CCSD=-33.8989346\CCSD(T)=-33
 Normal termination of Gaussian 16 at Sun Dec 10 06:19:20 2023.
