 Gaussian 16, Revision A.03,
 Gaussian 16:  ES64L-G16RevA.03 25-Dec-2016

 ------------------
 #p CCSD(T)/CEP-31G
 ------------------

 ------------
 H2O_H2O_1330
 ------------
 Symbolic Z-matrix:
 Charge =  0 Multiplicity = 1

                         Standard orientation:
 ---------------------------------------------------------------------
 Center     Atomic      Atomic             Coordinates (Angstroms)
 Number     Number       Type             X           Y           Z
 ---------------------------------------------------------------------
      1          8           0        0.079870   -1.629637    0.000000
      2          1           0        0.079153   -0.647036    0.000000
      3          1           0       -0.849390   -1.948982    0.000000
      4          8           0        0.079870    1.470613    0.000000
      5          1           0        0.395039    2.401298    0.000000
      6          1           0       -0.902725    1.466916    0.000000
 ---------------------------------------------------------------------

 SCF Done:  E(RHF) =  -33.6570666416     A.U. after   11 cycles
 E2 =    -0.2289823472D+00 EUMP2 =    -0.33886048988767D+02
 CCSD(T)
 CCSD(T)= -0.33902966331D+02

 The electronic state is 1-A'.
 Alpha  occ. eigenvalues --   -1.38358  -1.32902  -0.74226  -0.68644  -0.58527
 Alpha  occ. eigenvalues --   -0.52961  -0.52543  -0.47480
 Alpha virt. eigenvalues --    0.17179   0.25078   0.28056   0.39706   0.76488
 Alpha virt. eigenvalues --    0.80237   0.84394   0.85161   0.90968   1.07868
 Alpha virt. eigenvalues --    1.15333   1.17592   1.21687   1.38261   2.50265

 Mulliken charges:
               1
     1  O   -0.764280
     2  H    0.410458
     3  H    0.349652
     4  O   -0.778482
     5  H    0.408765
     6  H    0.373886
 Sum of Mulliken charges =   0.00000

 Dipole moment (field-independent basis, Debye):
    X=             -3.5577    Y=              4.0976    Z=              0.0000  Tot=              5.4265
 Quadrupole moment (field-independent basis, Debye-Ang):
   XX=            -10.5097   YY=             -8.7122   ZZ=            -14.9993
   XY=              3.2583   XZ=              0.0000   YZ=              0.0000

 2\MP4DQ=-33.8971077\MP4SDQ=-33.8992589\CCSD=-33.9002585\CCSD(T)=-33.90
 Normal termination of Gaussian 16 at Sun Dec 10 06:43:42 2023.
