 Gaussian 16, Revision A.03,
 Gaussian 16:  ES64L-G16RevA.03 25-Dec-2016

 ------------------
 #p CCSD(T)/CEP-31G
 ------------------

 ------------
 H2O_H2O_2896
 ------------
 Symbolic Z-matrix:
 Charge =  0 Multiplicity = 1

                         Standard orientation:
 ---------------------------------------------------------------------
 Center     Atomic      Atomic             Coordinates (Angstroms)
 Number     Number       Type             X           Y           Z
 ---------------------------------------------------------------------
      1          8           0       -0.023219    2.254073    0.000000
      2          1           0       -0.020490    1.271475    0.000000
      3          1           0        0.905385    2.575319    0.000000
      4          8           0       -0.023219   -2.083692    0.000000
      5          1           0       -0.986405   -2.278063    0.000000
      6          1           0        0.473016   -2.931782    0.000000
 ---------------------------------------------------------------------

 SCF Done:  E(RHF) =  -33.6556921520     A.U. after   11 cycles
 E2 =    -0.2283205414D+00 EUMP2 =    -0.33884012693452D+02
 CCSD(T)
 CCSD(T)= -0.33900915510D+02

 The electronic state is 1-A'.
 Alpha  occ. eigenvalues --   -1.36752  -1.34063  -0.72402  -0.69702  -0.56714
 Alpha  occ. eigenvalues --   -0.53909  -0.51378  -0.48696
 Alpha virt. eigenvalues --    0.18624   0.22391   0.29440   0.32461   0.79183
 Alpha virt. eigenvalues --    0.81790   0.82709   0.84462   0.85718   0.87868
 Alpha virt. eigenvalues --    1.16273   1.19347   1.20695   1.26613   2.55901

 Mulliken charges:
               1
     1  O   -0.756680
     2  H    0.387919
     3  H    0.367845
     4  O   -0.754117
     5  H    0.377583
     6  H    0.377451
 Sum of Mulliken charges =   0.00000

 Dipole moment (field-independent basis, Debye):
    X=              1.0558    Y=             -4.0758    Z=              0.0000  Tot=              4.2103
 Quadrupole moment (field-independent basis, Debye-Ang):
   XX=             -9.5901   YY=             -7.1157   ZZ=            -14.9962
   XY=              7.3976   XZ=              0.0000   YZ=              0.0000

 5152\MP4DQ=-33.8952705\MP4SDQ=-33.89731\CCSD=-33.8983473\CCSD(T)=-33.9
 Normal termination of Gaussian 16 at Sun Dec 10 06:25:07 2023.
