 Gaussian 16, Revision A.03,
 Gaussian 16:  ES64L-G16RevA.03 25-Dec-2016

 ------------------
 #p CCSD(T)/CEP-31G
 ------------------

 ------------
 H2O_H2O_3884
 ------------
 Symbolic Z-matrix:
 Charge =  0 Multiplicity = 1

                         Standard orientation:
 ---------------------------------------------------------------------
 Center     Atomic      Atomic             Coordinates (Angstroms)
 Number     Number       Type             X           Y           Z
 ---------------------------------------------------------------------
      1          8           0        0.066750    2.654430    0.000000
      2          1           0        0.065884    1.671829    0.000000
      3          1           0       -0.862462    2.973915    0.000000
      4          8           0        0.066750   -2.481310   -0.000000
      5          1           0        0.611934   -3.298794   -0.000000
      6          1           0       -0.883358   -2.731910   -0.000000
 ---------------------------------------------------------------------

 SCF Done:  E(RHF) =  -33.6533904924     A.U. after   11 cycles
 E2 =    -0.2283103392D+00 EUMP2 =    -0.33881700831636D+02
 CCSD(T)
 CCSD(T)= -0.33898655587D+02

 The electronic state is 1-A'.
 Alpha  occ. eigenvalues --   -1.36414  -1.34563  -0.72059  -0.70182  -0.56243
 Alpha  occ. eigenvalues --   -0.54340  -0.51008  -0.49156
 Alpha virt. eigenvalues --    0.19344   0.21414   0.29676   0.31668   0.79554
 Alpha virt. eigenvalues --    0.81356   0.82358   0.84377   0.85548   0.87546
 Alpha virt. eigenvalues --    1.16556   1.18437   1.20971   1.23156   2.56523

 Mulliken charges:
               1
     1  O   -0.747399
     2  H    0.380885
     3  H    0.366430
     4  O   -0.747015
     5  H    0.376022
     6  H    0.371078
 Sum of Mulliken charges =   0.00000

 Dipole moment (field-independent basis, Debye):
    X=             -3.0608    Y=             -4.0826    Z=             -0.0000  Tot=              5.1026
 Quadrupole moment (field-independent basis, Debye-Ang):
   XX=             -9.8943   YY=             -6.2251   ZZ=            -14.9917
   XY=             -5.1412   XZ=             -0.0000   YZ=              0.0000

 733\MP4DQ=-33.8930205\MP4SDQ=-33.895046\CCSD=-33.8960965\CCSD(T)=-33.8
 Normal termination of Gaussian 16 at Sun Dec 10 06:42:54 2023.
