 Gaussian 16, Revision A.03,
 Gaussian 16:  ES64L-G16RevA.03 25-Dec-2016

 ------------------
 #p CCSD(T)/CEP-31G
 ------------------

 -----------
 H2O_H2O_388
 -----------
 Symbolic Z-matrix:
 Charge =  0 Multiplicity = 1

                         Standard orientation:
 ---------------------------------------------------------------------
 Center     Atomic      Atomic             Coordinates (Angstroms)
 Number     Number       Type             X           Y           Z
 ---------------------------------------------------------------------
      1          8           0        0.052428    1.261966   -0.000000
      2          1           0        0.049484    0.279369   -0.000000
      3          1           0       -0.876106    1.583416    0.000000
      4          8           0        0.052428   -1.082227   -0.000000
      5          1           0        0.789243   -1.732312   -0.000000
      6          1           0       -0.801476   -1.568389    0.000000
 ---------------------------------------------------------------------

 SCF Done:  E(RHF) =  -33.6452654426     A.U. after   11 cycles
 E2 =    -0.2287355045D+00 EUMP2 =    -0.33874000947004D+02
 CCSD(T)
 CCSD(T)= -0.33889293088D+02

 The electronic state is 1-A'.
 Alpha  occ. eigenvalues --   -1.42126  -1.28607  -0.77032  -0.73437  -0.57312
 Alpha  occ. eigenvalues --   -0.56487  -0.47000  -0.42939
 Alpha virt. eigenvalues --    0.16785   0.26281   0.28859   0.57469   0.73675
 Alpha virt. eigenvalues --    0.73753   0.85788   0.90059   0.94658   1.03740
 Alpha virt. eigenvalues --    1.13414   1.17372   1.25355   1.35751   2.77119

 Mulliken charges:
               1
     1  O   -0.765281
     2  H    0.404485
     3  H    0.322192
     4  O   -0.831703
     5  H    0.447742
     6  H    0.422566
 Sum of Mulliken charges =  -0.00000

 Dipole moment (field-independent basis, Debye):
    X=             -2.1826    Y=             -5.2466    Z=              0.0000  Tot=              5.6825
 Quadrupole moment (field-independent basis, Debye-Ang):
   XX=             -9.4242   YY=            -10.0168   ZZ=            -14.9944
   XY=             -3.5993   XZ=             -0.0000   YZ=              0.0000

 258\MP4DQ=-33.8832474\MP4SDQ=-33.88548\CCSD=-33.8862097\CCSD(T)=-33.88
 Normal termination of Gaussian 16 at Sun Dec 10 06:25:42 2023.
