 Gaussian 16, Revision A.03,
 Gaussian 16:  ES64L-G16RevA.03 25-Dec-2016

 ------------------
 #p CCSD(T)/CEP-31G
 ------------------

 ------------
 H2O_H2O_2350
 ------------
 Symbolic Z-matrix:
 Charge =  0 Multiplicity = 1

                         Standard orientation:
 ---------------------------------------------------------------------
 Center     Atomic      Atomic             Coordinates (Angstroms)
 Number     Number       Type             X           Y           Z
 ---------------------------------------------------------------------
      1          8           0        0.092949   -2.024233    0.000000
      2          1           0        0.092949   -1.041632    0.000000
      3          1           0       -0.836544   -2.342900    0.000000
      4          8           0        0.092949    1.891446    0.000000
      5          1           0        0.092950    2.874048    0.000000
      6          1           0       -0.836544    1.572780    0.000000
 ---------------------------------------------------------------------

 SCF Done:  E(RHF) =  -33.6526407828     A.U. after   11 cycles
 E2 =    -0.2286392471D+00 EUMP2 =    -0.33881280029904D+02
 CCSD(T)
 CCSD(T)= -0.33898302863D+02

 The electronic state is 1-A'.
 Alpha  occ. eigenvalues --   -1.37197  -1.34708  -0.72927  -0.70258  -0.57008
 Alpha  occ. eigenvalues --   -0.54418  -0.51765  -0.49268
 Alpha virt. eigenvalues --    0.16688   0.22941   0.28908   0.32656   0.78703
 Alpha virt. eigenvalues --    0.81429   0.82786   0.84293   0.87598   0.88717
 Alpha virt. eigenvalues --    1.15401   1.18618   1.20538   1.32549   2.55833

 Mulliken charges:
               1
     1  O   -0.746119
     2  H    0.383579
     3  H    0.361319
     4  O   -0.745946
     5  H    0.382819
     6  H    0.364348
 Sum of Mulliken charges =  -0.00000

 Dipole moment (field-independent basis, Debye):
    X=             -4.2315    Y=              3.2274    Z=              0.0000  Tot=              5.3218
 Quadrupole moment (field-independent basis, Debye-Ang):
   XX=            -11.3070   YY=             -9.5665   ZZ=            -14.9876
   XY=              2.2864   XZ=              0.0000   YZ=              0.0000

 3\MP4DQ=-33.8925913\MP4SDQ=-33.8946655\CCSD=-33.895699\CCSD(T)=-33.898
 Normal termination of Gaussian 16 at Sun Dec 10 07:04:41 2023.
