 Gaussian 16, Revision A.03,
 Gaussian 16:  ES64L-G16RevA.03 25-Dec-2016

 ------------------
 #p CCSD(T)/CEP-31G
 ------------------

 ------------
 H2O_H2O_3011
 ------------
 Symbolic Z-matrix:
 Charge =  0 Multiplicity = 1

                         Standard orientation:
 ---------------------------------------------------------------------
 Center     Atomic      Atomic             Coordinates (Angstroms)
 Number     Number       Type             X           Y           Z
 ---------------------------------------------------------------------
      1          8           0        0.059643    2.307761    0.000000
      2          1           0        0.058369    1.325161    0.000000
      3          1           0       -0.869436    2.627633    0.000000
      4          8           0        0.059643   -2.130319   -0.000000
      5          1           0        0.706559   -2.869918   -0.000000
      6          1           0       -0.849782   -2.502412   -0.000000
 ---------------------------------------------------------------------

 SCF Done:  E(RHF) =  -33.6548603377     A.U. after   11 cycles
 E2 =    -0.2283455288D+00 EUMP2 =    -0.33883205866553D+02
 CCSD(T)
 CCSD(T)= -0.33900124995D+02

 The electronic state is 1-A'.
 Alpha  occ. eigenvalues --   -1.36728  -1.34076  -0.72378  -0.69687  -0.56645
 Alpha  occ. eigenvalues --   -0.53883  -0.51342  -0.48687
 Alpha virt. eigenvalues --    0.18782   0.22218   0.29432   0.32345   0.79229
 Alpha virt. eigenvalues --    0.81802   0.82595   0.84829   0.85190   0.88048
 Alpha virt. eigenvalues --    1.16294   1.19200   1.20705   1.25641   2.55972

 Mulliken charges:
               1
     1  O   -0.753261
     2  H    0.388038
     3  H    0.364434
     4  O   -0.751332
     5  H    0.379028
     6  H    0.373092
 Sum of Mulliken charges =   0.00000

 Dipole moment (field-independent basis, Debye):
    X=             -2.7209    Y=             -4.2410    Z=             -0.0000  Tot=              5.0388
 Quadrupole moment (field-independent basis, Debye-Ang):
   XX=             -9.6724   YY=             -6.6307   ZZ=            -14.9946
   XY=             -5.2048   XZ=             -0.0000   YZ=              0.0000

 286\MP4DQ=-33.8944808\MP4SDQ=-33.8965183\CCSD=-33.8975583\CCSD(T)=-33.
 Normal termination of Gaussian 16 at Sun Dec 10 06:27:15 2023.
