 Gaussian 16, Revision A.03,
 Gaussian 16:  ES64L-G16RevA.03 25-Dec-2016

 ------------------
 #p CCSD(T)/CEP-31G
 ------------------

 ------------
 H2O_H2O_1423
 ------------
 Symbolic Z-matrix:
 Charge =  0 Multiplicity = 1

                         Standard orientation:
 ---------------------------------------------------------------------
 Center     Atomic      Atomic             Coordinates (Angstroms)
 Number     Number       Type             X           Y           Z
 ---------------------------------------------------------------------
      1          8           0       -0.016729    1.661915    0.000000
      2          1           0       -0.012631    0.679323    0.000000
      3          1           0        0.911427    1.984456    0.000000
      4          8           0       -0.016729   -1.498567    0.000000
      5          1           0       -0.996951   -1.566921    0.000000
      6          1           0        0.365825   -2.403641    0.000000
 ---------------------------------------------------------------------

 SCF Done:  E(RHF) =  -33.6609621535     A.U. after   11 cycles
 E2 =    -0.2287011368D+00 EUMP2 =    -0.33889663290351D+02
 CCSD(T)
 CCSD(T)= -0.33906480996D+02

 The electronic state is 1-A'.
 Alpha  occ. eigenvalues --   -1.38055  -1.32577  -0.73834  -0.68437  -0.58537
 Alpha  occ. eigenvalues --   -0.52732  -0.52370  -0.47267
 Alpha virt. eigenvalues --    0.17721   0.25340   0.28507   0.39353   0.76842
 Alpha virt. eigenvalues --    0.80210   0.84330   0.86363   0.89278   1.05061
 Alpha virt. eigenvalues --    1.15832   1.18054   1.21749   1.37157   2.51040

 Mulliken charges:
               1
     1  O   -0.780439
     2  H    0.412762
     3  H    0.363707
     4  O   -0.786243
     5  H    0.388429
     6  H    0.401784
 Sum of Mulliken charges =   0.00000

 Dipole moment (field-independent basis, Debye):
    X=              0.7494    Y=             -4.1598    Z=              0.0000  Tot=              4.2268
 Quadrupole moment (field-independent basis, Debye-Ang):
   XX=             -9.7440   YY=             -8.5056   ZZ=            -15.0078
   XY=              5.7552   XZ=              0.0000   YZ=              0.0000

 562\MP4DQ=-33.9006809\MP4SDQ=-33.9027971\CCSD=-33.9037985\CCSD(T)=-33.
 Normal termination of Gaussian 16 at Sun Dec 10 06:45:33 2023.
