 Gaussian 16, Revision A.03,
 Gaussian 16:  ES64L-G16RevA.03 25-Dec-2016

 ------------------
 #p CCSD(T)/CEP-31G
 ------------------

 ------------
 H2O_H2O_4137
 ------------
 Symbolic Z-matrix:
 Charge =  0 Multiplicity = 1

                         Standard orientation:
 ---------------------------------------------------------------------
 Center     Atomic      Atomic             Coordinates (Angstroms)
 Number     Number       Type             X           Y           Z
 ---------------------------------------------------------------------
      1          8           0        0.055971    2.757307    0.000000
      2          1           0        0.054795    1.774706    0.000000
      3          1           0       -0.873140    3.077085   -0.000000
      4          8           0        0.055971   -2.578375    0.000000
      5          1           0        0.749944   -3.274010    0.000000
      6          1           0       -0.827127   -3.009238   -0.000000
 ---------------------------------------------------------------------

 SCF Done:  E(RHF) =  -33.6534545514     A.U. after   11 cycles
 E2 =    -0.2283001028D+00 EUMP2 =    -0.33881754654272D+02
 CCSD(T)
 CCSD(T)= -0.33898707484D+02

 The electronic state is 1-A'.
 Alpha  occ. eigenvalues --   -1.36339  -1.34568  -0.71981  -0.70192  -0.56172
 Alpha  occ. eigenvalues --   -0.54352  -0.50935  -0.49164
 Alpha virt. eigenvalues --    0.19480   0.21373   0.29769   0.31645   0.79622
 Alpha virt. eigenvalues --    0.81349   0.82434   0.84355   0.85644   0.87485
 Alpha virt. eigenvalues --    1.16634   1.18417   1.21071   1.22992   2.56597

 Mulliken charges:
               1
     1  O   -0.747634
     2  H    0.380317
     3  H    0.367274
     4  O   -0.747068
     5  H    0.375264
     6  H    0.371846
 Sum of Mulliken charges =  -0.00000

 Dipole moment (field-independent basis, Debye):
    X=             -2.5680    Y=             -4.2088    Z=             -0.0000  Tot=              4.9303
 Quadrupole moment (field-independent basis, Debye-Ang):
   XX=             -9.5848   YY=             -5.5574   ZZ=            -14.9920
   XY=             -6.2174   XZ=              0.0000   YZ=             -0.0000

 66\MP4DQ=-33.8930743\MP4SDQ=-33.8950986\CCSD=-33.8961498\CCSD(T)=-33.8
 Normal termination of Gaussian 16 at Sun Dec 10 06:47:27 2023.
