 Gaussian 16, Revision A.03,
 Gaussian 16:  ES64L-G16RevA.03 25-Dec-2016

 ------------------
 #p CCSD(T)/CEP-31G
 ------------------

 ------------
 H2O_H2O_1777
 ------------
 Symbolic Z-matrix:
 Charge =  0 Multiplicity = 1

                         Standard orientation:
 ---------------------------------------------------------------------
 Center     Atomic      Atomic             Coordinates (Angstroms)
 Number     Number       Type             X           Y           Z
 ---------------------------------------------------------------------
      1          8           0        0.088236   -1.801138    0.000000
      2          1           0        0.088004   -0.818537    0.000000
      3          1           0       -0.841182   -2.120023    0.000000
      4          8           0        0.088236    1.656828    0.000000
      5          1           0        0.216262    2.631054    0.000000
      6          1           0       -0.874854    1.461984    0.000000
 ---------------------------------------------------------------------

 SCF Done:  E(RHF) =  -33.6542593927     A.U. after   11 cycles
 E2 =    -0.2288807271D+00 EUMP2 =    -0.33883140119836D+02
 CCSD(T)
 CCSD(T)= -0.33900172677D+02

 The electronic state is 1-A'.
 Alpha  occ. eigenvalues --   -1.37727  -1.34019  -0.73544  -0.69541  -0.57673
 Alpha  occ. eigenvalues --   -0.53716  -0.52303  -0.48585
 Alpha virt. eigenvalues --    0.16872   0.23957   0.28500   0.35333   0.77721
 Alpha virt. eigenvalues --    0.82067   0.82599   0.84766   0.88573   0.98078
 Alpha virt. eigenvalues --    1.15248   1.18190   1.21075   1.38495   2.52554

 Mulliken charges:
               1
     1  O   -0.754243
     2  H    0.394957
     3  H    0.356244
     4  O   -0.755823
     5  H    0.392048
     6  H    0.366817
 Sum of Mulliken charges =   0.00000

 Dipole moment (field-independent basis, Debye):
    X=             -3.9849    Y=              3.6028    Z=              0.0000  Tot=              5.3721
 Quadrupole moment (field-independent basis, Debye-Ang):
   XX=            -11.0030   YY=             -9.0268   ZZ=            -14.9909
   XY=              2.7254   XZ=              0.0000   YZ=              0.0000

 567\MP4DQ=-33.8943801\MP4SDQ=-33.8965028\CCSD=-33.8975224\CCSD(T)=-33.
 Normal termination of Gaussian 16 at Sun Dec 10 06:52:26 2023.
