 Gaussian 16, Revision A.03,
 Gaussian 16:  ES64L-G16RevA.03 25-Dec-2016

 ------------------
 #p CCSD(T)/CEP-31G
 ------------------

 ------------
 H2O_H2O_3306
 ------------
 Symbolic Z-matrix:
 Charge =  0 Multiplicity = 1

                         Standard orientation:
 ---------------------------------------------------------------------
 Center     Atomic      Atomic             Coordinates (Angstroms)
 Number     Number       Type             X           Y           Z
 ---------------------------------------------------------------------
      1          8           0        0.076757    2.419693   -0.000000
      2          1           0        0.076169    1.437091   -0.000000
      3          1           0       -0.852546    2.738915   -0.000000
      4          8           0        0.076757   -2.256481    0.000000
      5          1           0        0.452239   -3.164512    0.000000
      6          1           0       -0.903968   -2.317187    0.000000
 ---------------------------------------------------------------------

 SCF Done:  E(RHF) =  -33.6535183462     A.U. after   11 cycles
 E2 =    -0.2283465969D+00 EUMP2 =    -0.33881864943028D+02
 CCSD(T)
 CCSD(T)= -0.33898818792D+02

 The electronic state is 1-A'.
 Alpha  occ. eigenvalues --   -1.36621  -1.34494  -0.72276  -0.70101  -0.56459
 Alpha  occ. eigenvalues --   -0.54264  -0.51214  -0.49085
 Alpha virt. eigenvalues --    0.18800   0.21725   0.29442   0.31812   0.79359
 Alpha virt. eigenvalues --    0.81426   0.82298   0.84460   0.85337   0.87769
 Alpha virt. eigenvalues --    1.16309   1.18679   1.20730   1.24356   2.56351

 Mulliken charges:
               1
     1  O   -0.747968
     2  H    0.382859
     3  H    0.364769
     4  O   -0.747704
     5  H    0.377950
     6  H    0.370094
 Sum of Mulliken charges =   0.00000

 Dipole moment (field-independent basis, Debye):
    X=             -3.5123    Y=             -3.8794    Z=             -0.0000  Tot=              5.2332
 Quadrupole moment (field-independent basis, Debye-Ang):
   XX=            -10.3226   YY=             -7.3350   ZZ=            -14.9916
   XY=             -4.0332   XZ=              0.0000   YZ=             -0.0000

 4289\MP4DQ=-33.8931758\MP4SDQ=-33.8952077\CCSD=-33.8962541\CCSD(T)=-33
 Normal termination of Gaussian 16 at Sun Dec 10 06:32:34 2023.
