 Gaussian 16, Revision A.03,
 Gaussian 16:  ES64L-G16RevA.03 25-Dec-2016

 ------------------
 #p CCSD(T)/CEP-31G
 ------------------

 ------------
 H2O_H2O_1862
 ------------
 Symbolic Z-matrix:
 Charge =  0 Multiplicity = 1

                         Standard orientation:
 ---------------------------------------------------------------------
 Center     Atomic      Atomic             Coordinates (Angstroms)
 Number     Number       Type             X           Y           Z
 ---------------------------------------------------------------------
      1          8           0        0.056026    1.849828    0.000000
      2          1           0        0.054244    0.867228    0.000000
      3          1           0       -0.872888    2.170179    0.000000
      4          8           0        0.056026   -1.670965   -0.000000
      5          1           0        0.749569   -2.367027   -0.000000
      6          1           0       -0.827338   -2.101283   -0.000000
 ---------------------------------------------------------------------

 SCF Done:  E(RHF) =  -33.6587284356     A.U. after   11 cycles
 E2 =    -0.2286769605D+00 EUMP2 =    -0.33887405396068D+02
 CCSD(T)
 CCSD(T)= -0.33904271068D+02

 The electronic state is 1-A'.
 Alpha  occ. eigenvalues --   -1.37529  -1.32961  -0.73185  -0.68626  -0.57789
 Alpha  occ. eigenvalues --   -0.52776  -0.52192  -0.47608
 Alpha virt. eigenvalues --    0.18025   0.24238   0.28862   0.36034   0.78016
 Alpha virt. eigenvalues --    0.82402   0.83242   0.85798   0.89673   0.92032
 Alpha virt. eigenvalues --    1.15538   1.20085   1.20464   1.33436   2.50993

 Mulliken charges:
               1
     1  O   -0.770572
     2  H    0.410378
     3  H    0.358029
     4  O   -0.766423
     5  H    0.389551
     6  H    0.379038
 Sum of Mulliken charges =  -0.00000

 Dipole moment (field-independent basis, Debye):
    X=             -2.5185    Y=             -4.4335    Z=             -0.0000  Tot=              5.0989
 Quadrupole moment (field-independent basis, Debye-Ang):
   XX=             -9.5779   YY=             -7.6589   ZZ=            -15.0025
   XY=             -4.6518   XZ=             -0.0000   YZ=              0.0000

 022\MP4DQ=-33.8985402\MP4SDQ=-33.9006211\CCSD=-33.9016411\CCSD(T)=-33.
 Normal termination of Gaussian 16 at Sun Dec 10 06:54:02 2023.
