 Gaussian 16, Revision A.03,
 Gaussian 16:  ES64L-G16RevA.03 25-Dec-2016

 ------------------
 #p CCSD(T)/CEP-31G
 ------------------

 ------------
 H2O_H2O_3831
 ------------
 Symbolic Z-matrix:
 Charge =  0 Multiplicity = 1

                         Standard orientation:
 ---------------------------------------------------------------------
 Center     Atomic      Atomic             Coordinates (Angstroms)
 Number     Number       Type             X           Y           Z
 ---------------------------------------------------------------------
      1          8           0        0.076753    2.629107    0.000000
      2          1           0        0.076213    1.646506    0.000000
      3          1           0       -0.852565    2.948284    0.000000
      4          8           0        0.076753   -2.465888    0.000000
      5          1           0        0.452280   -3.373900    0.000000
      6          1           0       -0.903969   -2.526642    0.000000
 ---------------------------------------------------------------------

 SCF Done:  E(RHF) =  -33.6530399368     A.U. after   11 cycles
 E2 =    -0.2283264007D+00 EUMP2 =    -0.33881366337450D+02
 CCSD(T)
 CCSD(T)= -0.33898331702D+02

 The electronic state is 1-A'.
 Alpha  occ. eigenvalues --   -1.36442  -1.34685  -0.72091  -0.70300  -0.56252
 Alpha  occ. eigenvalues --   -0.54448  -0.51029  -0.49271
 Alpha virt. eigenvalues --    0.19236   0.21315   0.29623   0.31524   0.79536
 Alpha virt. eigenvalues --    0.81248   0.82369   0.84267   0.85513   0.87489
 Alpha virt. eigenvalues --    1.16504   1.18319   1.20921   1.23098   2.56461

 Mulliken charges:
               1
     1  O   -0.746060
     2  H    0.379876
     3  H    0.366101
     4  O   -0.746038
     5  H    0.376204
     6  H    0.369918
 Sum of Mulliken charges =  -0.00000

 Dipole moment (field-independent basis, Debye):
    X=             -3.5206    Y=             -3.8520    Z=              0.0000  Tot=              5.2184
 Quadrupole moment (field-independent basis, Debye-Ang):
   XX=            -10.3197   YY=             -7.0394   ZZ=            -14.9908
   XY=             -4.1930   XZ=              0.0000   YZ=              0.0000

 79\MP4DQ=-33.8926935\MP4SDQ=-33.89472\CCSD=-33.8957711\CCSD(T)=-33.898
 Normal termination of Gaussian 16 at Sun Dec 10 06:41:57 2023.
