 Gaussian 16, Revision A.03,
 Gaussian 16:  ES64L-G16RevA.03 25-Dec-2016

 ------------------
 #p CCSD(T)/CEP-31G
 ------------------

 ------------
 H2O_H2O_1396
 ------------
 Symbolic Z-matrix:
 Charge =  0 Multiplicity = 1

                         Standard orientation:
 ---------------------------------------------------------------------
 Center     Atomic      Atomic             Coordinates (Angstroms)
 Number     Number       Type             X           Y           Z
 ---------------------------------------------------------------------
      1          8           0       -0.023309    1.655736    0.000000
      2          1           0       -0.019541    0.673142    0.000000
      3          1           0        0.904955    1.977965    0.000000
      4          8           0       -0.023309   -1.485404    0.000000
      5          1           0       -0.986288   -1.680794    0.000000
      6          1           0        0.473824   -2.332968    0.000000
 ---------------------------------------------------------------------

 SCF Done:  E(RHF) =  -33.6617002921     A.U. after   11 cycles
 E2 =    -0.2287539135D+00 EUMP2 =    -0.33890454205558D+02
 CCSD(T)
 CCSD(T)= -0.33907219729D+02

 The electronic state is 1-A'.
 Alpha  occ. eigenvalues --   -1.38098  -1.32309  -0.73813  -0.68256  -0.58637
 Alpha  occ. eigenvalues --   -0.52795  -0.52091  -0.46999
 Alpha virt. eigenvalues --    0.17812   0.25467   0.28491   0.39916   0.76788
 Alpha virt. eigenvalues --    0.79911   0.84582   0.86449   0.90050   1.03273
 Alpha virt. eigenvalues --    1.15513   1.18273   1.21883   1.35977   2.50502

 Mulliken charges:
               1
     1  O   -0.782710
     2  H    0.418855
     3  H    0.360847
     4  O   -0.788381
     5  H    0.390571
     6  H    0.400818
 Sum of Mulliken charges =  -0.00000

 Dipole moment (field-independent basis, Debye):
    X=              1.0437    Y=             -4.3405    Z=              0.0000  Tot=              4.4642
 Quadrupole moment (field-independent basis, Debye-Ang):
   XX=             -9.5648   YY=             -8.3691   ZZ=            -15.0100
   XY=              5.4126   XZ=              0.0000   YZ=              0.0000

 7061\MP4DQ=-33.9014262\MP4SDQ=-33.9035323\CCSD=-33.9045296\CCSD(T)=-33
 Normal termination of Gaussian 16 at Sun Dec 10 06:45:01 2023.
