 Gaussian 16, Revision A.03,
 Gaussian 16:  ES64L-G16RevA.03 25-Dec-2016

 ------------------
 #p CCSD(T)/CEP-31G
 ------------------

 -----------
 H2O_H2O_474
 -----------
 Symbolic Z-matrix:
 Charge =  0 Multiplicity = 1

                         Standard orientation:
 ---------------------------------------------------------------------
 Center     Atomic      Atomic             Coordinates (Angstroms)
 Number     Number       Type             X           Y           Z
 ---------------------------------------------------------------------
      1          8           0        0.013733   -1.280730    0.000000
      2          1           0        0.008122   -0.298144    0.000000
      3          1           0       -0.913926   -1.604698    0.000000
      4          8           0        0.013733    1.121541    0.000000
      5          1           0        0.996319    1.127151    0.000000
      6          1           0       -0.310236    2.049200    0.000000
 ---------------------------------------------------------------------

 SCF Done:  E(RHF) =  -33.6464455883     A.U. after   11 cycles
 E2 =    -0.2279359900D+00 EUMP2 =    -0.33874381578238D+02
 CCSD(T)
 CCSD(T)= -0.33890195844D+02

 The electronic state is 1-A'.
 Alpha  occ. eigenvalues --   -1.41571  -1.29663  -0.78399  -0.69613  -0.59089
 Alpha  occ. eigenvalues --   -0.55784  -0.48369  -0.44180
 Alpha virt. eigenvalues --    0.17316   0.26150   0.28503   0.54759   0.73820
 Alpha virt. eigenvalues --    0.76159   0.87640   0.89142   0.92957   1.06515
 Alpha virt. eigenvalues --    1.14889   1.22103   1.29310   1.40128   2.74139

 Mulliken charges:
               1
     1  O   -0.756541
     2  H    0.362238
     3  H    0.349030
     4  O   -0.835620
     5  H    0.415031
     6  H    0.465862
 Sum of Mulliken charges =   0.00000

 Dipole moment (field-independent basis, Debye):
    X=             -0.6131    Y=              4.6692    Z=              0.0000  Tot=              4.7093
 Quadrupole moment (field-independent basis, Debye-Ang):
   XX=             -9.7934   YY=             -9.6779   ZZ=            -14.9965
   XY=              4.4131   XZ=              0.0000   YZ=              0.0000

 \MP4DQ=-33.8841751\MP4SDQ=-33.886417\CCSD=-33.8872373\CCSD(T)=-33.8901
 Normal termination of Gaussian 16 at Sun Dec 10 06:27:26 2023.
