 Gaussian 16, Revision A.03,
 Gaussian 16:  ES64L-G16RevA.03 25-Dec-2016

 ------------------
 #p CCSD(T)/CEP-31G
 ------------------

 ------------
 H2O_H2O_4981
 ------------
 Symbolic Z-matrix:
 Charge =  0 Multiplicity = 1

                         Standard orientation:
 ---------------------------------------------------------------------
 Center     Atomic      Atomic             Coordinates (Angstroms)
 Number     Number       Type             X           Y           Z
 ---------------------------------------------------------------------
      1          8           0        0.076746    3.087822   -0.000000
      2          1           0        0.076289    2.105221   -0.000000
      3          1           0       -0.852599    3.406921    0.000000
      4          8           0        0.076746   -2.924591   -0.000000
      5          1           0        0.452348   -3.832571   -0.000000
      6          1           0       -0.903971   -2.985426    0.000000
 ---------------------------------------------------------------------

 SCF Done:  E(RHF) =  -33.6524903570     A.U. after   11 cycles
 E2 =    -0.2283361598D+00 EUMP2 =    -0.33880826516790D+02
 CCSD(T)
 CCSD(T)= -0.33897807257D+02

 The electronic state is 1-A'.
 Alpha  occ. eigenvalues --   -1.36195  -1.34962  -0.71836  -0.70586  -0.55971
 Alpha  occ. eigenvalues --   -0.54715  -0.50776  -0.49543
 Alpha virt. eigenvalues --    0.19606   0.20884   0.29861   0.31144   0.79779
 Alpha virt. eigenvalues --    0.80991   0.82724   0.83998   0.85834   0.87139
 Alpha virt. eigenvalues --    1.16739   1.17968   1.21188   1.22456   2.56735

 Mulliken charges:
               1
     1  O   -0.743885
     2  H    0.376005
     3  H    0.367878
     4  O   -0.743880
     5  H    0.373942
     6  H    0.369939
 Sum of Mulliken charges =   0.00000

 Dipole moment (field-independent basis, Debye):
    X=             -3.5323    Y=             -3.8207    Z=              0.0000  Tot=              5.2034
 Quadrupole moment (field-independent basis, Debye-Ang):
   XX=            -10.3152   YY=             -6.3830   ZZ=            -14.9898
   XY=             -4.5408   XZ=             -0.0000   YZ=              0.0000

 43\MP4DQ=-33.8921679\MP4SDQ=-33.8941937\CCSD=-33.8952478\CCSD(T)=-33.8
 Normal termination of Gaussian 16 at Sun Dec 10 07:03:56 2023.
