 Gaussian 16, Revision A.03,
 Gaussian 16:  ES64L-G16RevA.03 25-Dec-2016

 ------------------
 #p CCSD(T)/CEP-31G
 ------------------

 -----------
 H2O_H2O_605
 -----------
 Symbolic Z-matrix:
 Charge =  0 Multiplicity = 1

                         Standard orientation:
 ---------------------------------------------------------------------
 Center     Atomic      Atomic             Coordinates (Angstroms)
 Number     Number       Type             X           Y           Z
 ---------------------------------------------------------------------
      1          8           0        0.079883   -1.340438    0.000000
      2          1           0        0.079002   -0.357837    0.000000
      3          1           0       -0.849323   -1.659938    0.000000
      4          8           0        0.079883    1.181440    0.000000
      5          1           0        0.394896    2.112179    0.000000
      6          1           0       -0.902710    1.177579    0.000000
 ---------------------------------------------------------------------

 SCF Done:  E(RHF) =  -33.6483076771     A.U. after   11 cycles
 E2 =    -0.2288450887D+00 EUMP2 =    -0.33877152765791D+02
 CCSD(T)
 CCSD(T)= -0.33893433214D+02

 The electronic state is 1-A'.
 Alpha  occ. eigenvalues --   -1.40849  -1.30964  -0.77359  -0.69320  -0.58954
 Alpha  occ. eigenvalues --   -0.55174  -0.50017  -0.45375
 Alpha virt. eigenvalues --    0.16676   0.25691   0.27885   0.51098   0.74010
 Alpha virt. eigenvalues --    0.76657   0.85520   0.88010   0.95569   1.09166
 Alpha virt. eigenvalues --    1.15267   1.23120   1.27528   1.36554   2.65614

 Mulliken charges:
               1
     1  O   -0.740165
     2  H    0.385860
     3  H    0.330448
     4  O   -0.818211
     5  H    0.456964
     6  H    0.385103
 Sum of Mulliken charges =  -0.00000

 Dipole moment (field-independent basis, Debye):
    X=             -3.4174    Y=              4.5254    Z=              0.0000  Tot=              5.6708
 Quadrupole moment (field-independent basis, Debye-Ang):
   XX=            -10.5171   YY=             -9.4682   ZZ=            -14.9932
   XY=              3.0618   XZ=              0.0000   YZ=              0.0000

 245\MP4DQ=-33.8873662\MP4SDQ=-33.8896433\CCSD=-33.8905128\CCSD(T)=-33.
 Normal termination of Gaussian 16 at Sun Dec 10 06:29:55 2023.
