 Gaussian 16, Revision A.03,
 Gaussian 16:  ES64L-G16RevA.03 25-Dec-2016

 ------------------
 #p CCSD(T)/CEP-31G
 ------------------

 -----------
 H2O_H2O_639
 -----------
 Symbolic Z-matrix:
 Charge =  0 Multiplicity = 1

                         Standard orientation:
 ---------------------------------------------------------------------
 Center     Atomic      Atomic             Coordinates (Angstroms)
 Number     Number       Type             X           Y           Z
 ---------------------------------------------------------------------
      1          8           0        0.048702    1.361969    0.000000
      2          1           0        0.045741    0.379372    0.000000
      3          1           0       -0.879827    1.683434    0.000000
      4          8           0        0.048702   -1.181708   -0.000000
      5          1           0        0.826446   -1.782224   -0.000000
      6          1           0       -0.771587   -1.722663   -0.000000
 ---------------------------------------------------------------------

 SCF Done:  E(RHF) =  -33.6584235993     A.U. after   11 cycles
 E2 =    -0.2290452505D+00 EUMP2 =    -0.33887468849800D+02
 CCSD(T)
 CCSD(T)= -0.33903328222D+02

 The electronic state is 1-A'.
 Alpha  occ. eigenvalues --   -1.40405  -1.29783  -0.75704  -0.70325  -0.58754
 Alpha  occ. eigenvalues --   -0.55068  -0.48822  -0.44300
 Alpha virt. eigenvalues --    0.17196   0.27111   0.27852   0.52319   0.74296
 Alpha virt. eigenvalues --    0.74784   0.85305   0.88577   0.96943   0.99978
 Alpha virt. eigenvalues --    1.14598   1.18164   1.23902   1.36907   2.63916

 Mulliken charges:
               1
     1  O   -0.778362
     2  H    0.430454
     3  H    0.335118
     4  O   -0.830757
     5  H    0.429295
     6  H    0.414253
 Sum of Mulliken charges =   0.00000

 Dipole moment (field-independent basis, Debye):
    X=             -2.0808    Y=             -4.9853    Z=             -0.0000  Tot=              5.4021
 Quadrupole moment (field-independent basis, Debye-Ang):
   XX=             -9.3896   YY=             -9.4729   ZZ=            -15.0153
   XY=             -3.8821   XZ=              0.0000   YZ=              0.0000

 2\MP4DQ=-33.8973842\MP4SDQ=-33.8995492\CCSD=-33.90038\CCSD(T)=-33.9033
 Normal termination of Gaussian 16 at Sun Dec 10 06:30:33 2023.
