 Gaussian 16, Revision A.03,
 Gaussian 16:  ES64L-G16RevA.03 25-Dec-2016

 ------------------
 #p CCSD(T)/CEP-31G
 ------------------

 ------------
 H2O_H2O_3535
 ------------
 Symbolic Z-matrix:
 Charge =  0 Multiplicity = 1

                         Standard orientation:
 ---------------------------------------------------------------------
 Center     Atomic      Atomic             Coordinates (Angstroms)
 Number     Number       Type             X           Y           Z
 ---------------------------------------------------------------------
      1          8           0        0.063229    2.516126   -0.000000
      2          1           0        0.062191    1.533525   -0.000000
      3          1           0       -0.865926    2.835774   -0.000000
      4          8           0        0.063229   -2.340608    0.000000
      5          1           0        0.660574   -3.120790    0.000000
      6          1           0       -0.868510   -2.652648    0.000000
 ---------------------------------------------------------------------

 SCF Done:  E(RHF) =  -33.6538864767     A.U. after   11 cycles
 E2 =    -0.2283110434D+00 EUMP2 =    -0.33882197520137D+02
 CCSD(T)
 CCSD(T)= -0.33899138437D+02

 The electronic state is 1-A'.
 Alpha  occ. eigenvalues --   -1.36518  -1.34388  -0.72165  -0.70004  -0.56376
 Alpha  occ. eigenvalues --   -0.54177  -0.51119  -0.48987
 Alpha virt. eigenvalues --    0.19168   0.21684   0.29591   0.31898   0.79447
 Alpha virt. eigenvalues --    0.81515   0.82252   0.84560   0.85416   0.87736
 Alpha virt. eigenvalues --    1.16471   1.18692   1.20874   1.23751   2.56449

 Mulliken charges:
               1
     1  O   -0.749318
     2  H    0.383296
     3  H    0.365787
     4  O   -0.748566
     5  H    0.377020
     6  H    0.371782
 Sum of Mulliken charges =  -0.00000

 Dipole moment (field-independent basis, Debye):
    X=             -2.8943    Y=             -4.1565    Z=              0.0000  Tot=              5.0649
 Quadrupole moment (field-independent basis, Debye-Ang):
   XX=             -9.7764   YY=             -6.3214   ZZ=            -14.9927
   XY=             -5.2524   XZ=              0.0000   YZ=             -0.0000

 7539\MP4DQ=-33.8935031\MP4SDQ=-33.8955308\CCSD=-33.8965782\CCSD(T)=-33
 Normal termination of Gaussian 16 at Sun Dec 10 06:36:37 2023.
