 Gaussian 16, Revision A.03,
 Gaussian 16:  ES64L-G16RevA.03 25-Dec-2016

 ------------------
 #p CCSD(T)/CEP-31G
 ------------------

 ------------
 H2O_H2O_4805
 ------------
 Symbolic Z-matrix:
 Charge =  0 Multiplicity = 1

                         Standard orientation:
 ---------------------------------------------------------------------
 Center     Atomic      Atomic             Coordinates (Angstroms)
 Number     Number       Type             X           Y           Z
 ---------------------------------------------------------------------
      1          8           0        0.079843    3.015763    0.000000
      2          1           0        0.079464    2.033162    0.000000
      3          1           0       -0.849527    3.334788   -0.000000
      4          8           0        0.079843   -2.856684    0.000000
      5          1           0        0.395332   -3.787261    0.000000
      6          1           0       -0.902753   -2.853326   -0.000000
 ---------------------------------------------------------------------

 SCF Done:  E(RHF) =  -33.6524547824     A.U. after   11 cycles
 E2 =    -0.2283381804D+00 EUMP2 =    -0.33880792962783D+02
 CCSD(T)
 CCSD(T)= -0.33897774896D+02

 The electronic state is 1-A'.
 Alpha  occ. eigenvalues --   -1.36227  -1.34970  -0.71871  -0.70593  -0.56002
 Alpha  occ. eigenvalues --   -0.54721  -0.50808  -0.49550
 Alpha virt. eigenvalues --    0.19564   0.20881   0.29826   0.31137   0.79749
 Alpha virt. eigenvalues --    0.80984   0.82692   0.83993   0.85795   0.87142
 Alpha virt. eigenvalues --    1.16704   1.17959   1.21153   1.22454   2.56694

 Mulliken charges:
               1
     1  O   -0.743759
     2  H    0.376105
     3  H    0.367652
     4  O   -0.743814
     5  H    0.374178
     6  H    0.369639
 Sum of Mulliken charges =  -0.00000

 Dipole moment (field-independent basis, Debye):
    X=             -3.6738    Y=             -3.7270    Z=             -0.0000  Tot=              5.2333
 Quadrupole moment (field-independent basis, Debye-Ang):
   XX=            -10.4735   YY=             -6.8965   ZZ=            -14.9897
   XY=             -4.1189   XZ=              0.0000   YZ=             -0.0000

 17\MP4DQ=-33.8921351\MP4SDQ=-33.894161\CCSD=-33.8952151\CCSD(T)=-33.89
 Normal termination of Gaussian 16 at Sun Dec 10 06:59:30 2023.
