 Gaussian 16, Revision A.03,
 Gaussian 16:  ES64L-G16RevA.03 25-Dec-2016

 ------------------
 #p CCSD(T)/CEP-31G
 ------------------

 ------------
 H2O_H2O_2337
 ------------
 Symbolic Z-matrix:
 Charge =  0 Multiplicity = 1

                         Standard orientation:
 ---------------------------------------------------------------------
 Center     Atomic      Atomic             Coordinates (Angstroms)
 Number     Number       Type             X           Y           Z
 ---------------------------------------------------------------------
      1          8           0        0.056010    2.039304   -0.000000
      2          1           0        0.054401    1.056704   -0.000000
      3          1           0       -0.872960    2.359492   -0.000000
      4          8           0        0.056010   -1.860421    0.000000
      5          1           0        0.749676   -2.556361    0.000000
      6          1           0       -0.827278   -2.290894    0.000000
 ---------------------------------------------------------------------

 SCF Done:  E(RHF) =  -33.6567854398     A.U. after   11 cycles
 E2 =    -0.2284822356D+00 EUMP2 =    -0.33885267675440D+02
 CCSD(T)
 CCSD(T)= -0.33902164680D+02

 The electronic state is 1-A'.
 Alpha  occ. eigenvalues --   -1.37121  -1.33511  -0.72775  -0.69125  -0.57186
 Alpha  occ. eigenvalues --   -0.53339  -0.51761  -0.48143
 Alpha virt. eigenvalues --    0.18279   0.23253   0.29159   0.33719   0.78731
 Alpha virt. eigenvalues --    0.82413   0.83855   0.85386   0.86382   0.88612
 Alpha virt. eigenvalues --    1.15944   1.19936   1.20413   1.30367   2.53583

 Mulliken charges:
               1
     1  O   -0.761901
     2  H    0.398315
     3  H    0.361608
     4  O   -0.757165
     5  H    0.383311
     6  H    0.375832
 Sum of Mulliken charges =  -0.00000

 Dipole moment (field-independent basis, Debye):
    X=             -2.5378    Y=             -4.3541    Z=              0.0000  Tot=              5.0398
 Quadrupole moment (field-independent basis, Debye-Ang):
   XX=             -9.5824   YY=             -7.1664   ZZ=            -14.9983
   XY=             -4.9788   XZ=              0.0000   YZ=             -0.0000

 7313\MP4DQ=-33.896482\MP4SDQ=-33.8985444\CCSD=-33.8995734\CCSD(T)=-33.
 Normal termination of Gaussian 16 at Sun Dec 10 07:04:27 2023.
