 Gaussian 16, Revision A.03,
 Gaussian 16:  ES64L-G16RevA.03 25-Dec-2016

 ------------------
 #p CCSD(T)/CEP-31G
 ------------------

 ----------
 H2O_H2O_96
 ----------
 Symbolic Z-matrix:
 Charge =  0 Multiplicity = 1

                         Standard orientation:
 ---------------------------------------------------------------------
 Center     Atomic      Atomic             Coordinates (Angstroms)
 Number     Number       Type             X           Y           Z
 ---------------------------------------------------------------------
      1          8           0       -0.023470    1.137157    0.000000
      2          1           0       -0.017845    0.154571    0.000000
      3          1           0        0.904183    1.461140    0.000000
      4          8           0       -0.023470   -0.966913    0.000000
      5          1           0       -0.986078   -1.164123    0.000000
      6          1           0        0.475264   -1.813536    0.000000
 ---------------------------------------------------------------------

 SCF Done:  E(RHF) =  -33.5994807870     A.U. after   11 cycles
 E2 =    -0.2269758874D+00 EUMP2 =    -0.33826456674334D+02
 CCSD(T)
 CCSD(T)= -0.33841088047D+02

 The electronic state is 1-A'.
 Alpha  occ. eigenvalues --   -1.45851  -1.26847  -0.82393  -0.75353  -0.58830
 Alpha  occ. eigenvalues --   -0.55373  -0.43803  -0.40898
 Alpha virt. eigenvalues --    0.16643   0.24704   0.30302   0.62151   0.73320
 Alpha virt. eigenvalues --    0.74045   0.88788   0.91780   0.92448   1.03347
 Alpha virt. eigenvalues --    1.12704   1.19611   1.30791   1.40704   2.96830

 Mulliken charges:
               1
     1  O   -0.744436
     2  H    0.277720
     3  H    0.320774
     4  O   -0.781415
     5  H    0.441734
     6  H    0.485623
 Sum of Mulliken charges =  -0.00000

 Dipole moment (field-independent basis, Debye):
    X=              0.9925    Y=             -5.5224    Z=              0.0000  Tot=              5.6108
 Quadrupole moment (field-independent basis, Debye-Ang):
   XX=             -9.4302   YY=            -10.5600   ZZ=            -14.9279
   XY=              3.5320   XZ=              0.0000   YZ=              0.0000

 MP4DQ=-33.83493\MP4SDQ=-33.8372622\CCSD=-33.8378848\CCSD(T)=-33.841088
 Normal termination of Gaussian 16 at Sun Dec 10 06:19:56 2023.
