 Gaussian 16, Revision A.03,
 Gaussian 16:  ES64L-G16RevA.03 25-Dec-2016

 ------------------
 #p CCSD(T)/CEP-31G
 ------------------

 ------------
 H2O_H2O_1654
 ------------
 Symbolic Z-matrix:
 Charge =  0 Multiplicity = 1

                         Standard orientation:
 ---------------------------------------------------------------------
 Center     Atomic      Atomic             Coordinates (Angstroms)
 Number     Number       Type             X           Y           Z
 ---------------------------------------------------------------------
      1          8           0        0.082814   -1.756811    0.000000
      2          1           0        0.082301   -0.774210    0.000000
      3          1           0       -0.846513   -2.075963    0.000000
      4          8           0        0.082814    1.602316    0.000000
      5          1           0        0.336635    2.551569    0.000000
      6          1           0       -0.897450    1.534567    0.000000
 ---------------------------------------------------------------------

 SCF Done:  E(RHF) =  -33.6557880007     A.U. after   11 cycles
 E2 =    -0.2288763568D+00 EUMP2 =    -0.33884664357528D+02
 CCSD(T)
 CCSD(T)= -0.33901656287D+02

 The electronic state is 1-A'.
 Alpha  occ. eigenvalues --   -1.37855  -1.33545  -0.73653  -0.69123  -0.57918
 Alpha  occ. eigenvalues --   -0.53250  -0.52452  -0.48128
 Alpha virt. eigenvalues --    0.17162   0.24301   0.28427   0.36494   0.77451
 Alpha virt. eigenvalues --    0.81642   0.83167   0.85048   0.89345   1.00378
 Alpha virt. eigenvalues --    1.15119   1.18338   1.21144   1.38432   2.51320

 Mulliken charges:
               1
     1  O   -0.760080
     2  H    0.402502
     3  H    0.354410
     4  O   -0.763548
     5  H    0.396316
     6  H    0.370400
 Sum of Mulliken charges =  -0.00000

 Dipole moment (field-independent basis, Debye):
    X=             -3.7261    Y=              3.8862    Z=              0.0000  Tot=              5.3839
 Quadrupole moment (field-independent basis, Debye-Ang):
   XX=            -10.6702   YY=             -8.6581   ZZ=            -14.9949
   XY=              3.1356   XZ=              0.0000   YZ=              0.0000

 11\MP4DQ=-33.8958531\MP4SDQ=-33.8979789\CCSD=-33.8989959\CCSD(T)=-33.9
 Normal termination of Gaussian 16 at Sun Dec 10 06:50:07 2023.
