 Gaussian 16, Revision A.03,
 Gaussian 16:  ES64L-G16RevA.03 25-Dec-2016

 ------------------
 #p CCSD(T)/CEP-31G
 ------------------

 -----------
 H2O_H2O_214
 -----------
 Symbolic Z-matrix:
 Charge =  0 Multiplicity = 1

                         Standard orientation:
 ---------------------------------------------------------------------
 Center     Atomic      Atomic             Coordinates (Angstroms)
 Number     Number       Type             X           Y           Z
 ---------------------------------------------------------------------
      1          8           0        0.048743    1.192424   -0.000000
      2          1           0        0.045327    0.209828   -0.000000
      3          1           0       -0.879636    1.514320    0.000000
      4          8           0        0.048743   -1.012209   -0.000000
      5          1           0        0.826210   -1.613085   -0.000000
      6          1           0       -0.771796   -1.552784    0.000000
 ---------------------------------------------------------------------

 SCF Done:  E(RHF) =  -33.6260544752     A.U. after   11 cycles
 E2 =    -0.2282079024D+00 EUMP2 =    -0.33854262377620D+02
 CCSD(T)
 CCSD(T)= -0.33869072796D+02

 The electronic state is 1-A'.
 Alpha  occ. eigenvalues --   -1.43950  -1.27487  -0.78091  -0.76751  -0.57829
 Alpha  occ. eigenvalues --   -0.55780  -0.45135  -0.41618
 Alpha virt. eigenvalues --    0.16484   0.25631   0.29723   0.60699   0.73366
 Alpha virt. eigenvalues --    0.73393   0.86255   0.91188   0.92790   1.05320
 Alpha virt. eigenvalues --    1.13005   1.16463   1.27537   1.35068   2.87362

 Mulliken charges:
               1
     1  O   -0.756791
     2  H    0.363142
     3  H    0.312490
     4  O   -0.810588
     5  H    0.454557
     6  H    0.437190
 Sum of Mulliken charges =   0.00000

 Dipole moment (field-independent basis, Debye):
    X=             -1.9975    Y=             -5.5241    Z=              0.0000  Tot=              5.8741
 Quadrupole moment (field-independent basis, Debye-Ang):
   XX=             -9.3409   YY=            -10.4430   ZZ=            -14.9644
   XY=             -3.4434   XZ=             -0.0000   YZ=              0.0000

 418\MP4DQ=-33.8629496\MP4SDQ=-33.86524\CCSD=-33.8658839\CCSD(T)=-33.86
 Normal termination of Gaussian 16 at Sun Dec 10 06:22:16 2023.
