 Gaussian 16, Revision A.03,
 Gaussian 16:  ES64L-G16RevA.03 25-Dec-2016

 ------------------
 #p CCSD(T)/CEP-31G
 ------------------

 ------------
 H2O_H2O_3018
 ------------
 Symbolic Z-matrix:
 Charge =  0 Multiplicity = 1

                         Standard orientation:
 ---------------------------------------------------------------------
 Center     Atomic      Atomic             Coordinates (Angstroms)
 Number     Number       Type             X           Y           Z
 ---------------------------------------------------------------------
      1          8           0        0.033795    2.307808    0.000000
      2          1           0        0.031531    1.325209    0.000000
      3          1           0       -0.894962    2.628614   -0.000000
      4          8           0        0.033795   -2.130288    0.000000
      5          1           0        0.940731   -2.508403    0.000000
      6          1           0       -0.618013   -2.865580   -0.000000
 ---------------------------------------------------------------------

 SCF Done:  E(RHF) =  -33.6554537208     A.U. after   11 cycles
 E2 =    -0.2283138708D+00 EUMP2 =    -0.33883767591551D+02
 CCSD(T)
 CCSD(T)= -0.33900671203D+02

 The electronic state is 1-A'.
 Alpha  occ. eigenvalues --   -1.36701  -1.34032  -0.72346  -0.69662  -0.56650
 Alpha  occ. eigenvalues --   -0.53868  -0.51325  -0.48658
 Alpha virt. eigenvalues --    0.18846   0.22281   0.29502   0.32402   0.79241
 Alpha virt. eigenvalues --    0.81822   0.82560   0.84593   0.85495   0.87940
 Alpha virt. eigenvalues --    1.16346   1.19287   1.20753   1.25665   2.56005

 Mulliken charges:
               1
     1  O   -0.755573
     2  H    0.388059
     3  H    0.366718
     4  O   -0.753072
     5  H    0.377880
     6  H    0.375988
 Sum of Mulliken charges =   0.00000

 Dipole moment (field-independent basis, Debye):
    X=             -1.5394    Y=             -4.2383    Z=             -0.0000  Tot=              4.5092
 Quadrupole moment (field-independent basis, Debye-Ang):
   XX=             -9.4309   YY=             -6.6105   ZZ=            -14.9959
   XY=             -6.8455   XZ=              0.0000   YZ=             -0.0000

 63\MP4DQ=-33.8950313\MP4SDQ=-33.8970672\CCSD=-33.8981063\CCSD(T)=-33.9
 Normal termination of Gaussian 16 at Sun Dec 10 06:27:23 2023.
