 Gaussian 16, Revision A.03,
 Gaussian 16:  ES64L-G16RevA.03 25-Dec-2016

 ------------------
 #p CCSD(T)/CEP-31G
 ------------------

 ------------
 H2O_H2O_1972
 ------------
 Symbolic Z-matrix:
 Charge =  0 Multiplicity = 1

                         Standard orientation:
 ---------------------------------------------------------------------
 Center     Atomic      Atomic             Coordinates (Angstroms)
 Number     Number       Type             X           Y           Z
 ---------------------------------------------------------------------
      1          8           0       -0.019921    1.883319    0.000000
      2          1           0       -0.016475    0.900724    0.000000
      3          1           0        0.908449    2.205244    0.000000
      4          8           0       -0.019921   -1.716244    0.000000
      5          1           0       -0.993661   -1.847915    0.000000
      6          1           0        0.420426   -2.594652    0.000000
 ---------------------------------------------------------------------

 SCF Done:  E(RHF) =  -33.6586708717     A.U. after   11 cycles
 E2 =    -0.2285478620D+00 EUMP2 =    -0.33887218733731D+02
 CCSD(T)
 CCSD(T)= -0.33904105021D+02

 The electronic state is 1-A'.
 Alpha  occ. eigenvalues --   -1.37377  -1.33308  -0.73058  -0.68990  -0.57593
 Alpha  occ. eigenvalues --   -0.53176  -0.52036  -0.47979
 Alpha virt. eigenvalues --    0.17916   0.24041   0.29032   0.35136   0.78220
 Alpha virt. eigenvalues --    0.82270   0.82811   0.85990   0.88023   0.92908
 Alpha virt. eigenvalues --    1.15722   1.19738   1.20729   1.34713   2.52546

 Mulliken charges:
               1
     1  O   -0.770753
     2  H    0.402423
     3  H    0.365839
     4  O   -0.766337
     5  H    0.382702
     6  H    0.386126
 Sum of Mulliken charges =  -0.00000

 Dipole moment (field-independent basis, Debye):
    X=              0.8960    Y=             -4.1164    Z=              0.0000  Tot=              4.2128
 Quadrupole moment (field-independent basis, Debye-Ang):
   XX=             -9.6612   YY=             -7.9536   ZZ=            -15.0018
   XY=              6.3722   XZ=              0.0000   YZ=              0.0000

 6367\MP4DQ=-33.8983839\MP4SDQ=-33.9004661\CCSD=-33.901488\CCSD(T)=-33.
 Normal termination of Gaussian 16 at Sun Dec 10 06:56:06 2023.
