 Gaussian 16, Revision A.03,
 Gaussian 16:  ES64L-G16RevA.03 25-Dec-2016

 ------------------
 #p CCSD(T)/CEP-31G
 ------------------

 -----------
 H2O_H2O_921
 -----------
 Symbolic Z-matrix:
 Charge =  0 Multiplicity = 1

                         Standard orientation:
 ---------------------------------------------------------------------
 Center     Atomic      Atomic             Coordinates (Angstroms)
 Number     Number       Type             X           Y           Z
 ---------------------------------------------------------------------
      1          8           0       -0.023354    1.466258    0.000000
      2          1           0       -0.019069    0.483666    0.000000
      3          1           0        0.904740    1.788976    0.000000
      4          8           0       -0.023354   -1.295951    0.000000
      5          1           0       -0.986230   -1.491848    0.000000
      6          1           0        0.474225   -2.143253    0.000000
 ---------------------------------------------------------------------

 SCF Done:  E(RHF) =  -33.6621045661     A.U. after   11 cycles
 E2 =    -0.2287458763D+00 EUMP2 =    -0.33890850442417D+02
 CCSD(T)
 CCSD(T)= -0.33907267988D+02

 The electronic state is 1-A'.
 Alpha  occ. eigenvalues --   -1.39218  -1.31076  -0.75028  -0.68285  -0.59464
 Alpha  occ. eigenvalues --   -0.53910  -0.50556  -0.45733
 Alpha virt. eigenvalues --    0.17585   0.26815   0.27748   0.46502   0.75168
 Alpha virt. eigenvalues --    0.77255   0.86359   0.86827   0.92756   1.06091
 Alpha virt. eigenvalues --    1.16238   1.19125   1.23642   1.36804   2.55179

 Mulliken charges:
               1
     1  O   -0.783497
     2  H    0.421710
     3  H    0.353987
     4  O   -0.818297
     5  H    0.401725
     6  H    0.424372
 Sum of Mulliken charges =   0.00000

 Dipole moment (field-independent basis, Debye):
    X=              1.0422    Y=             -4.5542    Z=              0.0000  Tot=              4.6719
 Quadrupole moment (field-independent basis, Debye-Ang):
   XX=             -9.5447   YY=             -8.9474   ZZ=            -15.0171
   XY=              4.7389   XZ=              0.0000   YZ=              0.0000

 25\MP4DQ=-33.9013952\MP4SDQ=-33.9035332\CCSD=-33.9044654\CCSD(T)=-33.9
 Normal termination of Gaussian 16 at Sun Dec 10 06:35:50 2023.
