 Gaussian 16, Revision A.03,
 Gaussian 16:  ES64L-G16RevA.03 25-Dec-2016

 ------------------
 #p CCSD(T)/CEP-31G
 ------------------

 -----------
 H2O_H2O_779
 -----------
 Symbolic Z-matrix:
 Charge =  0 Multiplicity = 1

                         Standard orientation:
 ---------------------------------------------------------------------
 Center     Atomic      Atomic             Coordinates (Angstroms)
 Number     Number       Type             X           Y           Z
 ---------------------------------------------------------------------
      1          8           0        0.082825   -1.407783    0.000000
      2          1           0        0.082178   -0.425182    0.000000
      3          1           0       -0.846458   -1.727061    0.000000
      4          8           0        0.082825    1.253310    0.000000
      5          1           0        0.336515    2.202597    0.000000
      6          1           0       -0.897430    1.185427    0.000000
 ---------------------------------------------------------------------

 SCF Done:  E(RHF) =  -33.6518880767     A.U. after   11 cycles
 E2 =    -0.2289849043D+00 EUMP2 =    -0.33880872981013D+02
 CCSD(T)
 CCSD(T)= -0.33897481696D+02

 The electronic state is 1-A'.
 Alpha  occ. eigenvalues --   -1.40004  -1.31824  -0.76430  -0.68640  -0.59238
 Alpha  occ. eigenvalues --   -0.54433  -0.51117  -0.46290
 Alpha virt. eigenvalues --    0.16753   0.25759   0.27573   0.47442   0.74498
 Alpha virt. eigenvalues --    0.77743   0.85181   0.86905   0.94001   1.10559
 Alpha virt. eigenvalues --    1.15333   1.22949   1.28480   1.36379   2.57394

 Mulliken charges:
               1
     1  O   -0.745133
     2  H    0.390691
     3  H    0.337080
     4  O   -0.803133
     5  H    0.442268
     6  H    0.378227
 Sum of Mulliken charges =  -0.00000

 Dipole moment (field-independent basis, Debye):
    X=             -3.6005    Y=              4.2715    Z=              0.0000  Tot=              5.5865
 Quadrupole moment (field-independent basis, Debye-Ang):
   XX=            -10.6944   YY=             -9.2898   ZZ=            -14.9965
   XY=              2.9520   XZ=              0.0000   YZ=              0.0000

 \MP4DQ=-33.8914608\MP4SDQ=-33.8937121\CCSD=-33.8946324\CCSD(T)=-33.897
 Normal termination of Gaussian 16 at Sun Dec 10 06:33:10 2023.
