 Gaussian 16, Revision A.03,
 Gaussian 16:  ES64L-G16RevA.03 25-Dec-2016

 ------------------
 #p CCSD(T)/CEP-31G
 ------------------

 ------------
 H2O_H2O_2925
 ------------
 Symbolic Z-matrix:
 Charge =  0 Multiplicity = 1

                         Standard orientation:
 ---------------------------------------------------------------------
 Center     Atomic      Atomic             Coordinates (Angstroms)
 Number     Number       Type             X           Y           Z
 ---------------------------------------------------------------------
      1          8           0        0.092949   -2.253588    0.000000
      2          1           0        0.092949   -1.270986    0.000000
      3          1           0       -0.836544   -2.572254    0.000000
      4          8           0        0.092949    2.120801    0.000000
      5          1           0        0.092949    3.103402    0.000000
      6          1           0       -0.836544    1.802134    0.000000
 ---------------------------------------------------------------------

 SCF Done:  E(RHF) =  -33.6523338195     A.U. after   11 cycles
 E2 =    -0.2284535848D+00 EUMP2 =    -0.33880787404324D+02
 CCSD(T)
 CCSD(T)= -0.33897786074D+02

 The electronic state is 1-A'.
 Alpha  occ. eigenvalues --   -1.36833  -1.34903  -0.72514  -0.70490  -0.56615
 Alpha  occ. eigenvalues --   -0.54627  -0.51404  -0.49469
 Alpha virt. eigenvalues --    0.17424   0.22102   0.29214   0.31615   0.79174
 Alpha virt. eigenvalues --    0.81088   0.82505   0.84040   0.85623   0.87595
 Alpha virt. eigenvalues --    1.15636   1.18550   1.20573   1.26479   2.55791

 Mulliken charges:
               1
     1  O   -0.743677
     2  H    0.379300
     3  H    0.363931
     4  O   -0.744239
     5  H    0.379135
     6  H    0.365549
 Sum of Mulliken charges =  -0.00000

 Dipole moment (field-independent basis, Debye):
    X=             -4.2504    Y=              3.1772    Z=              0.0000  Tot=              5.3067
 Quadrupole moment (field-independent basis, Debye-Ang):
   XX=            -11.2962   YY=             -9.5871   ZZ=            -14.9880
   XY=              2.2948   XZ=              0.0000   YZ=              0.0000

 816\MP4DQ=-33.8921208\MP4SDQ=-33.894164\CCSD=-33.8952088\CCSD(T)=-33.8
 Normal termination of Gaussian 16 at Sun Dec 10 06:25:39 2023.
