 Gaussian 16, Revision A.03,
 Gaussian 16:  ES64L-G16RevA.03 25-Dec-2016

 ------------------
 #p CCSD(T)/CEP-31G
 ------------------

 ------------
 H2O_H2O_2343
 ------------
 Symbolic Z-matrix:
 Charge =  0 Multiplicity = 1

                         Standard orientation:
 ---------------------------------------------------------------------
 Center     Atomic      Atomic             Coordinates (Angstroms)
 Number     Number       Type             X           Y           Z
 ---------------------------------------------------------------------
      1          8           0        0.033823    2.038556   -0.000000
      2          1           0        0.031247    1.055958   -0.000000
      3          1           0       -0.894832    2.359657   -0.000000
      4          8           0        0.033823   -1.861057    0.000000
      5          1           0        0.940639   -2.239461    0.000000
      6          1           0       -0.618218   -2.596142    0.000000
 ---------------------------------------------------------------------

 SCF Done:  E(RHF) =  -33.6574065897     A.U. after   11 cycles
 E2 =    -0.2284440306D+00 EUMP2 =    -0.33885850620319D+02
 CCSD(T)
 CCSD(T)= -0.33902732781D+02

 The electronic state is 1-A'.
 Alpha  occ. eigenvalues --   -1.37090  -1.33489  -0.72740  -0.69129  -0.57190
 Alpha  occ. eigenvalues --   -0.53349  -0.51740  -0.48140
 Alpha virt. eigenvalues --    0.18320   0.23313   0.29233   0.33746   0.78745
 Alpha virt. eigenvalues --    0.82409   0.83514   0.85596   0.86558   0.88501
 Alpha virt. eigenvalues --    1.15999   1.19991   1.20485   1.30493   2.53701

 Mulliken charges:
               1
     1  O   -0.764407
     2  H    0.397891
     3  H    0.364516
     4  O   -0.759009
     5  H    0.381534
     6  H    0.379476
 Sum of Mulliken charges =  -0.00000

 Dipole moment (field-independent basis, Debye):
    X=             -1.5299    Y=             -4.3153    Z=              0.0000  Tot=              4.5784
 Quadrupole moment (field-independent basis, Debye-Ang):
   XX=             -9.4249   YY=             -7.2135   ZZ=            -14.9996
   XY=             -6.1010   XZ=              0.0000   YZ=             -0.0000

 3008\MP4DQ=-33.8970545\MP4SDQ=-33.8991153\CCSD=-33.9001434\CCSD(T)=-33
 Normal termination of Gaussian 16 at Sun Dec 10 07:04:33 2023.
