 Gaussian 16, Revision A.03,
 Gaussian 16:  ES64L-G16RevA.03 25-Dec-2016

 ------------------
 #p CCSD(T)/CEP-31G
 ------------------

 ------------
 H2O_H2O_4206
 ------------
 Symbolic Z-matrix:
 Charge =  0 Multiplicity = 1

                         Standard orientation:
 ---------------------------------------------------------------------
 Center     Atomic      Atomic             Coordinates (Angstroms)
 Number     Number       Type             X           Y           Z
 ---------------------------------------------------------------------
      1          8           0        0.076750    2.778689   -0.000000
      2          1           0        0.076241    1.796087   -0.000000
      3          1           0       -0.852578    3.097837    0.000000
      4          8           0        0.076750   -2.615465   -0.000000
      5          1           0        0.452305   -3.523465   -0.000000
      6          1           0       -0.903970   -2.676248    0.000000
 ---------------------------------------------------------------------

 SCF Done:  E(RHF) =  -33.6528051437     A.U. after   11 cycles
 E2 =    -0.2283266399D+00 EUMP2 =    -0.33881131783632D+02
 CCSD(T)
 CCSD(T)= -0.33898103697D+02

 The electronic state is 1-A'.
 Alpha  occ. eigenvalues --   -1.36344  -1.34792  -0.71990  -0.70411  -0.56140
 Alpha  occ. eigenvalues --   -0.54552  -0.50929  -0.49376
 Alpha virt. eigenvalues --    0.19418   0.21123   0.29721   0.31372   0.79631
 Alpha virt. eigenvalues --    0.81149   0.82509   0.84159   0.85639   0.87337
 Alpha virt. eigenvalues --    1.16600   1.18164   1.21033   1.22745   2.56558

 Mulliken charges:
               1
     1  O   -0.745143
     2  H    0.378304
     3  H    0.366814
     4  O   -0.745140
     5  H    0.375276
     6  H    0.369889
 Sum of Mulliken charges =   0.00000

 Dipole moment (field-independent basis, Debye):
    X=             -3.5252    Y=             -3.8387    Z=              0.0000  Tot=              5.2118
 Quadrupole moment (field-independent basis, Debye-Ang):
   XX=            -10.3180   YY=             -6.8263   ZZ=            -14.9904
   XY=             -4.3067   XZ=             -0.0000   YZ=              0.0000

 09\MP4DQ=-33.8924656\MP4SDQ=-33.8944913\CCSD=-33.895544\CCSD(T)=-33.89
 Normal termination of Gaussian 16 at Sun Dec 10 06:48:42 2023.
