 Gaussian 16, Revision A.03,
 Gaussian 16:  ES64L-G16RevA.03 25-Dec-2016

 ------------------
 #p CCSD(T)/CEP-31G
 ------------------

 ------------
 H2O_H2O_1335
 ------------
 Symbolic Z-matrix:
 Charge =  0 Multiplicity = 1

                         Standard orientation:
 ---------------------------------------------------------------------
 Center     Atomic      Atomic             Coordinates (Angstroms)
 Number     Number       Type             X           Y           Z
 ---------------------------------------------------------------------
      1          8           0        0.063282    1.638558   -0.000000
      2          1           0        0.061656    0.655958   -0.000000
      3          1           0       -0.865683    1.958762   -0.000000
      4          8           0        0.063282   -1.463116    0.000000
      5          1           0        0.660161   -2.243656    0.000000
      6          1           0       -0.868643   -1.774600    0.000000
 ---------------------------------------------------------------------

 SCF Done:  E(RHF) =  -33.6605015543     A.U. after   11 cycles
 E2 =    -0.2289721641D+00 EUMP2 =    -0.33889473718438D+02
 CCSD(T)
 CCSD(T)= -0.33906230338D+02

 The electronic state is 1-A'.
 Alpha  occ. eigenvalues --   -1.38269  -1.32217  -0.73953  -0.68209  -0.58695
 Alpha  occ. eigenvalues --   -0.52952  -0.51908  -0.46848
 Alpha virt. eigenvalues --    0.17640   0.25432   0.28280   0.40567   0.76600
 Alpha virt. eigenvalues --    0.79732   0.84826   0.85543   0.92243   1.01765
 Alpha virt. eigenvalues --    1.14932   1.19007   1.21339   1.35282   2.49945

 Mulliken charges:
               1
     1  O   -0.776926
     2  H    0.425031
     3  H    0.350455
     4  O   -0.786933
     5  H    0.405726
     6  H    0.382647
 Sum of Mulliken charges =   0.00000

 Dipole moment (field-independent basis, Debye):
    X=             -2.8026    Y=             -4.4909    Z=              0.0000  Tot=              5.2936
 Quadrupole moment (field-independent basis, Debye-Ang):
   XX=             -9.7691   YY=             -8.3524   ZZ=            -15.0080
   XY=             -4.0419   XZ=              0.0000   YZ=             -0.0000

 7103\MP4DQ=-33.9004159\MP4SDQ=-33.9025281\CCSD=-33.9035195\CCSD(T)=-33
 Normal termination of Gaussian 16 at Sun Dec 10 06:43:48 2023.
