 Gaussian 16, Revision A.03,
 Gaussian 16:  ES64L-G16RevA.03 25-Dec-2016

 ------------------
 #p CCSD(T)/CEP-31G
 ------------------

 -----------
 H2O_H2O_114
 -----------
 Symbolic Z-matrix:
 Charge =  0 Multiplicity = 1

                         Standard orientation:
 ---------------------------------------------------------------------
 Center     Atomic      Atomic             Coordinates (Angstroms)
 Number     Number       Type             X           Y           Z
 ---------------------------------------------------------------------
      1          8           0        0.048755    1.152530    0.000000
      2          1           0        0.045211    0.169935    0.000000
      3          1           0       -0.879582    1.474547    0.000000
      4          8           0        0.048755   -0.972328    0.000000
      5          1           0        0.826143   -1.573305    0.000000
      6          1           0       -0.771855   -1.512795    0.000000
 ---------------------------------------------------------------------

 SCF Done:  E(RHF) =  -33.6077576709     A.U. after   11 cycles
 E2 =    -0.2277637028D+00 EUMP2 =    -0.33835521373690D+02
 CCSD(T)
 CCSD(T)= -0.33850083482D+02

 The electronic state is 1-A'.
 Alpha  occ. eigenvalues --   -1.45373  -1.26818  -0.79186  -0.78689  -0.58765
 Alpha  occ. eigenvalues --   -0.54716  -0.43884  -0.40782
 Alpha virt. eigenvalues --    0.16252   0.25148   0.30253   0.61940   0.73263
 Alpha virt. eigenvalues --    0.73418   0.85838   0.91830   0.92117   1.06899
 Alpha virt. eigenvalues --    1.12898   1.15979   1.29288   1.35201   2.93887

 Mulliken charges:
               1
     1  O   -0.749160
     2  H    0.323032
     3  H    0.305065
     4  O   -0.783114
     5  H    0.460845
     6  H    0.443331
 Sum of Mulliken charges =  -0.00000

 Dipole moment (field-independent basis, Debye):
    X=             -1.9721    Y=             -5.7089    Z=              0.0000  Tot=              6.0399
 Quadrupole moment (field-independent basis, Debye-Ang):
   XX=             -9.3259   YY=            -10.6907   ZZ=            -14.9375
   XY=             -3.3292   XZ=              0.0000   YZ=              0.0000

 MP4DQ=-33.8438987\MP4SDQ=-33.8462425\CCSD=-33.8468362\CCSD(T)=-33.8500
 Normal termination of Gaussian 16 at Sun Dec 10 06:20:17 2023.
