 Gaussian 16, Revision A.03,
 Gaussian 16:  ES64L-G16RevA.03 25-Dec-2016

 ------------------
 #p CCSD(T)/CEP-31G
 ------------------

 ------------
 H2O_H2O_4538
 ------------
 Symbolic Z-matrix:
 Charge =  0 Multiplicity = 1

                         Standard orientation:
 ---------------------------------------------------------------------
 Center     Atomic      Atomic             Coordinates (Angstroms)
 Number     Number       Type             X           Y           Z
 ---------------------------------------------------------------------
      1          8           0        0.052271    2.917396   -0.000000
      2          1           0        0.051050    1.934795   -0.000000
      3          1           0       -0.876826    3.237217   -0.000000
      4          8           0        0.052271   -2.737473    0.000000
      5          1           0        0.790224   -3.386264    0.000000
      6          1           0       -0.800780   -3.225132    0.000000
 ---------------------------------------------------------------------

 SCF Done:  E(RHF) =  -33.6532152759     A.U. after   11 cycles
 E2 =    -0.2283048438D+00 EUMP2 =    -0.33881520119700D+02
 CCSD(T)
 CCSD(T)= -0.33898479895D+02

 The electronic state is 1-A'.
 Alpha  occ. eigenvalues --   -1.36252  -1.34678  -0.71892  -0.70306  -0.56069
 Alpha  occ. eigenvalues --   -0.54457  -0.50845  -0.49272
 Alpha virt. eigenvalues --    0.19585   0.21221   0.29846   0.31500   0.79708
 Alpha virt. eigenvalues --    0.81247   0.82570   0.84241   0.85753   0.87364
 Alpha virt. eigenvalues --    1.16711   1.18286   1.21155   1.22794   2.56684

 Mulliken charges:
               1
     1  O   -0.746692
     2  H    0.378714
     3  H    0.367968
     4  O   -0.746217
     5  H    0.374440
     6  H    0.371787
 Sum of Mulliken charges =  -0.00000

 Dipole moment (field-independent basis, Debye):
    X=             -2.4012    Y=             -4.2195    Z=              0.0000  Tot=              4.8549
 Quadrupole moment (field-independent basis, Debye-Ang):
   XX=             -9.5148   YY=             -5.1176   ZZ=            -14.9915
   XY=             -6.8323   XZ=              0.0000   YZ=             -0.0000

 099\MP4DQ=-33.8928459\MP4SDQ=-33.89487\CCSD=-33.8959224\CCSD(T)=-33.89
 Normal termination of Gaussian 16 at Sun Dec 10 06:54:41 2023.
