 Gaussian 16, Revision A.03,
 Gaussian 16:  ES64L-G16RevA.03 25-Dec-2016

 ------------------
 #p CCSD(T)/CEP-31G
 ------------------

 ------------
 H2O_H2O_2303
 ------------
 Symbolic Z-matrix:
 Charge =  0 Multiplicity = 1

                         Standard orientation:
 ---------------------------------------------------------------------
 Center     Atomic      Atomic             Coordinates (Angstroms)
 Number     Number       Type             X           Y           Z
 ---------------------------------------------------------------------
      1          8           0        0.085604   -2.013416    0.000000
      2          1           0        0.085283   -1.030815    0.000000
      3          1           0       -0.843784   -2.332387    0.000000
      4          8           0        0.085604    1.863827    0.000000
      5          1           0        0.276985    2.827611    0.000000
      6          1           0       -0.888155    1.732300    0.000000
 ---------------------------------------------------------------------

 SCF Done:  E(RHF) =  -33.6540105057     A.U. after   11 cycles
 E2 =    -0.2285972713D+00 EUMP2 =    -0.33882607777061D+02
 CCSD(T)
 CCSD(T)= -0.33899596151D+02

 The electronic state is 1-A'.
 Alpha  occ. eigenvalues --   -1.37205  -1.34262  -0.72913  -0.69830  -0.57095
 Alpha  occ. eigenvalues --   -0.54004  -0.51794  -0.48844
 Alpha virt. eigenvalues --    0.17272   0.23031   0.28952   0.32989   0.78668
 Alpha virt. eigenvalues --    0.81821   0.82930   0.84687   0.87957   0.88986
 Alpha virt. eigenvalues --    1.15523   1.19107   1.20474   1.32775   2.54877

 Mulliken charges:
               1
     1  O   -0.751474
     2  H    0.389521
     3  H    0.360356
     4  O   -0.750515
     5  H    0.383999
     6  H    0.368114
 Sum of Mulliken charges =   0.00000

 Dipole moment (field-independent basis, Debye):
    X=             -3.8920    Y=              3.6453    Z=              0.0000  Tot=              5.3326
 Quadrupole moment (field-independent basis, Debye-Ang):
   XX=            -10.8233   YY=             -8.6160   ZZ=            -14.9913
   XY=              3.0249   XZ=              0.0000   YZ=              0.0000

 148\MP4DQ=-33.8938873\MP4SDQ=-33.8959623\CCSD=-33.8969941\CCSD(T)=-33.
 Normal termination of Gaussian 16 at Sun Dec 10 07:03:49 2023.
