 Gaussian 16, Revision A.03,
 Gaussian 16:  ES64L-G16RevA.03 25-Dec-2016

 ------------------
 #p CCSD(T)/CEP-31G
 ------------------

 ------------
 H2O_H2O_1555
 ------------
 Symbolic Z-matrix:
 Charge =  0 Multiplicity = 1

                         Standard orientation:
 ---------------------------------------------------------------------
 Center     Atomic      Atomic             Coordinates (Angstroms)
 Number     Number       Type             X           Y           Z
 ---------------------------------------------------------------------
      1          8           0        0.079867   -1.719388    0.000000
      2          1           0        0.079189   -0.736787    0.000000
      3          1           0       -0.849406   -2.038695    0.000000
      4          8           0        0.079867    1.560357    0.000000
      5          1           0        0.395073    2.491030    0.000000
      6          1           0       -0.902727    1.556700    0.000000
 ---------------------------------------------------------------------

 SCF Done:  E(RHF) =  -33.6566842171     A.U. after   11 cycles
 E2 =    -0.2288965083D+00 EUMP2 =    -0.33885580725378D+02
 CCSD(T)
 CCSD(T)= -0.33902540763D+02

 The electronic state is 1-A'.
 Alpha  occ. eigenvalues --   -1.37979  -1.33254  -0.73774  -0.68883  -0.58117
 Alpha  occ. eigenvalues --   -0.52953  -0.52588  -0.47843
 Alpha virt. eigenvalues --    0.17267   0.24574   0.28349   0.37479   0.77196
 Alpha virt. eigenvalues --    0.81224   0.83582   0.85171   0.89935   1.02274
 Alpha virt. eigenvalues --    1.15048   1.18293   1.21247   1.38182   2.50684

 Mulliken charges:
               1
     1  O   -0.763391
     2  H    0.407189
     3  H    0.353034
     4  O   -0.769054
     5  H    0.399793
     6  H    0.372429
 Sum of Mulliken charges =   0.00000

 Dipole moment (field-independent basis, Debye):
    X=             -3.5816    Y=              4.0254    Z=              0.0000  Tot=              5.3881
 Quadrupole moment (field-independent basis, Debye-Ang):
   XX=            -10.5047   YY=             -8.5567   ZZ=            -14.9974
   XY=              3.3128   XZ=              0.0000   YZ=              0.0000

 081\MP4DQ=-33.8967265\MP4SDQ=-33.8988555\CCSD=-33.8998687\CCSD(T)=-33.
 Normal termination of Gaussian 16 at Sun Dec 10 06:48:11 2023.
