 Gaussian 16, Revision A.03,
 Gaussian 16:  ES64L-G16RevA.03 25-Dec-2016

 ------------------
 #p CCSD(T)/CEP-31G
 ------------------

 -----------
 H2O_H2O_674
 -----------
 Symbolic Z-matrix:
 Charge =  0 Multiplicity = 1

                         Standard orientation:
 ---------------------------------------------------------------------
 Center     Atomic      Atomic             Coordinates (Angstroms)
 Number     Number       Type             X           Y           Z
 ---------------------------------------------------------------------
      1          8           0        0.013704   -1.360509    0.000000
      2          1           0        0.008443   -0.377922    0.000000
      3          1           0       -0.914069   -1.684148    0.000000
      4          8           0        0.013704    1.201311    0.000000
      5          1           0        0.996292    1.206571    0.000000
      6          1           0       -0.309935    2.129084    0.000000
 ---------------------------------------------------------------------

 SCF Done:  E(RHF) =  -33.6557204299     A.U. after   11 cycles
 E2 =    -0.2283005005D+00 EUMP2 =    -0.33884020930330D+02
 CCSD(T)
 CCSD(T)= -0.33900234079D+02

 The electronic state is 1-A'.
 Alpha  occ. eigenvalues --   -1.40291  -1.30592  -0.76747  -0.68578  -0.59636
 Alpha  occ. eigenvalues --   -0.54776  -0.49744  -0.45198
 Alpha virt. eigenvalues --    0.17444   0.26703   0.27854   0.50523   0.74312
 Alpha virt. eigenvalues --    0.76923   0.86826   0.87963   0.92259   1.08382
 Alpha virt. eigenvalues --    1.15191   1.22364   1.28770   1.38153   2.63548

 Mulliken charges:
               1
     1  O   -0.767671
     2  H    0.387655
     3  H    0.354847
     4  O   -0.829678
     5  H    0.406385
     6  H    0.448463
 Sum of Mulliken charges =  -0.00000

 Dipole moment (field-independent basis, Debye):
    X=             -0.6146    Y=              4.4679    Z=              0.0000  Tot=              4.5099
 Quadrupole moment (field-independent basis, Debye-Ang):
   XX=             -9.8163   YY=             -9.3630   ZZ=            -15.0093
   XY=              4.7378   XZ=              0.0000   YZ=              0.0000

 28\MP4DQ=-33.8942753\MP4SDQ=-33.8964781\CCSD=-33.8973644\CCSD(T)=-33.9
 Normal termination of Gaussian 16 at Sun Dec 10 06:31:12 2023.
