 Gaussian 16, Revision A.03,
 Gaussian 16:  ES64L-G16RevA.03 25-Dec-2016

 ------------------
 #p CCSD(T)/CEP-31G
 ------------------

 ------------
 H2O_H2O_2850
 ------------
 Symbolic Z-matrix:
 Charge =  0 Multiplicity = 1

                         Standard orientation:
 ---------------------------------------------------------------------
 Center     Atomic      Atomic             Coordinates (Angstroms)
 Number     Number       Type             X           Y           Z
 ---------------------------------------------------------------------
      1          8           0        0.092949   -2.223672    0.000000
      2          1           0        0.092949   -1.241070    0.000000
      3          1           0       -0.836544   -2.542338    0.000000
      4          8           0        0.092949    2.090885    0.000000
      5          1           0        0.092950    3.073487    0.000000
      6          1           0       -0.836544    1.772218    0.000000
 ---------------------------------------------------------------------

 SCF Done:  E(RHF) =  -33.6523685160     A.U. after   11 cycles
 E2 =    -0.2284698884D+00 EUMP2 =    -0.33880838404403D+02
 CCSD(T)
 CCSD(T)= -0.33897838634D+02

 The electronic state is 1-A'.
 Alpha  occ. eigenvalues --   -1.36873  -1.34882  -0.72558  -0.70466  -0.56657
 Alpha  occ. eigenvalues --   -0.54605  -0.51444  -0.49448
 Alpha virt. eigenvalues --    0.17300   0.22205   0.29180   0.31702   0.79130
 Alpha virt. eigenvalues --    0.81116   0.82566   0.84069   0.85754   0.87620
 Alpha virt. eigenvalues --    1.15592   1.18589   1.20550   1.27111   2.55882

 Mulliken charges:
               1
     1  O   -0.743906
     2  H    0.379735
     3  H    0.363655
     4  O   -0.744396
     5  H    0.379505
     6  H    0.365408
 Sum of Mulliken charges =   0.00000

 Dipole moment (field-independent basis, Debye):
    X=             -4.2484    Y=              3.1825    Z=              0.0000  Tot=              5.3082
 Quadrupole moment (field-independent basis, Debye-Ang):
   XX=            -11.2974   YY=             -9.5839   ZZ=            -14.9879
   XY=              2.2938   XZ=              0.0000   YZ=              0.0000

 306\MP4DQ=-33.8921695\MP4SDQ=-33.8942155\CCSD=-33.895259\CCSD(T)=-33.8
 Normal termination of Gaussian 16 at Sun Dec 10 06:24:18 2023.
