 Gaussian 16, Revision A.03,
 Gaussian 16:  ES64L-G16RevA.03 25-Dec-2016

 ------------------
 #p CCSD(T)/CEP-31G
 ------------------

 ------------
 H2O_H2O_4011
 ------------
 Symbolic Z-matrix:
 Charge =  0 Multiplicity = 1

                         Standard orientation:
 ---------------------------------------------------------------------
 Center     Atomic      Atomic             Coordinates (Angstroms)
 Number     Number       Type             X           Y           Z
 ---------------------------------------------------------------------
      1          8           0        0.059626    2.706650   -0.000000
      2          1           0        0.058546    1.724049   -0.000000
      3          1           0       -0.869517    3.026338   -0.000000
      4          8           0        0.059626   -2.529185    0.000000
      5          1           0        0.706687   -3.268655    0.000000
      6          1           0       -0.849726   -2.901457    0.000000
 ---------------------------------------------------------------------

 SCF Done:  E(RHF) =  -33.6534825224     A.U. after   11 cycles
 E2 =    -0.2283022787D+00 EUMP2 =    -0.33881784801082D+02
 CCSD(T)
 CCSD(T)= -0.33898736799D+02

 The electronic state is 1-A'.
 Alpha  occ. eigenvalues --   -1.36373  -1.34546  -0.72016  -0.70168  -0.56207
 Alpha  occ. eigenvalues --   -0.54328  -0.50969  -0.49142
 Alpha virt. eigenvalues --    0.19427   0.21411   0.29732   0.31678   0.79589
 Alpha virt. eigenvalues --    0.81370   0.82391   0.84383   0.85601   0.87524
 Alpha virt. eigenvalues --    1.16602   1.18447   1.21031   1.23073   2.56565

 Mulliken charges:
               1
     1  O   -0.747746
     2  H    0.380767
     3  H    0.366918
     4  O   -0.747206
     5  H    0.375611
     6  H    0.371657
 Sum of Mulliken charges =  -0.00000

 Dipole moment (field-independent basis, Debye):
    X=             -2.7347    Y=             -4.1793    Z=              0.0000  Tot=              4.9945
 Quadrupole moment (field-independent basis, Debye-Ang):
   XX=             -9.6723   YY=             -5.7833   ZZ=            -14.9920
   XY=             -5.8246   XZ=              0.0000   YZ=             -0.0000

 555\MP4DQ=-33.8931033\MP4SDQ=-33.8951279\CCSD=-33.8961787\CCSD(T)=-33.
 Normal termination of Gaussian 16 at Sun Dec 10 06:45:11 2023.
