 Gaussian 16, Revision A.03,
 Gaussian 16:  ES64L-G16RevA.03 25-Dec-2016

 ------------------
 #p CCSD(T)/CEP-31G
 ------------------

 -----------
 H2O_H2O_640
 -----------
 Symbolic Z-matrix:
 Charge =  0 Multiplicity = 1

                         Standard orientation:
 ---------------------------------------------------------------------
 Center     Atomic      Atomic             Coordinates (Angstroms)
 Number     Number       Type             X           Y           Z
 ---------------------------------------------------------------------
      1          8           0        0.044987    1.361975    0.000000
      2          1           0        0.041778    0.379379    0.000000
      3          1           0       -0.883460    1.683676    0.000000
      4          8           0        0.044987   -1.181704   -0.000000
      5          1           0        0.860203   -1.730274   -0.000000
      6          1           0       -0.738316   -1.774952   -0.000000
 ---------------------------------------------------------------------

 SCF Done:  E(RHF) =  -33.6587044565     A.U. after   11 cycles
 E2 =    -0.2290090245D+00 EUMP2 =    -0.33887713480987D+02
 CCSD(T)
 CCSD(T)= -0.33903565095D+02

 The electronic state is 1-A'.
 Alpha  occ. eigenvalues --   -1.40392  -1.29750  -0.75688  -0.70305  -0.58780
 Alpha  occ. eigenvalues --   -0.55061  -0.48793  -0.44277
 Alpha virt. eigenvalues --    0.17230   0.27152   0.27861   0.52351   0.74303
 Alpha virt. eigenvalues --    0.74768   0.85412   0.88591   0.96925   0.99452
 Alpha virt. eigenvalues --    1.14785   1.18124   1.24074   1.37013   2.63772

 Mulliken charges:
               1
     1  O   -0.779614
     2  H    0.429923
     3  H    0.336353
     4  O   -0.830937
     5  H    0.426050
     6  H    0.418225
 Sum of Mulliken charges =   0.00000

 Dipole moment (field-independent basis, Debye):
    X=             -1.9299    Y=             -4.9852    Z=             -0.0000  Tot=              5.3458
 Quadrupole moment (field-independent basis, Debye-Ang):
   XX=             -9.3506   YY=             -9.4712   ZZ=            -15.0161
   XY=             -3.9314   XZ=             -0.0000   YZ=              0.0000

 37\MP4DQ=-33.897627\MP4SDQ=-33.8997875\CCSD=-33.9006184\CCSD(T)=-33.90
 Normal termination of Gaussian 16 at Sun Dec 10 06:30:34 2023.
