 Gaussian 16, Revision A.03,
 Gaussian 16:  ES64L-G16RevA.03 25-Dec-2016

 ------------------
 #p CCSD(T)/CEP-31G
 ------------------

 ------------
 H2O_H2O_2237
 ------------
 Symbolic Z-matrix:
 Charge =  0 Multiplicity = 1

                         Standard orientation:
 ---------------------------------------------------------------------
 Center     Atomic      Atomic             Coordinates (Angstroms)
 Number     Number       Type             X           Y           Z
 ---------------------------------------------------------------------
      1          8           0        0.056013    1.999414   -0.000000
      2          1           0        0.054371    1.016814   -0.000000
      3          1           0       -0.872946    2.319634   -0.000000
      4          8           0        0.056013   -1.820535    0.000000
      5          1           0        0.749655   -2.516500    0.000000
      6          1           0       -0.827289   -2.250979    0.000000
 ---------------------------------------------------------------------

 SCF Done:  E(RHF) =  -33.6571377759     A.U. after   11 cycles
 E2 =    -0.2285157024D+00 EUMP2 =    -0.33885653478260D+02
 CCSD(T)
 CCSD(T)= -0.33902547215D+02

 The electronic state is 1-A'.
 Alpha  occ. eigenvalues --   -1.37195  -1.33410  -0.72850  -0.69029  -0.57294
 Alpha  occ. eigenvalues --   -0.53238  -0.51839  -0.48046
 Alpha virt. eigenvalues --    0.18218   0.23442   0.29105   0.34082   0.78615
 Alpha virt. eigenvalues --    0.82547   0.83636   0.85531   0.87251   0.88774
 Alpha virt. eigenvalues --    1.15872   1.20041   1.20355   1.31144   2.53059

 Mulliken charges:
               1
     1  O   -0.763533
     2  H    0.400446
     3  H    0.360981
     4  O   -0.758543
     5  H    0.384307
     6  H    0.376342
 Sum of Mulliken charges =  -0.00000

 Dipole moment (field-independent basis, Debye):
    X=             -2.5345    Y=             -4.3688    Z=              0.0000  Tot=              5.0508
 Quadrupole moment (field-independent basis, Debye-Ang):
   XX=             -9.5818   YY=             -7.2651   ZZ=            -14.9990
   XY=             -4.9099   XZ=              0.0000   YZ=             -0.0000

 66\MP4DQ=-33.8968556\MP4SDQ=-33.8989222\CCSD=-33.8999497\CCSD(T)=-33.9
 Normal termination of Gaussian 16 at Sun Dec 10 07:01:41 2023.
