 Gaussian 16, Revision A.03,
 Gaussian 16:  ES64L-G16RevA.03 25-Dec-2016

 ------------------
 #p CCSD(T)/CEP-31G
 ------------------

 -----------
 H2O_H2O_395
 -----------
 Symbolic Z-matrix:
 Charge =  0 Multiplicity = 1

                         Standard orientation:
 ---------------------------------------------------------------------
 Center     Atomic      Atomic             Coordinates (Angstroms)
 Number     Number       Type             X           Y           Z
 ---------------------------------------------------------------------
      1          8           0        0.026861    1.258367    0.000000
      2          1           0        0.022059    0.275777    0.000000
      3          1           0       -0.901064    1.581572   -0.000000
      4          8           0        0.026861   -1.085268    0.000000
      5          1           0        0.974727   -1.344218    0.000000
      6          1           0       -0.525496   -1.897922   -0.000000
 ---------------------------------------------------------------------

 SCF Done:  E(RHF) =  -33.6450894088     A.U. after   11 cycles
 E2 =    -0.2281891662D+00 EUMP2 =    -0.33873278574991D+02
 CCSD(T)
 CCSD(T)= -0.33888654731D+02

 The electronic state is 1-A'.
 Alpha  occ. eigenvalues --   -1.42079  -1.28679  -0.77907  -0.72055  -0.57863
 Alpha  occ. eigenvalues --   -0.56368  -0.47090  -0.43088
 Alpha virt. eigenvalues --    0.17071   0.26217   0.28878   0.57190   0.73719
 Alpha virt. eigenvalues --    0.74580   0.87201   0.89971   0.94396   1.01089
 Alpha virt. eigenvalues --    1.15326   1.20118   1.26766   1.37031   2.76888

 Mulliken charges:
               1
     1  O   -0.766397
     2  H    0.385239
     3  H    0.335053
     4  O   -0.836506
     5  H    0.425427
     6  H    0.457185
 Sum of Mulliken charges =  -0.00000

 Dipole moment (field-independent basis, Debye):
    X=             -1.1696    Y=             -5.0965    Z=             -0.0000  Tot=              5.2289
 Quadrupole moment (field-independent basis, Debye-Ang):
   XX=             -9.4217   YY=             -9.9033   ZZ=            -14.9953
   XY=             -3.8907   XZ=              0.0000   YZ=             -0.0000

 63\MP4DQ=-33.8826434\MP4SDQ=-33.8848571\CCSD=-33.8856133\CCSD(T)=-33.8
 Normal termination of Gaussian 16 at Sun Dec 10 06:25:50 2023.
