 Gaussian 16, Revision A.03,
 Gaussian 16:  ES64L-G16RevA.03 25-Dec-2016

 ------------------
 #p CCSD(T)/CEP-31G
 ------------------

 -----------
 H2O_H2O_752
 -----------
 Symbolic Z-matrix:
 Charge =  0 Multiplicity = 1

                         Standard orientation:
 ---------------------------------------------------------------------
 Center     Atomic      Atomic             Coordinates (Angstroms)
 Number     Number       Type             X           Y           Z
 ---------------------------------------------------------------------
      1          8           0        0.088241   -1.392282    0.000000
      2          1           0        0.087938   -0.409681    0.000000
      3          1           0       -0.841154   -1.711235    0.000000
      4          8           0        0.088241    1.247985    0.000000
      5          1           0        0.216196    2.222221    0.000000
      6          1           0       -0.874835    1.053071    0.000000
 ---------------------------------------------------------------------

 SCF Done:  E(RHF) =  -33.6475395984     A.U. after   11 cycles
 E2 =    -0.2291006694D+00 EUMP2 =    -0.33876640267832D+02
 CCSD(T)
 CCSD(T)= -0.33893345516D+02

 The electronic state is 1-A'.
 Alpha  occ. eigenvalues --   -1.40238  -1.32278  -0.77056  -0.68530  -0.59296
 Alpha  occ. eigenvalues --   -0.54539  -0.51560  -0.46703
 Alpha virt. eigenvalues --    0.16570   0.25351   0.27677   0.47376   0.74294
 Alpha virt. eigenvalues --    0.78172   0.85129   0.86745   0.93198   1.11275
 Alpha virt. eigenvalues --    1.14417   1.23397   1.33024   1.36529   2.56720

 Mulliken charges:
               1
     1  O   -0.731222
     2  H    0.368346
     3  H    0.337271
     4  O   -0.786867
     5  H    0.440380
     6  H    0.372091
 Sum of Mulliken charges =   0.00000

 Dipole moment (field-independent basis, Debye):
    X=             -3.8509    Y=              4.0329    Z=              0.0000  Tot=              5.5762
 Quadrupole moment (field-independent basis, Debye-Ang):
   XX=            -11.0446   YY=             -9.4983   ZZ=            -14.9883
   XY=              2.5868   XZ=              0.0000   YZ=              0.0000

 269\MP4DQ=-33.8872735\MP4SDQ=-33.8895661\CCSD=-33.8904769\CCSD(T)=-33.
 Normal termination of Gaussian 16 at Sun Dec 10 06:32:40 2023.
