 Gaussian 16, Revision A.03,
 Gaussian 16:  ES64L-G16RevA.03 25-Dec-2016

 ------------------
 #p CCSD(T)/CEP-31G
 ------------------

 -----------
 H2O_H2O_167
 -----------
 Symbolic Z-matrix:
 Charge =  0 Multiplicity = 1

                         Standard orientation:
 ---------------------------------------------------------------------
 Center     Atomic      Atomic             Coordinates (Angstroms)
 Number     Number       Type             X           Y           Z
 ---------------------------------------------------------------------
      1          8           0        0.037653    1.171710   -0.000000
      2          1           0        0.033300    0.189118   -0.000000
      3          1           0       -0.890419    1.494491   -0.000000
      4          8           0        0.037653   -0.992919    0.000000
      5          1           0        0.916988   -1.431413    0.000000
      6          1           0       -0.662316   -1.682520    0.000000
 ---------------------------------------------------------------------

 SCF Done:  E(RHF) =  -33.6181045305     A.U. after   11 cycles
 E2 =    -0.2277653729D+00 EUMP2 =    -0.33845869903375D+02
 CCSD(T)
 CCSD(T)= -0.33860552731D+02

 The electronic state is 1-A'.
 Alpha  occ. eigenvalues --   -1.44585  -1.27097  -0.79371  -0.76726  -0.58232
 Alpha  occ. eigenvalues --   -0.55465  -0.44459  -0.41184
 Alpha virt. eigenvalues --    0.16519   0.25418   0.29989   0.61448   0.73359
 Alpha virt. eigenvalues --    0.73514   0.86526   0.91524   0.92357   1.03611
 Alpha virt. eigenvalues --    1.13971   1.17415   1.28901   1.35764   2.89574

 Mulliken charges:
               1
     1  O   -0.756460
     2  H    0.338593
     3  H    0.314650
     4  O   -0.799822
     5  H    0.446605
     6  H    0.456435
 Sum of Mulliken charges =  -0.00000

 Dipole moment (field-independent basis, Debye):
    X=             -1.5614    Y=             -5.5842    Z=              0.0000  Tot=              5.7984
 Quadrupole moment (field-independent basis, Debye-Ang):
   XX=             -9.2713   YY=            -10.5289   ZZ=            -14.9537
   XY=             -3.4496   XZ=              0.0000   YZ=             -0.0000

 223\MP4DQ=-33.8544309\MP4SDQ=-33.8567227\CCSD=-33.8573493\CCSD(T)=-33.
 Normal termination of Gaussian 16 at Sun Dec 10 06:21:20 2023.
