 Gaussian 16, Revision A.03,
 Gaussian 16:  ES64L-G16RevA.03 25-Dec-2016

 ------------------
 #p CCSD(T)/CEP-31G
 ------------------

 ------------
 H2O_H2O_2899
 ------------
 Symbolic Z-matrix:
 Charge =  0 Multiplicity = 1

                         Standard orientation:
 ---------------------------------------------------------------------
 Center     Atomic      Atomic             Coordinates (Angstroms)
 Number     Number       Type             X           Y           Z
 ---------------------------------------------------------------------
      1          8           0       -0.013530    2.248033    0.000000
      2          1           0       -0.010422    1.265437    0.000000
      3          1           0        0.914951    2.569638    0.000000
      4          8           0       -0.013530   -2.088775    0.000000
      5          1           0       -0.996126   -2.091883    0.000000
      6          1           0        0.308076   -3.017256    0.000000
 ---------------------------------------------------------------------

 SCF Done:  E(RHF) =  -33.6554403939     A.U. after   11 cycles
 E2 =    -0.2283152539D+00 EUMP2 =    -0.33883755647735D+02
 CCSD(T)
 CCSD(T)= -0.33900668274D+02

 The electronic state is 1-A'.
 Alpha  occ. eigenvalues --   -1.36745  -1.34254  -0.72402  -0.69902  -0.56689
 Alpha  occ. eigenvalues --   -0.54100  -0.51366  -0.48886
 Alpha virt. eigenvalues --    0.18386   0.22354   0.29444   0.32255   0.79192
 Alpha virt. eigenvalues --    0.81610   0.82598   0.84338   0.85813   0.87710
 Alpha virt. eigenvalues --    1.16198   1.19227   1.20710   1.26810   2.56157

 Mulliken charges:
               1
     1  O   -0.755759
     2  H    0.385514
     3  H    0.369451
     4  O   -0.753925
     5  H    0.376467
     6  H    0.378252
 Sum of Mulliken charges =   0.00000

 Dipole moment (field-independent basis, Debye):
    X=              0.6150    Y=             -3.8051    Z=              0.0000  Tot=              3.8545
 Quadrupole moment (field-independent basis, Debye-Ang):
   XX=             -9.8687   YY=             -7.7745   ZZ=            -14.9954
   XY=              8.1171   XZ=              0.0000   YZ=              0.0000

 2674\MP4DQ=-33.8950215\MP4SDQ=-33.8970607\CCSD=-33.8980992\CCSD(T)=-33
 Normal termination of Gaussian 16 at Sun Dec 10 06:25:10 2023.
