 Gaussian 16, Revision A.03,
 Gaussian 16:  ES64L-G16RevA.03 25-Dec-2016

 ------------------
 #p CCSD(T)/CEP-31G
 ------------------

 ------------
 H2O_H2O_3841
 ------------
 Symbolic Z-matrix:
 Charge =  0 Multiplicity = 1

                         Standard orientation:
 ---------------------------------------------------------------------
 Center     Atomic      Atomic             Coordinates (Angstroms)
 Number     Number       Type             X           Y           Z
 ---------------------------------------------------------------------
      1          8           0        0.041121    2.638195   -0.000000
      2          1           0        0.039395    1.655595   -0.000000
      3          1           0       -0.887811    2.958493   -0.000000
      4          8           0        0.041121   -2.458252    0.000000
      5          1           0        0.891215   -2.951047    0.000000
      6          1           0       -0.700732   -3.102582    0.000000
 ---------------------------------------------------------------------

 SCF Done:  E(RHF) =  -33.6540042140     A.U. after   11 cycles
 E2 =    -0.2282847214D+00 EUMP2 =    -0.33882288935415D+02
 CCSD(T)
 CCSD(T)= -0.33899226419D+02

 The electronic state is 1-A'.
 Alpha  occ. eigenvalues --   -1.36405  -1.34428  -0.72046  -0.70058  -0.56269
 Alpha  occ. eigenvalues --   -0.54231  -0.51009  -0.49035
 Alpha virt. eigenvalues --    0.19399   0.21573   0.29735   0.31826   0.79549
 Alpha virt. eigenvalues --    0.81467   0.82304   0.84476   0.85563   0.87590
 Alpha virt. eigenvalues --    1.16591   1.18608   1.21024   1.23291   2.56548

 Mulliken charges:
               1
     1  O   -0.749752
     2  H    0.382019
     3  H    0.367623
     4  O   -0.748796
     5  H    0.375572
     6  H    0.373334
 Sum of Mulliken charges =   0.00000

 Dipole moment (field-independent basis, Debye):
    X=             -1.8834    Y=             -4.2428    Z=              0.0000  Tot=              4.6420
 Quadrupole moment (field-independent basis, Debye-Ang):
   XX=             -9.4117   YY=             -5.7362   ZZ=            -14.9931
   XY=             -7.1734   XZ=              0.0000   YZ=             -0.0000

 8455\MP4DQ=-33.8935956\MP4SDQ=-33.89562\CCSD=-33.8966691\CCSD(T)=-33.8
 Normal termination of Gaussian 16 at Sun Dec 10 06:42:07 2023.
