 Gaussian 16, Revision A.03,
 Gaussian 16:  ES64L-G16RevA.03 25-Dec-2016

 ------------------
 #p CCSD(T)/CEP-31G
 ------------------

 -----------
 H2O_H2O_427
 -----------
 Symbolic Z-matrix:
 Charge =  0 Multiplicity = 1

                         Standard orientation:
 ---------------------------------------------------------------------
 Center     Atomic      Atomic             Coordinates (Angstroms)
 Number     Number       Type             X           Y           Z
 ---------------------------------------------------------------------
      1          8           0        0.088243   -1.262644    0.000000
      2          1           0        0.087907   -0.280043    0.000000
      3          1           0       -0.841140   -1.581629    0.000000
      4          8           0        0.088243    1.118353    0.000000
      5          1           0        0.216165    2.092592    0.000000
      6          1           0       -0.874826    0.923406    0.000000
 ---------------------------------------------------------------------

 SCF Done:  E(RHF) =  -33.6301211649     A.U. after   11 cycles
 E2 =    -0.2287954043D+00 EUMP2 =    -0.33858916569201D+02
 CCSD(T)
 CCSD(T)= -0.33875101572D+02

 The electronic state is 1-A'.
 Alpha  occ. eigenvalues --   -1.42423  -1.31050  -0.80009  -0.69337  -0.58711
 Alpha  occ. eigenvalues --   -0.56140  -0.49858  -0.45328
 Alpha virt. eigenvalues --    0.16327   0.24541   0.28480   0.53967   0.73408
 Alpha virt. eigenvalues --    0.76830   0.86350   0.88527   0.95301   1.10431
 Alpha virt. eigenvalues --    1.13515   1.23962   1.28679   1.43418   2.73225

 Mulliken charges:
               1
     1  O   -0.702094
     2  H    0.319616
     3  H    0.324142
     4  O   -0.787565
     5  H    0.468002
     6  H    0.377898
 Sum of Mulliken charges =  -0.00000

 Dipole moment (field-independent basis, Debye):
    X=             -3.7613    Y=              4.3448    Z=              0.0000  Tot=              5.7467
 Quadrupole moment (field-independent basis, Debye-Ang):
   XX=            -11.0419   YY=             -9.8748   ZZ=            -14.9637
   XY=              2.5143   XZ=              0.0000   YZ=              0.0000

 19\MP4DQ=-33.8688734\MP4SDQ=-33.8712737\CCSD=-33.8720786\CCSD(T)=-33.8
 Normal termination of Gaussian 16 at Sun Dec 10 06:26:27 2023.
