 Gaussian 16, Revision A.03,
 Gaussian 16:  ES64L-G16RevA.03 25-Dec-2016

 ------------------
 #p CCSD(T)/CEP-31G
 ------------------

 ------------
 H2O_H2O_3874
 ------------
 Symbolic Z-matrix:
 Charge =  0 Multiplicity = 1

                         Standard orientation:
 ---------------------------------------------------------------------
 Center     Atomic      Atomic             Coordinates (Angstroms)
 Number     Number       Type             X           Y           Z
 ---------------------------------------------------------------------
      1          8           0       -0.013491    2.636943    0.000000
      2          1           0       -0.010856    1.654345    0.000000
      3          1           0        0.915144    2.958101    0.000000
      4          8           0       -0.013491   -2.477672    0.000000
      5          1           0       -0.996090   -2.480307    0.000000
      6          1           0        0.307667   -3.406307    0.000000
 ---------------------------------------------------------------------

 SCF Done:  E(RHF) =  -33.6539074012     A.U. after   11 cycles
 E2 =    -0.2282739417D+00 EUMP2 =    -0.33882181342868D+02
 CCSD(T)
 CCSD(T)= -0.33899124336D+02

 The electronic state is 1-A'.
 Alpha  occ. eigenvalues --   -1.36389  -1.34676  -0.72034  -0.70319  -0.56242
 Alpha  occ. eigenvalues --   -0.54485  -0.50991  -0.49285
 Alpha virt. eigenvalues --    0.19333   0.21359   0.29738   0.31561   0.79565
 Alpha virt. eigenvalues --    0.81224   0.82342   0.84192   0.85543   0.87341
 Alpha virt. eigenvalues --    1.16587   1.18380   1.21014   1.23096   2.56493

 Mulliken charges:
               1
     1  O   -0.749386
     2  H    0.379245
     3  H    0.370068
     4  O   -0.748915
     5  H    0.373965
     6  H    0.375024
 Sum of Mulliken charges =   0.00000

 Dipole moment (field-independent basis, Debye):
    X=              0.6181    Y=             -3.7494    Z=              0.0000  Tot=              3.8000
 Quadrupole moment (field-independent basis, Debye-Ang):
   XX=             -9.8746   YY=             -7.2995   ZZ=            -14.9927
   XY=              9.5474   XZ=              0.0000   YZ=              0.0000

 P4DQ=-33.8934923\MP4SDQ=-33.8955164\CCSD=-33.8965665\CCSD(T)=-33.89912
 Normal termination of Gaussian 16 at Sun Dec 10 06:42:43 2023.
