 Gaussian 16, Revision A.03,
 Gaussian 16:  ES64L-G16RevA.03 25-Dec-2016

 ------------------
 #p CCSD(T)/CEP-31G
 ------------------

 ------------
 H2O_H2O_2783
 ------------
 Symbolic Z-matrix:
 Charge =  0 Multiplicity = 1

                         Standard orientation:
 ---------------------------------------------------------------------
 Center     Atomic      Atomic             Coordinates (Angstroms)
 Number     Number       Type             X           Y           Z
 ---------------------------------------------------------------------
      1          8           0        0.070203    2.214100    0.000000
      2          1           0        0.069296    1.231499    0.000000
      3          1           0       -0.858995    2.533624    0.000000
      4          8           0        0.070203   -2.043862   -0.000000
      5          1           0        0.560718   -2.895273   -0.000000
      6          1           0       -0.894269   -2.231746   -0.000000
 ---------------------------------------------------------------------

 SCF Done:  E(RHF) =  -33.6547347459     A.U. after   11 cycles
 E2 =    -0.2284015337D+00 EUMP2 =    -0.33883136279550D+02
 CCSD(T)
 CCSD(T)= -0.33900067647D+02

 The electronic state is 1-A'.
 Alpha  occ. eigenvalues --   -1.36859  -1.34086  -0.72519  -0.69687  -0.56773
 Alpha  occ. eigenvalues --   -0.53878  -0.51468  -0.48691
 Alpha virt. eigenvalues --    0.18397   0.22401   0.29266   0.32481   0.79098
 Alpha virt. eigenvalues --    0.81817   0.82993   0.84859   0.85298   0.88145
 Alpha virt. eigenvalues --    1.16113   1.19292   1.20560   1.27281   2.55592

 Mulliken charges:
               1
     1  O   -0.753068
     2  H    0.389000
     3  H    0.363008
     4  O   -0.751242
     5  H    0.380432
     6  H    0.371869
 Sum of Mulliken charges =  -0.00000

 Dipole moment (field-independent basis, Debye):
    X=             -3.2000    Y=             -4.0912    Z=             -0.0000  Tot=              5.1940
 Quadrupole moment (field-independent basis, Debye-Ang):
   XX=            -10.0297   YY=             -7.2257   ZZ=            -14.9941
   XY=             -4.3648   XZ=             -0.0000   YZ=              0.0000

 6595\MP4DQ=-33.8944093\MP4SDQ=-33.8964556\CCSD=-33.897493\CCSD(T)=-33.
 Normal termination of Gaussian 16 at Sun Dec 10 06:23:05 2023.
