 Gaussian 16, Revision A.03,
 Gaussian 16:  ES64L-G16RevA.03 25-Dec-2016

 ------------------
 #p CCSD(T)/CEP-31G
 ------------------

 ------------
 H2O_H2O_1488
 ------------
 Symbolic Z-matrix:
 Charge =  0 Multiplicity = 1

                         Standard orientation:
 ---------------------------------------------------------------------
 Center     Atomic      Atomic             Coordinates (Angstroms)
 Number     Number       Type             X           Y           Z
 ---------------------------------------------------------------------
      1          8           0        0.052355    1.700773   -0.000000
      2          1           0        0.050213    0.718174   -0.000000
      3          1           0       -0.876441    2.021465   -0.000000
      4          8           0        0.052355   -1.520948    0.000000
      5          1           0        0.789700   -2.170431    0.000000
      6          1           0       -0.801152   -2.007807    0.000000
 ---------------------------------------------------------------------

 SCF Done:  E(RHF) =  -33.6609746081     A.U. after   11 cycles
 E2 =    -0.2288807849D+00 EUMP2 =    -0.33889855392934D+02
 CCSD(T)
 CCSD(T)= -0.33906621063D+02

 The electronic state is 1-A'.
 Alpha  occ. eigenvalues --   -1.37987  -1.32311  -0.73628  -0.68187  -0.58465
 Alpha  occ. eigenvalues --   -0.52685  -0.52076  -0.46968
 Alpha virt. eigenvalues --    0.17880   0.25181   0.28551   0.39219   0.77095
 Alpha virt. eigenvalues --    0.80474   0.84376   0.85882   0.91562   0.97306
 Alpha virt. eigenvalues --    1.15133   1.19750   1.21060   1.34065   2.49640

 Mulliken charges:
               1
     1  O   -0.779166
     2  H    0.423414
     3  H    0.354337
     4  O   -0.780910
     5  H    0.397111
     6  H    0.385214
 Sum of Mulliken charges =   0.00000

 Dipole moment (field-independent basis, Debye):
    X=             -2.3306    Y=             -4.5442    Z=              0.0000  Tot=              5.1070
 Quadrupole moment (field-independent basis, Debye-Ang):
   XX=             -9.4947   YY=             -8.0822   ZZ=            -15.0084
   XY=             -4.5203   XZ=              0.0000   YZ=             -0.0000

 128\MP4DQ=-33.9008457\MP4SDQ=-33.9029374\CCSD=-33.9039382\CCSD(T)=-33.
 Normal termination of Gaussian 16 at Sun Dec 10 06:46:50 2023.
