 Gaussian 16, Revision A.03,
 Gaussian 16:  ES64L-G16RevA.03 25-Dec-2016

 ------------------
 #p CCSD(T)/CEP-31G
 ------------------

 ------------
 H2O_H2O_3861
 ------------
 Symbolic Z-matrix:
 Charge =  0 Multiplicity = 1

                         Standard orientation:
 ---------------------------------------------------------------------
 Center     Atomic      Atomic             Coordinates (Angstroms)
 Number     Number       Type             X           Y           Z
 ---------------------------------------------------------------------
      1          8           0        0.059628    2.646817    0.000000
      2          1           0        0.058522    1.664216    0.000000
      3          1           0       -0.869506    2.966529   -0.000000
      4          8           0        0.059628   -2.469355    0.000000
      5          1           0        0.706671   -3.208842    0.000000
      6          1           0       -0.849734   -2.841603   -0.000000
 ---------------------------------------------------------------------

 SCF Done:  E(RHF) =  -33.6536274649     A.U. after   11 cycles
 E2 =    -0.2283016128D+00 EUMP2 =    -0.33881929077666D+02
 CCSD(T)
 CCSD(T)= -0.33898876918D+02

 The electronic state is 1-A'.
 Alpha  occ. eigenvalues --   -1.36413  -1.34490  -0.72057  -0.70112  -0.56256
 Alpha  occ. eigenvalues --   -0.54277  -0.51011  -0.49088
 Alpha virt. eigenvalues --    0.19366   0.21495   0.29698   0.31751   0.79549
 Alpha virt. eigenvalues --    0.81420   0.82333   0.84442   0.85550   0.87587
 Alpha virt. eigenvalues --    1.16567   1.18522   1.20992   1.23226   2.56533

 Mulliken charges:
               1
     1  O   -0.748306
     2  H    0.381564
     3  H    0.366644
     4  O   -0.747688
     5  H    0.375990
     6  H    0.371796
 Sum of Mulliken charges =   0.00000

 Dipole moment (field-independent basis, Debye):
    X=             -2.7331    Y=             -4.1854    Z=             -0.0000  Tot=              4.9988
 Quadrupole moment (field-independent basis, Debye-Ang):
   XX=             -9.6723   YY=             -5.9105   ZZ=            -14.9923
   XY=             -5.7318   XZ=              0.0000   YZ=             -0.0000

 951\MP4DQ=-33.8932435\MP4SDQ=-33.8952686\CCSD=-33.8963185\CCSD(T)=-33.
 Normal termination of Gaussian 16 at Sun Dec 10 06:42:29 2023.
