 Gaussian 16, Revision A.03,
 Gaussian 16:  ES64L-G16RevA.03 25-Dec-2016

 ------------------
 #p CCSD(T)/CEP-31G
 ------------------

 ------------
 H2O_H2O_1763
 ------------
 Symbolic Z-matrix:
 Charge =  0 Multiplicity = 1

                         Standard orientation:
 ---------------------------------------------------------------------
 Center     Atomic      Atomic             Coordinates (Angstroms)
 Number     Number       Type             X           Y           Z
 ---------------------------------------------------------------------
      1          8           0        0.052343    1.810471    0.000000
      2          1           0        0.050337    0.827872    0.000000
      3          1           0       -0.876498    2.131034    0.000000
      4          8           0        0.052343   -1.630632   -0.000000
      5          1           0        0.789777   -2.280012   -0.000000
      6          1           0       -0.801097   -2.117609   -0.000000
 ---------------------------------------------------------------------

 SCF Done:  E(RHF) =  -33.6594815419     A.U. after   11 cycles
 E2 =    -0.2287212730D+00 EUMP2 =    -0.33888202814831D+02
 CCSD(T)
 CCSD(T)= -0.33905043438D+02

 The electronic state is 1-A'.
 Alpha  occ. eigenvalues --   -1.37629  -1.32776  -0.73278  -0.68480  -0.57961
 Alpha  occ. eigenvalues --   -0.52590  -0.52304  -0.47430
 Alpha virt. eigenvalues --    0.18019   0.24502   0.28804   0.36794   0.77808
 Alpha virt. eigenvalues --    0.81946   0.83519   0.85932   0.90037   0.93282
 Alpha virt. eigenvalues --    1.15457   1.20015   1.20632   1.33572   2.50451

 Mulliken charges:
               1
     1  O   -0.773593
     2  H    0.413998
     3  H    0.357558
     4  O   -0.769935
     5  H    0.390780
     6  H    0.381192
 Sum of Mulliken charges =   0.00000

 Dipole moment (field-independent basis, Debye):
    X=             -2.3473    Y=             -4.4768    Z=             -0.0000  Tot=              5.0549
 Quadrupole moment (field-independent basis, Debye-Ang):
   XX=             -9.5022   YY=             -7.7427   ZZ=            -15.0043
   XY=             -4.7312   XZ=              0.0000   YZ=             -0.0000

 696\MP4DQ=-33.8993037\MP4SDQ=-33.901386\CCSD=-33.9024023\CCSD(T)=-33.9
 Normal termination of Gaussian 16 at Sun Dec 10 06:52:10 2023.
