 Gaussian 16, Revision A.03,
 Gaussian 16:  ES64L-G16RevA.03 25-Dec-2016

 ------------------
 #p CCSD(T)/CEP-31G
 ------------------

 ------------
 H2O_H2O_2446
 ------------
 Symbolic Z-matrix:
 Charge =  0 Multiplicity = 1

                         Standard orientation:
 ---------------------------------------------------------------------
 Center     Atomic      Atomic             Coordinates (Angstroms)
 Number     Number       Type             X           Y           Z
 ---------------------------------------------------------------------
      1          8           0       -0.023240    2.074573    0.000000
      2          1           0       -0.020265    1.091976    0.000000
      3          1           0        0.905283    2.396052    0.000000
      4          8           0       -0.023240   -1.904203    0.000000
      5          1           0       -0.986378   -2.098816    0.000000
      6          1           0        0.473207   -2.752169    0.000000
 ---------------------------------------------------------------------

 SCF Done:  E(RHF) =  -33.6569532558     A.U. after   11 cycles
 E2 =    -0.2284060696D+00 EUMP2 =    -0.33885359325411D+02
 CCSD(T)
 CCSD(T)= -0.33902251990D+02

 The electronic state is 1-A'.
 Alpha  occ. eigenvalues --   -1.37010  -1.33722  -0.72667  -0.69369  -0.57066
 Alpha  occ. eigenvalues --   -0.53586  -0.51652  -0.48372
 Alpha virt. eigenvalues --    0.18234   0.23094   0.29278   0.33309   0.78854
 Alpha virt. eigenvalues --    0.82162   0.83227   0.85077   0.86886   0.88116
 Alpha virt. eigenvalues --    1.16033   1.19824   1.20543   1.30273   2.54531

 Mulliken charges:
               1
     1  O   -0.762495
     2  H    0.393982
     3  H    0.366778
     4  O   -0.758110
     5  H    0.379794
     6  H    0.380052
 Sum of Mulliken charges =   0.00000

 Dipole moment (field-independent basis, Debye):
    X=              1.0514    Y=             -4.1252    Z=              0.0000  Tot=              4.2571
 Quadrupole moment (field-independent basis, Debye-Ang):
   XX=             -9.5858   YY=             -7.4492   ZZ=            -14.9985
   XY=              6.8144   XZ=              0.0000   YZ=              0.0000

 8251\MP4DQ=-33.8965799\MP4SDQ=-33.8986376\CCSD=-33.8996673\CCSD(T)=-33
 Normal termination of Gaussian 16 at Sun Dec 10 07:06:29 2023.
