 Gaussian 16, Revision A.03,
 Gaussian 16:  ES64L-G16RevA.03 25-Dec-2016

 ------------------
 #p CCSD(T)/CEP-31G
 ------------------

 ------------
 H2O_H2O_1936
 ------------
 Symbolic Z-matrix:
 Charge =  0 Multiplicity = 1

                         Standard orientation:
 ---------------------------------------------------------------------
 Center     Atomic      Atomic             Coordinates (Angstroms)
 Number     Number       Type             X           Y           Z
 ---------------------------------------------------------------------
      1          8           0        0.059671    1.878951   -0.000000
      2          1           0        0.058091    0.896350   -0.000000
      3          1           0       -0.869309    2.199111   -0.000000
      4          8           0        0.059671   -1.701546    0.000000
      5          1           0        0.706357   -2.441345    0.000000
      6          1           0       -0.849870   -2.073355    0.000000
 ---------------------------------------------------------------------

 SCF Done:  E(RHF) =  -33.6581047992     A.U. after   11 cycles
 E2 =    -0.2286486835D+00 EUMP2 =    -0.33886753482671D+02
 CCSD(T)
 CCSD(T)= -0.33903638104D+02

 The electronic state is 1-A'.
 Alpha  occ. eigenvalues --   -1.37461  -1.33114  -0.73123  -0.68755  -0.57665
 Alpha  occ. eigenvalues --   -0.52924  -0.52115  -0.47752
 Alpha virt. eigenvalues --    0.18008   0.24033   0.28895   0.35496   0.78155
 Alpha virt. eigenvalues --    0.82686   0.83037   0.85658   0.89423   0.91247
 Alpha virt. eigenvalues --    1.15583   1.20090   1.20370   1.33364   2.51475

 Mulliken charges:
               1
     1  O   -0.768048
     2  H    0.407532
     3  H    0.358299
     4  O   -0.763925
     5  H    0.388729
     6  H    0.377413
 Sum of Mulliken charges =   0.00000

 Dipole moment (field-independent basis, Debye):
    X=             -2.6875    Y=             -4.3846    Z=              0.0000  Tot=              5.1427
 Quadrupole moment (field-independent basis, Debye-Ang):
   XX=             -9.6697   YY=             -7.6269   ZZ=            -15.0010
   XY=             -4.5377   XZ=              0.0000   YZ=             -0.0000

 1725\MP4DQ=-33.8979126\MP4SDQ=-33.8999929\CCSD=-33.9010153\CCSD(T)=-33
 Normal termination of Gaussian 16 at Sun Dec 10 06:55:26 2023.
