 Gaussian 16, Revision A.03,
 Gaussian 16:  ES64L-G16RevA.03 25-Dec-2016

 ------------------
 #p CCSD(T)/CEP-31G
 ------------------

 ------------
 H2O_H2O_2497
 ------------
 Symbolic Z-matrix:
 Charge =  0 Multiplicity = 1

                         Standard orientation:
 ---------------------------------------------------------------------
 Center     Atomic      Atomic             Coordinates (Angstroms)
 Number     Number       Type             X           Y           Z
 ---------------------------------------------------------------------
      1          8           0       -0.019891    2.092736    0.000000
      2          1           0       -0.016804    1.110140    0.000000
      3          1           0        0.908597    2.414321    0.000000
      4          8           0       -0.019891   -1.925647    0.000000
      5          1           0       -0.993679   -2.056961    0.000000
      6          1           0        0.420135   -2.804215    0.000000
 ---------------------------------------------------------------------

 SCF Done:  E(RHF) =  -33.6567044689     A.U. after   11 cycles
 E2 =    -0.2283916253D+00 EUMP2 =    -0.33885096094174D+02
 CCSD(T)
 CCSD(T)= -0.33901993591D+02

 The electronic state is 1-A'.
 Alpha  occ. eigenvalues --   -1.36974  -1.33831  -0.72634  -0.69479  -0.57009
 Alpha  occ. eigenvalues --   -0.53694  -0.51612  -0.48478
 Alpha virt. eigenvalues --    0.18191   0.22995   0.29297   0.33112   0.78903
 Alpha virt. eigenvalues --    0.82050   0.83128   0.84901   0.86869   0.87969
 Alpha virt. eigenvalues --    1.16044   1.19734   1.20566   1.30030   2.54892

 Mulliken charges:
               1
     1  O   -0.761432
     2  H    0.392266
     3  H    0.367571
     4  O   -0.757544
     5  H    0.379106
     6  H    0.380032
 Sum of Mulliken charges =   0.00000

 Dipole moment (field-independent basis, Debye):
    X=              0.9001    Y=             -4.0380    Z=              0.0000  Tot=              4.1371
 Quadrupole moment (field-independent basis, Debye-Ang):
   XX=             -9.6683   YY=             -7.5732   ZZ=            -14.9980
   XY=              7.0916   XZ=              0.0000   YZ=              0.0000

 5696\MP4DQ=-33.8963245\MP4SDQ=-33.8983803\CCSD=-33.8994109\CCSD(T)=-33
 Normal termination of Gaussian 16 at Sun Dec 10 07:07:25 2023.
