 Gaussian 16, Revision A.03,
 Gaussian 16:  ES64L-G16RevA.03 25-Dec-2016

 ------------------
 #p CCSD(T)/CEP-31G
 ------------------

 -----------
 H2O_H2O_434
 -----------
 Symbolic Z-matrix:
 Charge =  0 Multiplicity = 1

                         Standard orientation:
 ---------------------------------------------------------------------
 Center     Atomic      Atomic             Coordinates (Angstroms)
 Number     Number       Type             X           Y           Z
 ---------------------------------------------------------------------
      1          8           0        0.066838    1.278236   -0.000000
      2          1           0        0.064973    0.295636   -0.000000
      3          1           0       -0.862048    1.598666    0.000000
      4          8           0        0.066838   -1.105252   -0.000000
      5          1           0        0.611190   -1.923290   -0.000000
      6          1           0       -0.883524   -1.354886    0.000000
 ---------------------------------------------------------------------

 SCF Done:  E(RHF) =  -33.6453456727     A.U. after   11 cycles
 E2 =    -0.2287886164D+00 EUMP2 =    -0.33874134289149D+02
 CCSD(T)
 CCSD(T)= -0.33889734404D+02

 The electronic state is 1-A'.
 Alpha  occ. eigenvalues --   -1.41843  -1.29359  -0.77637  -0.71779  -0.57820
 Alpha  occ. eigenvalues --   -0.56150  -0.47961  -0.43703
 Alpha virt. eigenvalues --    0.16694   0.25945   0.28545   0.55768   0.73714
 Alpha virt. eigenvalues --    0.74758   0.85933   0.89484   0.96289   1.05824
 Alpha virt. eigenvalues --    1.14603   1.19691   1.24168   1.35395   2.76329

 Mulliken charges:
               1
     1  O   -0.753049
     2  H    0.400157
     3  H    0.322151
     4  O   -0.835133
     5  H    0.461463
     6  H    0.404410
 Sum of Mulliken charges =   0.00000

 Dipole moment (field-independent basis, Debye):
    X=             -2.7840    Y=             -5.0315    Z=              0.0000  Tot=              5.7504
 Quadrupole moment (field-independent basis, Debye-Ang):
   XX=             -9.8588   YY=             -9.8166   ZZ=            -14.9918
   XY=             -3.4306   XZ=             -0.0000   YZ=              0.0000

 8\MP4DQ=-33.8836626\MP4SDQ=-33.8859245\CCSD=-33.8866994\CCSD(T)=-33.88
 Normal termination of Gaussian 16 at Sun Dec 10 06:26:36 2023.
