 Gaussian 16, Revision A.03,
 Gaussian 16:  ES64L-G16RevA.03 25-Dec-2016

 ------------------
 #p CCSD(T)/CEP-31G
 ------------------

 ------------
 H2O_H2O_2103
 ------------
 Symbolic Z-matrix:
 Charge =  0 Multiplicity = 1

                         Standard orientation:
 ---------------------------------------------------------------------
 Center     Atomic      Atomic             Coordinates (Angstroms)
 Number     Number       Type             X           Y           Z
 ---------------------------------------------------------------------
      1          8           0        0.085606   -1.933639    0.000000
      2          1           0        0.085270   -0.951038    0.000000
      3          1           0       -0.843779   -2.252623    0.000000
      4          8           0        0.085606    1.784053    0.000000
      5          1           0        0.276973    2.747839    0.000000
      6          1           0       -0.888152    1.652512    0.000000
 ---------------------------------------------------------------------

 SCF Done:  E(RHF) =  -33.6543374259     A.U. after   11 cycles
 E2 =    -0.2286839730D+00 EUMP2 =    -0.33883021398957D+02
 CCSD(T)
 CCSD(T)= -0.33900020518D+02

 The electronic state is 1-A'.
 Alpha  occ. eigenvalues --   -1.37373  -1.34125  -0.73103  -0.69683  -0.57296
 Alpha  occ. eigenvalues --   -0.53859  -0.51962  -0.48705
 Alpha virt. eigenvalues --    0.17150   0.23383   0.28813   0.33717   0.78389
 Alpha virt. eigenvalues --    0.82084   0.82724   0.84774   0.88232   0.91550
 Alpha virt. eigenvalues --    1.15395   1.18977   1.20585   1.35098   2.53996

 Mulliken charges:
               1
     1  O   -0.753405
     2  H    0.392455
     3  H    0.358933
     4  O   -0.752642
     5  H    0.386481
     6  H    0.368178
 Sum of Mulliken charges =   0.00000

 Dipole moment (field-independent basis, Debye):
    X=             -3.8831    Y=              3.6741    Z=              0.0000  Tot=              5.3458
 Quadrupole moment (field-independent basis, Debye-Ang):
   XX=            -10.8274   YY=             -8.6827   ZZ=            -14.9917
   XY=              2.9949   XZ=              0.0000   YZ=              0.0000

 5505\MP4DQ=-33.8942861\MP4SDQ=-33.896376\CCSD=-33.897404\CCSD(T)=-33.9
 Normal termination of Gaussian 16 at Sun Dec 10 06:58:38 2023.
