 Gaussian 16, Revision A.03,
 Gaussian 16:  ES64L-G16RevA.03 25-Dec-2016

 ------------------
 #p CCSD(T)/CEP-31G
 ------------------

 -----------
 H2O_H2O_954
 -----------
 Symbolic Z-matrix:
 Charge =  0 Multiplicity = 1

                         Standard orientation:
 ---------------------------------------------------------------------
 Center     Atomic      Atomic             Coordinates (Angstroms)
 Number     Number       Type             X           Y           Z
 ---------------------------------------------------------------------
      1          8           0        0.082822   -1.477589    0.000000
      2          1           0        0.082207   -0.494988    0.000000
      3          1           0       -0.846471   -1.796837    0.000000
      4          8           0        0.082822    1.323111    0.000000
      5          1           0        0.336545    2.272391    0.000000
      6          1           0       -0.897434    1.255259    0.000000
 ---------------------------------------------------------------------

 SCF Done:  E(RHF) =  -33.6546405654     A.U. after   11 cycles
 E2 =    -0.2290449564D+00 EUMP2 =    -0.33883685521840D+02
 CCSD(T)
 CCSD(T)= -0.33900462199D+02

 The electronic state is 1-A'.
 Alpha  occ. eigenvalues --   -1.39334  -1.32316  -0.75541  -0.68507  -0.59130
 Alpha  occ. eigenvalues --   -0.53851  -0.51762  -0.46829
 Alpha virt. eigenvalues --    0.16873   0.25694   0.27563   0.44479   0.75109
 Alpha virt. eigenvalues --    0.78583   0.85063   0.85986   0.92830   1.11225
 Alpha virt. eigenvalues --    1.15794   1.22601   1.24223   1.37183   2.53002

 Mulliken charges:
               1
     1  O   -0.753633
     2  H    0.400422
     3  H    0.342062
     4  O   -0.793888
     5  H    0.429500
     6  H    0.375536
 Sum of Mulliken charges =  -0.00000

 Dipole moment (field-independent basis, Debye):
    X=             -3.6372    Y=              4.1579    Z=              0.0000  Tot=              5.5243
 Quadrupole moment (field-independent basis, Debye-Ang):
   XX=            -10.6910   YY=             -9.1163   ZZ=            -14.9986
   XY=              2.9930   XZ=              0.0000   YZ=              0.0000

 244\MP4DQ=-33.8944977\MP4SDQ=-33.8967133\CCSD=-33.8976687\CCSD(T)=-33.
 Normal termination of Gaussian 16 at Sun Dec 10 06:36:27 2023.
