 Gaussian 16, Revision A.03,
 Gaussian 16:  ES64L-G16RevA.03 25-Dec-2016

 ------------------
 #p CCSD(T)/CEP-31G
 ------------------

 -----------
 H2O_H2O_831
 -----------
 Symbolic Z-matrix:
 Charge =  0 Multiplicity = 1

                         Standard orientation:
 ---------------------------------------------------------------------
 Center     Atomic      Atomic             Coordinates (Angstroms)
 Number     Number       Type             X           Y           Z
 ---------------------------------------------------------------------
      1          8           0        0.076792   -1.432438    0.000000
      2          1           0        0.075775   -0.449837    0.000000
      3          1           0       -0.852370   -1.752067    0.000000
      4          8           0        0.076792    1.269294    0.000000
      5          1           0        0.451877    2.177488    0.000000
      6          1           0       -0.903959    1.329571    0.000000
 ---------------------------------------------------------------------

 SCF Done:  E(RHF) =  -33.6557491998     A.U. after   11 cycles
 E2 =    -0.2289991174D+00 EUMP2 =    -0.33884748317184D+02
 CCSD(T)
 CCSD(T)= -0.33901284792D+02

 The electronic state is 1-A'.
 Alpha  occ. eigenvalues --   -1.39705  -1.31533  -0.75788  -0.68650  -0.59215
 Alpha  occ. eigenvalues --   -0.54248  -0.50870  -0.46043
 Alpha virt. eigenvalues --    0.16964   0.26144   0.27510   0.47046   0.74758
 Alpha virt. eigenvalues --    0.77466   0.85202   0.86887   0.94455   1.09622
 Alpha virt. eigenvalues --    1.16237   1.22124   1.23040   1.36551   2.56686

 Mulliken charges:
               1
     1  O   -0.758422
     2  H    0.410145
     3  H    0.338178
     4  O   -0.811219
     5  H    0.438465
     6  H    0.382853
 Sum of Mulliken charges =   0.00000

 Dipole moment (field-independent basis, Debye):
    X=             -3.3308    Y=              4.4465    Z=              0.0000  Tot=              5.5557
 Quadrupole moment (field-independent basis, Debye-Ang):
   XX=            -10.3479   YY=             -9.1258   ZZ=            -15.0037
   XY=              3.2841   XZ=              0.0000   YZ=              0.0000

 516\MP4DQ=-33.8953148\MP4SDQ=-33.8975245\CCSD=-33.8984506\CCSD(T)=-33.
 Normal termination of Gaussian 16 at Sun Dec 10 06:34:09 2023.
