 Gaussian 16, Revision A.03,
 Gaussian 16:  ES64L-G16RevA.03 25-Dec-2016

 ------------------
 #p CCSD(T)/CEP-31G
 ------------------

 ------------
 H2O_H2O_4314
 ------------
 Symbolic Z-matrix:
 Charge =  0 Multiplicity = 1

                         Standard orientation:
 ---------------------------------------------------------------------
 Center     Atomic      Atomic             Coordinates (Angstroms)
 Number     Number       Type             X           Y           Z
 ---------------------------------------------------------------------
      1          8           0        0.048556    2.827918   -0.000000
      2          1           0        0.047180    1.845317   -0.000000
      3          1           0       -0.880490    3.147885   -0.000000
      4          8           0        0.048556   -2.647501    0.000000
      5          1           0        0.827268   -3.246762    0.000000
      6          1           0       -0.770859   -3.189778    0.000000
 ---------------------------------------------------------------------

 SCF Done:  E(RHF) =  -33.6534359672     A.U. after   11 cycles
 E2 =    -0.2282972620D+00 EUMP2 =    -0.33881733229187D+02
 CCSD(T)
 CCSD(T)= -0.33898686737D+02

 The electronic state is 1-A'.
 Alpha  occ. eigenvalues --   -1.36295  -1.34602  -0.71935  -0.70230  -0.56125
 Alpha  occ. eigenvalues --   -0.54388  -0.50891  -0.49199
 Alpha virt. eigenvalues --    0.19542   0.21321   0.29815   0.31600   0.79663
 Alpha virt. eigenvalues --    0.81315   0.82492   0.84312   0.85699   0.87430
 Alpha virt. eigenvalues --    1.16678   1.18376   1.21120   1.22907   2.56641

 Mulliken charges:
               1
     1  O   -0.747553
     2  H    0.379674
     3  H    0.367856
     4  O   -0.746949
     5  H    0.374763
     6  H    0.372210
 Sum of Mulliken charges =  -0.00000

 Dipole moment (field-independent basis, Debye):
    X=             -2.2287    Y=             -4.2371    Z=              0.0000  Tot=              4.7875
 Quadrupole moment (field-independent basis, Debye-Ang):
   XX=             -9.4623   YY=             -5.2758   ZZ=            -14.9919
   XY=             -6.9862   XZ=              0.0000   YZ=             -0.0000

 62\MP4DQ=-33.893054\MP4SDQ=-33.8950778\CCSD=-33.8961295\CCSD(T)=-33.89
 Normal termination of Gaussian 16 at Sun Dec 10 06:50:39 2023.
