 Gaussian 16, Revision A.03,
 Gaussian 16:  ES64L-G16RevA.03 25-Dec-2016

 ------------------
 #p CCSD(T)/CEP-31G
 ------------------

 ------------
 H2O_H2O_2670
 ------------
 Symbolic Z-matrix:
 Charge =  0 Multiplicity = 1

                         Standard orientation:
 ---------------------------------------------------------------------
 Center     Atomic      Atomic             Coordinates (Angstroms)
 Number     Number       Type             X           Y           Z
 ---------------------------------------------------------------------
      1          8           0        0.026676    2.165864   -0.000000
      2          1           0        0.023970    1.183266   -0.000000
      3          1           0       -0.901936    2.487089   -0.000000
      4          8           0        0.026676   -1.992650    0.000000
      5          1           0        0.975093   -2.249579    0.000000
      6          1           0       -0.523946   -2.806482    0.000000
 ---------------------------------------------------------------------

 SCF Done:  E(RHF) =  -33.6563219014     A.U. after   11 cycles
 E2 =    -0.2283595335D+00 EUMP2 =    -0.33884681434841D+02
 CCSD(T)
 CCSD(T)= -0.33901575781D+02

 The electronic state is 1-A'.
 Alpha  occ. eigenvalues --   -1.36875  -1.33854  -0.72526  -0.69492  -0.56882
 Alpha  occ. eigenvalues --   -0.53709  -0.51510  -0.48494
 Alpha virt. eigenvalues --    0.18473   0.22732   0.29367   0.32852   0.79037
 Alpha virt. eigenvalues --    0.82001   0.83226   0.84588   0.85977   0.88010
 Alpha virt. eigenvalues --    1.16174   1.19625   1.20617   1.28162   2.55229

 Mulliken charges:
               1
     1  O   -0.759469
     2  H    0.391316
     3  H    0.366805
     4  O   -0.755801
     5  H    0.378932
     6  H    0.378217
 Sum of Mulliken charges =  -0.00000

 Dipole moment (field-independent basis, Debye):
    X=             -1.2104    Y=             -4.1682    Z=              0.0000  Tot=              4.3404
 Quadrupole moment (field-independent basis, Debye-Ang):
   XX=             -9.5195   YY=             -7.1325   ZZ=            -14.9974
   XY=             -6.8877   XZ=              0.0000   YZ=             -0.0000

 41\MP4DQ=-33.8959199\MP4SDQ=-33.8979677\CCSD=-33.8990009\CCSD(T)=-33.9
 Normal termination of Gaussian 16 at Sun Dec 10 06:21:04 2023.
