 Gaussian 16, Revision A.03,
 Gaussian 16:  ES64L-G16RevA.03 25-Dec-2016

 ------------------
 #p CCSD(T)/CEP-31G
 ------------------

 ------------
 H2O_H2O_1914
 ------------
 Symbolic Z-matrix:
 Charge =  0 Multiplicity = 1

                         Standard orientation:
 ---------------------------------------------------------------------
 Center     Atomic      Atomic             Coordinates (Angstroms)
 Number     Number       Type             X           Y           Z
 ---------------------------------------------------------------------
      1          8           0        0.048624    1.870577   -0.000000
      2          1           0        0.046509    0.887978   -0.000000
      3          1           0       -0.880181    2.191244   -0.000000
      4          8           0        0.048624   -1.690233    0.000000
      5          1           0        0.826886   -2.290079    0.000000
      6          1           0       -0.771199   -2.231895    0.000000
 ---------------------------------------------------------------------

 SCF Done:  E(RHF) =  -33.6589172685     A.U. after   11 cycles
 E2 =    -0.2286350782D+00 EUMP2 =    -0.33887552346674D+02
 CCSD(T)
 CCSD(T)= -0.33904409319D+02

 The electronic state is 1-A'.
 Alpha  occ. eigenvalues --   -1.37464  -1.32963  -0.73112  -0.68631  -0.57730
 Alpha  occ. eigenvalues --   -0.52797  -0.52132  -0.47618
 Alpha virt. eigenvalues --    0.18117   0.24179   0.28936   0.35791   0.78121
 Alpha virt. eigenvalues --    0.82576   0.83171   0.86011   0.89250   0.91116
 Alpha virt. eigenvalues --    1.15636   1.20096   1.20519   1.32905   2.51186

 Mulliken charges:
               1
     1  O   -0.771217
     2  H    0.409492
     3  H    0.359497
     4  O   -0.765927
     5  H    0.387612
     6  H    0.380543
 Sum of Mulliken charges =  -0.00000

 Dipole moment (field-independent basis, Debye):
    X=             -2.1872    Y=             -4.4577    Z=              0.0000  Tot=              4.9654
 Quadrupole moment (field-independent basis, Debye-Ang):
   XX=             -9.4500   YY=             -7.5534   ZZ=            -15.0029
   XY=             -5.0019   XZ=              0.0000   YZ=             -0.0000

 475\MP4DQ=-33.8986889\MP4SDQ=-33.9007651\CCSD=-33.9017858\CCSD(T)=-33.
 Normal termination of Gaussian 16 at Sun Dec 10 06:55:01 2023.
