 Gaussian 16, Revision A.03,
 Gaussian 16:  ES64L-G16RevA.03 25-Dec-2016

 ------------------
 #p CCSD(T)/CEP-31G
 ------------------

 -----------
 H2O_H2O_428
 -----------
 Symbolic Z-matrix:
 Charge =  0 Multiplicity = 1

                         Standard orientation:
 ---------------------------------------------------------------------
 Center     Atomic      Atomic             Coordinates (Angstroms)
 Number     Number       Type             X           Y           Z
 ---------------------------------------------------------------------
      1          8           0        0.085620   -1.265504    0.000000
      2          1           0        0.085096   -0.282903    0.000000
      3          1           0       -0.843703   -1.584665    0.000000
      4          8           0        0.085620    1.115950    0.000000
      5          1           0        0.276803    2.079773    0.000000
      6          1           0       -0.888112    0.984222    0.000000
 ---------------------------------------------------------------------

 SCF Done:  E(RHF) =  -33.6331767579     A.U. after   11 cycles
 E2 =    -0.2286930064D+00 EUMP2 =    -0.33861869764291D+02
 CCSD(T)
 CCSD(T)= -0.33877976881D+02

 The electronic state is 1-A'.
 Alpha  occ. eigenvalues --   -1.42303  -1.30745  -0.79634  -0.69696  -0.58538
 Alpha  occ. eigenvalues --   -0.56135  -0.49520  -0.45034
 Alpha virt. eigenvalues --    0.16370   0.24723   0.28479   0.54260   0.73474
 Alpha virt. eigenvalues --    0.76531   0.86316   0.88698   0.95817   1.09818
 Alpha virt. eigenvalues --    1.13924   1.23797   1.28239   1.41551   2.74883

 Mulliken charges:
               1
     1  O   -0.710487
     2  H    0.334872
     3  H    0.323444
     4  O   -0.801198
     5  H    0.471057
     6  H    0.382312
 Sum of Mulliken charges =  -0.00000

 Dipole moment (field-independent basis, Debye):
    X=             -3.6351    Y=              4.4784    Z=              0.0000  Tot=              5.7680
 Quadrupole moment (field-independent basis, Debye-Ang):
   XX=            -10.8657   YY=             -9.8113   ZZ=            -14.9689
   XY=              2.6873   XZ=              0.0000   YZ=              0.0000

 6\MP4DQ=-33.8717785\MP4SDQ=-33.8741546\CCSD=-33.8749642\CCSD(T)=-33.87
 Normal termination of Gaussian 16 at Sun Dec 10 06:26:29 2023.
