 Gaussian 16, Revision A.03,
 Gaussian 16:  ES64L-G16RevA.03 25-Dec-2016

 ------------------
 #p CCSD(T)/CEP-31G
 ------------------

 ------------
 H2O_H2O_1913
 ------------
 Symbolic Z-matrix:
 Charge =  0 Multiplicity = 1

                         Standard orientation:
 ---------------------------------------------------------------------
 Center     Atomic      Atomic             Coordinates (Angstroms)
 Number     Number       Type             X           Y           Z
 ---------------------------------------------------------------------
      1          8           0        0.052336    1.870306    0.000000
      2          1           0        0.050398    0.887707    0.000000
      3          1           0       -0.876526    2.190805   -0.000000
      4          8           0        0.052336   -1.690459    0.000000
      5          1           0        0.789816   -2.339790    0.000000
      6          1           0       -0.801070   -2.177496   -0.000000
 ---------------------------------------------------------------------

 SCF Done:  E(RHF) =  -33.6587252944     A.U. after   11 cycles
 E2 =    -0.2286437384D+00 EUMP2 =    -0.33887369032810D+02
 CCSD(T)
 CCSD(T)= -0.33904232250D+02

 The electronic state is 1-A'.
 Alpha  occ. eigenvalues --   -1.37471  -1.32989  -0.73122  -0.68651  -0.57723
 Alpha  occ. eigenvalues --   -0.52815  -0.52136  -0.47639
 Alpha virt. eigenvalues --    0.18089   0.24155   0.28919   0.35761   0.78118
 Alpha virt. eigenvalues --    0.82599   0.83155   0.85894   0.89406   0.91141
 Alpha virt. eigenvalues --    1.15615   1.20128   1.20450   1.33014   2.51206

 Mulliken charges:
               1
     1  O   -0.770465
     2  H    0.409290
     3  H    0.358962
     4  O   -0.765519
     5  H    0.388161
     6  H    0.379570
 Sum of Mulliken charges =  -0.00000

 Dipole moment (field-independent basis, Debye):
    X=             -2.3545    Y=             -4.4466    Z=             -0.0000  Tot=              5.0315
 Quadrupole moment (field-independent basis, Debye-Ang):
   XX=             -9.5052   YY=             -7.5709   ZZ=            -15.0025
   XY=             -4.8456   XZ=              0.0000   YZ=             -0.0000

 1\MP4DQ=-33.8985098\MP4SDQ=-33.9005872\CCSD=-33.9016082\CCSD(T)=-33.90
 Normal termination of Gaussian 16 at Sun Dec 10 06:55:00 2023.
