 Gaussian 16, Revision A.03,
 Gaussian 16:  ES64L-G16RevA.03 25-Dec-2016

 ------------------
 #p CCSD(T)/CEP-31G
 ------------------

 -----------
 H2O_H2O_528
 -----------
 Symbolic Z-matrix:
 Charge =  0 Multiplicity = 1

                         Standard orientation:
 ---------------------------------------------------------------------
 Center     Atomic      Atomic             Coordinates (Angstroms)
 Number     Number       Type             X           Y           Z
 ---------------------------------------------------------------------
      1          8           0        0.085618   -1.305393    0.000000
      2          1           0        0.085112   -0.322791    0.000000
      3          1           0       -0.843710   -1.624538    0.000000
      4          8           0        0.085618    1.155836    0.000000
      5          1           0        0.276818    2.119656    0.000000
      6          1           0       -0.888115    1.024126    0.000000
 ---------------------------------------------------------------------

 SCF Done:  E(RHF) =  -33.6402577024     A.U. after   11 cycles
 E2 =    -0.2288211161D+00 EUMP2 =    -0.33869078818508D+02
 CCSD(T)
 CCSD(T)= -0.33885386530D+02

 The electronic state is 1-A'.
 Alpha  occ. eigenvalues --   -1.41498  -1.31188  -0.78594  -0.69188  -0.58934
 Alpha  occ. eigenvalues --   -0.55559  -0.50157  -0.45535
 Alpha virt. eigenvalues --    0.16469   0.25072   0.28134   0.52118   0.73701
 Alpha virt. eigenvalues --    0.76933   0.85793   0.88138   0.95202   1.10097
 Alpha virt. eigenvalues --    1.14253   1.23615   1.29995   1.39800   2.68212

 Mulliken charges:
               1
     1  O   -0.719687
     2  H    0.351956
     3  H    0.328179
     4  O   -0.802167
     5  H    0.461868
     6  H    0.379851
 Sum of Mulliken charges =   0.00000

 Dipole moment (field-independent basis, Debye):
    X=             -3.6667    Y=              4.3672    Z=              0.0000  Tot=              5.7023
 Quadrupole moment (field-independent basis, Debye-Ang):
   XX=            -10.8702   YY=             -9.6630   ZZ=            -14.9796
   XY=              2.7166   XZ=              0.0000   YZ=              0.0000

 1\MP4DQ=-33.8792398\MP4SDQ=-33.8815799\CCSD=-33.8824273\CCSD(T)=-33.88
 Normal termination of Gaussian 16 at Sun Dec 10 06:28:27 2023.
