 Gaussian 16, Revision A.03,
 Gaussian 16:  ES64L-G16RevA.03 25-Dec-2016

 ------------------
 #p CCSD(T)/CEP-31G
 ------------------

 ------------
 H2O_H2O_1655
 ------------
 Symbolic Z-matrix:
 Charge =  0 Multiplicity = 1

                         Standard orientation:
 ---------------------------------------------------------------------
 Center     Atomic      Atomic             Coordinates (Angstroms)
 Number     Number       Type             X           Y           Z
 ---------------------------------------------------------------------
      1          8           0        0.079866   -1.759277    0.000000
      2          1           0        0.079204   -0.776676    0.000000
      3          1           0       -0.849413   -2.078569    0.000000
      4          8           0        0.079866    1.600244    0.000000
      5          1           0        0.395087    2.530911    0.000000
      6          1           0       -0.902729    1.596602    0.000000
 ---------------------------------------------------------------------

 SCF Done:  E(RHF) =  -33.6564358184     A.U. after   11 cycles
 E2 =    -0.2288516036D+00 EUMP2 =    -0.33885287421965D+02
 CCSD(T)
 CCSD(T)= -0.33902256233D+02

 The electronic state is 1-A'.
 Alpha  occ. eigenvalues --   -1.37839  -1.33387  -0.73610  -0.68992  -0.57950
 Alpha  occ. eigenvalues --   -0.53103  -0.52449  -0.47979
 Alpha virt. eigenvalues --    0.17301   0.24355   0.28464   0.36650   0.77473
 Alpha virt. eigenvalues --    0.81607   0.83277   0.85159   0.89565   0.99808
 Alpha virt. eigenvalues --    1.15103   1.18573   1.21068   1.37858   2.51102

 Mulliken charges:
               1
     1  O   -0.762444
     2  H    0.405234
     3  H    0.354308
     4  O   -0.765640
     5  H    0.396591
     6  H    0.371950
 Sum of Mulliken charges =   0.00000

 Dipole moment (field-independent basis, Debye):
    X=             -3.5903    Y=              3.9987    Z=              0.0000  Tot=              5.3740
 Quadrupole moment (field-independent basis, Debye-Ang):
   XX=            -10.5027   YY=             -8.4930   ZZ=            -14.9966
   XY=              3.3371   XZ=              0.0000   YZ=              0.0000

 7366\MP4DQ=-33.89646\MP4SDQ=-33.8985803\CCSD=-33.8995975\CCSD(T)=-33.9
 Normal termination of Gaussian 16 at Sun Dec 10 06:50:08 2023.
