 Gaussian 16, Revision A.03,
 Gaussian 16:  ES64L-G16RevA.03 25-Dec-2016

 ------------------
 #p CCSD(T)/CEP-31G
 ------------------

 ------------
 H2O_H2O_2769
 ------------
 Symbolic Z-matrix:
 Charge =  0 Multiplicity = 1

                         Standard orientation:
 ---------------------------------------------------------------------
 Center     Atomic      Atomic             Coordinates (Angstroms)
 Number     Number       Type             X           Y           Z
 ---------------------------------------------------------------------
      1          8           0        0.030203    2.207046   -0.000000
      2          1           0        0.027690    1.224448   -0.000000
      3          1           0       -0.898472    2.528089    0.000000
      4          8           0        0.030203   -2.031448   -0.000000
      5          1           0        0.959848   -2.349674   -0.000000
      6          1           0       -0.572315   -2.807642    0.000000
 ---------------------------------------------------------------------

 SCF Done:  E(RHF) =  -33.6560699006     A.U. after   11 cycles
 E2 =    -0.2283448419D+00 EUMP2 =    -0.33884414742480D+02
 CCSD(T)
 CCSD(T)= -0.33901310228D+02

 The electronic state is 1-A'.
 Alpha  occ. eigenvalues --   -1.36823  -1.33889  -0.72471  -0.69523  -0.56813
 Alpha  occ. eigenvalues --   -0.53737  -0.51455  -0.48524
 Alpha virt. eigenvalues --    0.18602   0.22596   0.29408   0.32713   0.79102
 Alpha virt. eigenvalues --    0.81961   0.83091   0.84518   0.85736   0.88016
 Alpha virt. eigenvalues --    1.16232   1.19540   1.20654   1.27288   2.55460

 Mulliken charges:
               1
     1  O   -0.758285
     2  H    0.390546
     3  H    0.366544
     4  O   -0.754896
     5  H    0.378742
     6  H    0.377349
 Sum of Mulliken charges =   0.00000

 Dipole moment (field-independent basis, Debye):
    X=             -1.3723    Y=             -4.2158    Z=              0.0000  Tot=              4.4336
 Quadrupole moment (field-independent basis, Debye-Ang):
   XX=             -9.4666   YY=             -6.9269   ZZ=            -14.9970
   XY=             -6.7893   XZ=             -0.0000   YZ=              0.0000

 9043\MP4DQ=-33.8956601\MP4SDQ=-33.8977041\CCSD=-33.8987389\CCSD(T)=-33
 Normal termination of Gaussian 16 at Sun Dec 10 06:22:50 2023.
