 Gaussian 16, Revision A.03,
 Gaussian 16:  ES64L-G16RevA.03 25-Dec-2016

 ------------------
 #p CCSD(T)/CEP-31G
 ------------------

 ------------
 H2O_H2O_3063
 ------------
 Symbolic Z-matrix:
 Charge =  0 Multiplicity = 1

                         Standard orientation:
 ---------------------------------------------------------------------
 Center     Atomic      Atomic             Coordinates (Angstroms)
 Number     Number       Type             X           Y           Z
 ---------------------------------------------------------------------
      1          8           0        0.052300    2.329035   -0.000000
      2          1           0        0.050759    1.346435   -0.000000
      3          1           0       -0.876692    2.649159   -0.000000
      4          8           0        0.052300   -2.149146    0.000000
      5          1           0        0.790042   -2.798179    0.000000
      6          1           0       -0.800909   -2.636528    0.000000
 ---------------------------------------------------------------------

 SCF Done:  E(RHF) =  -33.6550232410     A.U. after   11 cycles
 E2 =    -0.2283289880D+00 EUMP2 =    -0.33883352229034D+02
 CCSD(T)
 CCSD(T)= -0.33900265459D+02

 The electronic state is 1-A'.
 Alpha  occ. eigenvalues --   -1.36696  -1.34052  -0.72342  -0.69669  -0.56622
 Alpha  occ. eigenvalues --   -0.53868  -0.51313  -0.48668
 Alpha virt. eigenvalues --    0.18880   0.22211   0.29494   0.32337   0.79256
 Alpha virt. eigenvalues --    0.81817   0.82516   0.84790   0.85260   0.88016
 Alpha virt. eigenvalues --    1.16339   1.19214   1.20761   1.25325   2.56045

 Mulliken charges:
               1
     1  O   -0.753842
     2  H    0.387999
     3  H    0.365102
     4  O   -0.751721
     5  H    0.378568
     6  H    0.373894
 Sum of Mulliken charges =   0.00000

 Dipole moment (field-independent basis, Debye):
    X=             -2.3856    Y=             -4.2940    Z=              0.0000  Tot=              4.9122
 Quadrupole moment (field-independent basis, Debye-Ang):
   XX=             -9.5127   YY=             -6.4402   ZZ=            -14.9951
   XY=             -5.7188   XZ=              0.0000   YZ=             -0.0000

 8716\MP4DQ=-33.8946248\MP4SDQ=-33.8966604\CCSD=-33.8977006\CCSD(T)=-33
 Normal termination of Gaussian 16 at Sun Dec 10 06:28:11 2023.
