 Gaussian 16, Revision A.03,
 Gaussian 16:  ES64L-G16RevA.03 25-Dec-2016

 ------------------
 #p CCSD(T)/CEP-31G
 ------------------

 ------------
 H2O_H2O_2279
 ------------
 Symbolic Z-matrix:
 Charge =  0 Multiplicity = 1

                         Standard orientation:
 ---------------------------------------------------------------------
 Center     Atomic      Atomic             Coordinates (Angstroms)
 Number     Number       Type             X           Y           Z
 ---------------------------------------------------------------------
      1          8           0        0.082809   -2.006116    0.000000
      2          1           0        0.082362   -1.023514    0.000000
      3          1           0       -0.846539   -2.325204    0.000000
      4          8           0        0.082809    1.851609    0.000000
      5          1           0        0.336693    2.800845    0.000000
      6          1           0       -0.897460    1.783926    0.000000
 ---------------------------------------------------------------------

 SCF Done:  E(RHF) =  -33.6544679144     A.U. after   11 cycles
 E2 =    -0.2285898547D+00 EUMP2 =    -0.33883057769120D+02
 CCSD(T)
 CCSD(T)= -0.33900034980D+02

 The electronic state is 1-A'.
 Alpha  occ. eigenvalues --   -1.37216  -1.34119  -0.72917  -0.69692  -0.57135
 Alpha  occ. eigenvalues --   -0.53872  -0.51812  -0.48707
 Alpha virt. eigenvalues --    0.17430   0.23089   0.28955   0.33181   0.78644
 Alpha virt. eigenvalues --    0.81952   0.82985   0.84805   0.88085   0.89075
 Alpha virt. eigenvalues --    1.15564   1.19260   1.20454   1.32838   2.54517

 Mulliken charges:
               1
     1  O   -0.753289
     2  H    0.391488
     3  H    0.360086
     4  O   -0.751960
     5  H    0.384425
     6  H    0.369250
 Sum of Mulliken charges =  -0.00000

 Dipole moment (field-independent basis, Debye):
    X=             -3.7625    Y=              3.7693    Z=              0.0000  Tot=              5.3258
 Quadrupole moment (field-independent basis, Debye-Ang):
   XX=            -10.6570   YY=             -8.3667   ZZ=            -14.9924
   XY=              3.2591   XZ=              0.0000   YZ=              0.0000

 855\MP4DQ=-33.8943261\MP4SDQ=-33.8964016\CCSD=-33.8974327\CCSD(T)=-33.
 Normal termination of Gaussian 16 at Sun Dec 10 07:03:22 2023.
