 Gaussian 16, Revision A.03,
 Gaussian 16:  ES64L-G16RevA.03 25-Dec-2016

 ------------------
 #p CCSD(T)/CEP-31G
 ------------------

 -----------
 H2O_H2O_673
 -----------
 Symbolic Z-matrix:
 Charge =  0 Multiplicity = 1

                         Standard orientation:
 ---------------------------------------------------------------------
 Center     Atomic      Atomic             Coordinates (Angstroms)
 Number     Number       Type             X           Y           Z
 ---------------------------------------------------------------------
      1          8           0        0.016809   -1.362744    0.000000
      2          1           0        0.011754   -0.380156    0.000000
      3          1           0       -0.911032   -1.686188    0.000000
      4          8           0        0.016809    1.199429    0.000000
      5          1           0        0.996964    1.268737    0.000000
      6          1           0       -0.366626    2.104130    0.000000
 ---------------------------------------------------------------------

 SCF Done:  E(RHF) =  -33.6567470971     A.U. after   11 cycles
 E2 =    -0.2283691588D+00 EUMP2 =    -0.33885116255870D+02
 CCSD(T)
 CCSD(T)= -0.33901268258D+02

 The electronic state is 1-A'.
 Alpha  occ. eigenvalues --   -1.40269  -1.30419  -0.76530  -0.68816  -0.59507
 Alpha  occ. eigenvalues --   -0.54797  -0.49561  -0.45019
 Alpha virt. eigenvalues --    0.17431   0.26812   0.27831   0.50756   0.74338
 Alpha virt. eigenvalues --    0.76590   0.86773   0.88069   0.92820   1.06892
 Alpha virt. eigenvalues --    1.15452   1.22155   1.27084   1.37892   2.63442

 Mulliken charges:
               1
     1  O   -0.771192
     2  H    0.396481
     3  H    0.352412
     4  O   -0.832120
     5  H    0.407642
     6  H    0.446777
 Sum of Mulliken charges =   0.00000

 Dipole moment (field-independent basis, Debye):
    X=             -0.7529    Y=              4.5689    Z=              0.0000  Tot=              4.6306
 Quadrupole moment (field-independent basis, Debye-Ang):
   XX=             -9.7100   YY=             -9.3423   ZZ=            -15.0114
   XY=              4.6025   XZ=              0.0000   YZ=              0.0000

 24\MP4DQ=-33.8953216\MP4SDQ=-33.8975106\CCSD=-33.8983917\CCSD(T)=-33.9
 Normal termination of Gaussian 16 at Sun Dec 10 06:31:11 2023.
