 Gaussian 16, Revision A.03,
 Gaussian 16:  ES64L-G16RevA.03 25-Dec-2016

 ------------------
 #p CCSD(T)/CEP-31G
 ------------------

 -----------
 H2O_H2O_903
 -----------
 Symbolic Z-matrix:
 Charge =  0 Multiplicity = 1

                         Standard orientation:
 ---------------------------------------------------------------------
 Center     Atomic      Atomic             Coordinates (Angstroms)
 Number     Number       Type             X           Y           Z
 ---------------------------------------------------------------------
      1          8           0        0.085614   -1.454977    0.000000
      2          1           0        0.085163   -0.472375    0.000000
      3          1           0       -0.843732   -1.774070    0.000000
      4          8           0        0.085614    1.305411    0.000000
      5          1           0        0.276868    2.269220    0.000000
      6          1           0       -0.888127    1.173754    0.000000
 ---------------------------------------------------------------------

 SCF Done:  E(RHF) =  -33.6525554451     A.U. after   11 cycles
 E2 =    -0.2290794465D+00 EUMP2 =    -0.33881634891602D+02
 CCSD(T)
 CCSD(T)= -0.33898426664D+02

 The electronic state is 1-A'.
 Alpha  occ. eigenvalues --   -1.39551  -1.32428  -0.75947  -0.68531  -0.59175
 Alpha  occ. eigenvalues --   -0.54008  -0.51837  -0.46914
 Alpha virt. eigenvalues --    0.16745   0.25570   0.27561   0.45038   0.74876
 Alpha virt. eigenvalues --    0.78583   0.85017   0.86105   0.92718   1.11427
 Alpha virt. eigenvalues --    1.15255   1.22878   1.27594   1.36981   2.53517

 Mulliken charges:
               1
     1  O   -0.746345
     2  H    0.390022
     3  H    0.341133
     4  O   -0.789894
     5  H    0.431674
     6  H    0.373410
 Sum of Mulliken charges =   0.00000

 Dipole moment (field-independent basis, Debye):
    X=             -3.7587    Y=              4.0647    Z=              0.0000  Tot=              5.5362
 Quadrupole moment (field-independent basis, Debye-Ang):
   XX=            -10.8668   YY=             -9.2592   ZZ=            -14.9951
   XY=              2.8016   XZ=              0.0000   YZ=              0.0000

 33\MP4DQ=-33.8924295\MP4SDQ=-33.8946696\CCSD=-33.8956156\CCSD(T)=-33.8
 Normal termination of Gaussian 16 at Sun Dec 10 06:35:30 2023.
