 Gaussian 16, Revision A.03,
 Gaussian 16:  ES64L-G16RevA.03 25-Dec-2016

 ------------------
 #p CCSD(T)/CEP-31G
 ------------------

 ------------
 H2O_H2O_4660
 ------------
 Symbolic Z-matrix:
 Charge =  0 Multiplicity = 1

                         Standard orientation:
 ---------------------------------------------------------------------
 Center     Atomic      Atomic             Coordinates (Angstroms)
 Number     Number       Type             X           Y           Z
 ---------------------------------------------------------------------
      1          8           0        0.063215    2.964873    0.000000
      2          1           0        0.062338    1.982272    0.000000
      3          1           0       -0.865993    3.284368    0.000000
      4          8           0        0.063215   -2.789334   -0.000000
      5          1           0        0.660689   -3.569419   -0.000000
      6          1           0       -0.868473   -3.101527   -0.000000
 ---------------------------------------------------------------------

 SCF Done:  E(RHF) =  -33.6529437955     A.U. after   11 cycles
 E2 =    -0.2283165547D+00 EUMP2 =    -0.33881260350213D+02
 CCSD(T)
 CCSD(T)= -0.33898227869D+02

 The electronic state is 1-A'.
 Alpha  occ. eigenvalues --   -1.36237  -1.34765  -0.71878  -0.70390  -0.56039
 Alpha  occ. eigenvalues --   -0.54534  -0.50826  -0.49353
 Alpha virt. eigenvalues --    0.19586   0.21116   0.29844   0.31390   0.79729
 Alpha virt. eigenvalues --    0.81171   0.82621   0.84169   0.85774   0.87303
 Alpha virt. eigenvalues --    1.16715   1.18186   1.21159   1.22690   2.56697

 Mulliken charges:
               1
     1  O   -0.745645
     2  H    0.377889
     3  H    0.367749
     4  O   -0.745369
     5  H    0.374379
     6  H    0.370997
 Sum of Mulliken charges =  -0.00000

 Dipole moment (field-independent basis, Debye):
    X=             -2.9060    Y=             -4.1146    Z=             -0.0000  Tot=              5.0373
 Quadrupole moment (field-independent basis, Debye-Ang):
   XX=             -9.7751   YY=             -5.4101   ZZ=            -14.9909
   XY=             -5.8734   XZ=             -0.0000   YZ=              0.0000

 8463\MP4DQ=-33.8925919\MP4SDQ=-33.8946166\CCSD=-33.8956696\CCSD(T)=-33
 Normal termination of Gaussian 16 at Sun Dec 10 06:56:53 2023.
