 Gaussian 16, Revision A.03,
 Gaussian 16:  ES64L-G16RevA.03 25-Dec-2016

 ------------------
 #p CCSD(T)/CEP-31G
 ------------------

 ----------
 H2O_H2O_14
 ----------
 Symbolic Z-matrix:
 Charge =  0 Multiplicity = 1

                         Standard orientation:
 ---------------------------------------------------------------------
 Center     Atomic      Atomic             Coordinates (Angstroms)
 Number     Number       Type             X           Y           Z
 ---------------------------------------------------------------------
      1          8           0        0.048768    1.112636    0.000000
      2          1           0        0.045085    0.130041    0.000000
      3          1           0       -0.879524    1.434783    0.000000
      4          8           0        0.048768   -0.932447   -0.000000
      5          1           0        0.826072   -1.533534   -0.000000
      6          1           0       -0.771918   -1.472799   -0.000000
 ---------------------------------------------------------------------

 SCF Done:  E(RHF) =  -33.5815844940     A.U. after   11 cycles
 E2 =    -0.2271272682D+00 EUMP2 =    -0.33808711762195D+02
 CCSD(T)
 CCSD(T)= -0.33823066273D+02

 The electronic state is 1-A'.
 Alpha  occ. eigenvalues --   -1.47161  -1.26119  -0.81560  -0.79725  -0.59841
 Alpha  occ. eigenvalues --   -0.53540  -0.42440  -0.39868
 Alpha virt. eigenvalues --    0.15989   0.24605   0.30812   0.62607   0.73140
 Alpha virt. eigenvalues --    0.73665   0.84375   0.91772   0.92486   1.08698
 Alpha virt. eigenvalues --    1.13046   1.15595   1.31314   1.36889   3.00713

 Mulliken charges:
               1
     1  O   -0.739515
     2  H    0.262710
     3  H    0.296772
     4  O   -0.736556
     5  H    0.466970
     6  H    0.449618
 Sum of Mulliken charges =   0.00000

 Dipole moment (field-independent basis, Debye):
    X=             -1.9444    Y=             -5.9188    Z=             -0.0000  Tot=              6.2300
 Quadrupole moment (field-independent basis, Debye-Ang):
   XX=             -9.3104   YY=            -10.9401   ZZ=            -14.9030
   XY=             -3.2097   XZ=             -0.0000   YZ=              0.0000

 72\MP4DQ=-33.8168079\MP4SDQ=-33.8192239\CCSD=-33.8197665\CCSD(T)=-33.8
 Normal termination of Gaussian 16 at Sun Dec 10 06:18:17 2023.
