 Gaussian 16, Revision A.03,
 Gaussian 16:  ES64L-G16RevA.03 25-Dec-2016

 ------------------
 #p CCSD(T)/CEP-31G
 ------------------

 ------------
 H2O_H2O_4888
 ------------
 Symbolic Z-matrix:
 Charge =  0 Multiplicity = 1

                         Standard orientation:
 ---------------------------------------------------------------------
 Center     Atomic      Atomic             Coordinates (Angstroms)
 Number     Number       Type             X           Y           Z
 ---------------------------------------------------------------------
      1          8           0        0.052265    3.057006    0.000000
      2          1           0        0.051102    2.074405    0.000000
      3          1           0       -0.876850    3.376772    0.000000
      4          8           0        0.052265   -2.877077   -0.000000
      5          1           0        0.790257   -3.525825   -0.000000
      6          1           0       -0.800756   -3.364786   -0.000000
 ---------------------------------------------------------------------

 SCF Done:  E(RHF) =  -33.6530059889     A.U. after   11 cycles
 E2 =    -0.2283126208D+00 EUMP2 =    -0.33881318609755D+02
 CCSD(T)
 CCSD(T)= -0.33898284369D+02

 The electronic state is 1-A'.
 Alpha  occ. eigenvalues --   -1.36191  -1.34770  -0.71830  -0.70400  -0.55995
 Alpha  occ. eigenvalues --   -0.54544  -0.50781  -0.49361
 Alpha virt. eigenvalues --    0.19643   0.21105   0.29895   0.31380   0.79771
 Alpha virt. eigenvalues --    0.81163   0.82666   0.84156   0.85828   0.87277
 Alpha virt. eigenvalues --    1.16763   1.18183   1.21210   1.22672   2.56746

 Mulliken charges:
               1
     1  O   -0.745864
     2  H    0.377522
     3  H    0.368339
     4  O   -0.745486
     5  H    0.373920
     6  H    0.371569
 Sum of Mulliken charges =   0.00000

 Dipole moment (field-independent basis, Debye):
    X=             -2.4034    Y=             -4.2116    Z=             -0.0000  Tot=              4.8491
 Quadrupole moment (field-independent basis, Debye-Ang):
   XX=             -9.5149   YY=             -4.8039   ZZ=            -14.9910
   XY=             -7.0961   XZ=             -0.0000   YZ=              0.0000

 31\MP4DQ=-33.8926491\MP4SDQ=-33.8946735\CCSD=-33.8957266\CCSD(T)=-33.8
 Normal termination of Gaussian 16 at Sun Dec 10 07:01:17 2023.
