 Gaussian 16, Revision A.03,
 Gaussian 16:  ES64L-G16RevA.03 25-Dec-2016

 ------------------
 #p CCSD(T)/CEP-31G
 ------------------

 ------------
 H2O_H2O_1932
 ------------
 Symbolic Z-matrix:
 Charge =  0 Multiplicity = 1

                         Standard orientation:
 ---------------------------------------------------------------------
 Center     Atomic      Atomic             Coordinates (Angstroms)
 Number     Number       Type             X           Y           Z
 ---------------------------------------------------------------------
      1          8           0        0.073552    1.873249   -0.000000
      2          1           0        0.072632    0.890648   -0.000000
      3          1           0       -0.855642    2.192786   -0.000000
      4          8           0        0.073552   -1.706336    0.000000
      5          1           0        0.507320   -2.588012    0.000000
      6          1           0       -0.901144   -1.830724    0.000000
 ---------------------------------------------------------------------

 SCF Done:  E(RHF) =  -33.6566420929     A.U. after   11 cycles
 E2 =    -0.2286902044D+00 EUMP2 =    -0.33885332297292D+02
 CCSD(T)
 CCSD(T)= -0.33902273471D+02

 The electronic state is 1-A'.
 Alpha  occ. eigenvalues --   -1.37497  -1.33453  -0.73196  -0.69056  -0.57593
 Alpha  occ. eigenvalues --   -0.53222  -0.52122  -0.48065
 Alpha virt. eigenvalues --    0.17661   0.23861   0.28790   0.35087   0.78126
 Alpha virt. eigenvalues --    0.82533   0.82787   0.85273   0.89087   0.93038
 Alpha virt. eigenvalues --    1.15419   1.19530   1.20556   1.35086   2.52074

 Mulliken charges:
               1
     1  O   -0.762597
     2  H    0.402985
     3  H    0.357316
     4  O   -0.760908
     5  H    0.389864
     6  H    0.373340
 Sum of Mulliken charges =  -0.00000

 Dipole moment (field-independent basis, Debye):
    X=             -3.3201    Y=             -4.1311    Z=              0.0000  Tot=              5.3000
 Quadrupole moment (field-independent basis, Debye-Ang):
   XX=            -10.1802   YY=             -8.0109   ZZ=            -14.9973
   XY=             -3.8120   XZ=              0.0000   YZ=             -0.0000

 946\MP4DQ=-33.8965312\MP4SDQ=-33.8986231\CCSD=-33.8996473\CCSD(T)=-33.
 Normal termination of Gaussian 16 at Sun Dec 10 06:55:21 2023.
