 Gaussian 16, Revision A.03,
 Gaussian 16:  ES64L-G16RevA.03 25-Dec-2016

 ------------------
 #p CCSD(T)/CEP-31G
 ------------------

 ------------
 H2O_H2O_1438
 ------------
 Symbolic Z-matrix:
 Charge =  0 Multiplicity = 1

                         Standard orientation:
 ---------------------------------------------------------------------
 Center     Atomic      Atomic             Coordinates (Angstroms)
 Number     Number       Type             X           Y           Z
 ---------------------------------------------------------------------
      1          8           0        0.052357    1.680827   -0.000000
      2          1           0        0.050188    0.698228   -0.000000
      3          1           0       -0.876430    2.001545   -0.000000
      4          8           0        0.052357   -1.501005    0.000000
      5          1           0        0.789685   -2.150509    0.000000
      6          1           0       -0.801163   -1.987841    0.000000
 ---------------------------------------------------------------------

 SCF Done:  E(RHF) =  -33.6612423647     A.U. after   11 cycles
 E2 =    -0.2289107197D+00 EUMP2 =    -0.33890153084473D+02
 CCSD(T)
 CCSD(T)= -0.33906898724D+02

 The electronic state is 1-A'.
 Alpha  occ. eigenvalues --   -1.38065  -1.32214  -0.73703  -0.68145  -0.58563
 Alpha  occ. eigenvalues --   -0.52767  -0.51966  -0.46871
 Alpha virt. eigenvalues --    0.17852   0.25311   0.28497   0.39742   0.76946
 Alpha virt. eigenvalues --    0.80170   0.84560   0.85857   0.91899   0.97956
 Alpha virt. eigenvalues --    1.15078   1.19693   1.21157   1.34127   2.49629

 Mulliken charges:
               1
     1  O   -0.780066
     2  H    0.425138
     3  H    0.353640
     4  O   -0.783335
     5  H    0.398505
     6  H    0.386118
 Sum of Mulliken charges =  -0.00000

 Dipole moment (field-independent basis, Debye):
    X=             -2.3270    Y=             -4.5586    Z=              0.0000  Tot=              5.1182
 Quadrupole moment (field-independent basis, Debye-Ang):
   XX=             -9.4930   YY=             -8.1480   ZZ=            -15.0092
   XY=             -4.4817   XZ=              0.0000   YZ=             -0.0000

 22\MP4DQ=-33.9011163\MP4SDQ=-33.9032099\CCSD=-33.9042066\CCSD(T)=-33.9
 Normal termination of Gaussian 16 at Sun Dec 10 06:45:51 2023.
