 Gaussian 16, Revision A.03,
 Gaussian 16:  ES64L-G16RevA.03 25-Dec-2016

 ------------------
 #p CCSD(T)/CEP-31G
 ------------------

 ------------
 H2O_H2O_2090
 ------------
 Symbolic Z-matrix:
 Charge =  0 Multiplicity = 1

                         Standard orientation:
 ---------------------------------------------------------------------
 Center     Atomic      Atomic             Coordinates (Angstroms)
 Number     Number       Type             X           Y           Z
 ---------------------------------------------------------------------
      1          8           0        0.044895    1.940391   -0.000000
      2          1           0        0.042689    0.957792   -0.000000
      3          1           0       -0.883880    2.261144   -0.000000
      4          8           0        0.044895   -1.760028    0.000000
      5          1           0        0.860671   -2.307765    0.000000
      6          1           0       -0.737801   -2.354076    0.000000
 ---------------------------------------------------------------------

 SCF Done:  E(RHF) =  -33.6582403116     A.U. after   11 cycles
 E2 =    -0.2285489348D+00 EUMP2 =    -0.33886789246406D+02
 CCSD(T)
 CCSD(T)= -0.33903659623D+02

 The electronic state is 1-A'.
 Alpha  occ. eigenvalues --   -1.37298  -1.33174  -0.72947  -0.68820  -0.57489
 Alpha  occ. eigenvalues --   -0.53021  -0.51959  -0.47827
 Alpha virt. eigenvalues --    0.18216   0.23811   0.29068   0.34820   0.78419
 Alpha virt. eigenvalues --    0.82830   0.83169   0.86027   0.88059   0.89452
 Alpha virt. eigenvalues --    1.15807   1.20129   1.20432   1.31950   2.52173

 Mulliken charges:
               1
     1  O   -0.768221
     2  H    0.404575
     3  H    0.361377
     4  O   -0.762286
     5  H    0.384882
     6  H    0.379672
 Sum of Mulliken charges =   0.00000

 Dipole moment (field-independent basis, Debye):
    X=             -2.0252    Y=             -4.4261    Z=              0.0000  Tot=              4.8675
 Quadrupole moment (field-independent basis, Debye-Ang):
   XX=             -9.4169   YY=             -7.3577   ZZ=            -15.0014
   XY=             -5.3158   XZ=              0.0000   YZ=             -0.0000

 108\MP4DQ=-33.8979585\MP4SDQ=-33.9000283\CCSD=-33.9010527\CCSD(T)=-33.
 Normal termination of Gaussian 16 at Sun Dec 10 06:58:23 2023.
