 Gaussian 16, Revision A.03,
 Gaussian 16:  ES64L-G16RevA.03 25-Dec-2016

 ------------------
 #p CCSD(T)/CEP-31G
 ------------------

 ------------
 H2O_H2O_3946
 ------------
 Symbolic Z-matrix:
 Charge =  0 Multiplicity = 1

                         Standard orientation:
 ---------------------------------------------------------------------
 Center     Atomic      Atomic             Coordinates (Angstroms)
 Number     Number       Type             X           Y           Z
 ---------------------------------------------------------------------
      1          8           0       -0.023181    2.672903    0.000000
      2          1           0       -0.020894    1.690304    0.000000
      3          1           0        0.905568    2.993732    0.000000
      4          8           0       -0.023181   -2.502501    0.000000
      5          1           0       -0.986454   -2.696440    0.000000
      6          1           0        0.472674   -3.350813    0.000000
 ---------------------------------------------------------------------

 SCF Done:  E(RHF) =  -33.6539393002     A.U. after   11 cycles
 E2 =    -0.2282765420D+00 EUMP2 =    -0.33882215842170D+02
 CCSD(T)
 CCSD(T)= -0.33899156516D+02

 The electronic state is 1-A'.
 Alpha  occ. eigenvalues --   -1.36371  -1.34570  -0.72013  -0.70207  -0.56227
 Alpha  occ. eigenvalues --   -0.54377  -0.50973  -0.49177
 Alpha virt. eigenvalues --    0.19427   0.21420   0.29754   0.31679   0.79582
 Alpha virt. eigenvalues --    0.81329   0.82352   0.84311   0.85586   0.87432
 Alpha virt. eigenvalues --    1.16621   1.18459   1.21033   1.23129   2.56565

 Mulliken charges:
               1
     1  O   -0.749506
     2  H    0.380291
     3  H    0.369145
     4  O   -0.748778
     5  H    0.374534
     6  H    0.374314
 Sum of Mulliken charges =   0.00000

 Dipole moment (field-independent basis, Debye):
    X=              1.0619    Y=             -4.0110    Z=              0.0000  Tot=              4.1492
 Quadrupole moment (field-independent basis, Debye-Ang):
   XX=             -9.5964   YY=             -6.3714   ZZ=            -14.9929
   XY=              8.7536   XZ=              0.0000   YZ=              0.0000

 7757\MP4DQ=-33.8935256\MP4SDQ=-33.8955494\CCSD=-33.8965993\CCSD(T)=-33
 Normal termination of Gaussian 16 at Sun Dec 10 06:44:01 2023.
