 Gaussian 16, Revision A.03,
 Gaussian 16:  ES64L-G16RevA.03 25-Dec-2016

 ------------------
 #p CCSD(T)/CEP-31G
 ------------------

 ------------
 H2O_H2O_2038
 ------------
 Symbolic Z-matrix:
 Charge =  0 Multiplicity = 1

                         Standard orientation:
 ---------------------------------------------------------------------
 Center     Atomic      Atomic             Coordinates (Angstroms)
 Number     Number       Type             X           Y           Z
 ---------------------------------------------------------------------
      1          8           0        0.052332    1.920169    0.000000
      2          1           0        0.050446    0.937569    0.000000
      3          1           0       -0.876548    2.240618    0.000000
      4          8           0        0.052332   -1.740317    0.000000
      5          1           0        0.789847   -2.389606    0.000000
      6          1           0       -0.801049   -2.227398    0.000000
 ---------------------------------------------------------------------

 SCF Done:  E(RHF) =  -33.6581478352     A.U. after   11 cycles
 E2 =    -0.2285860649D+00 EUMP2 =    -0.33886733900060D+02
 CCSD(T)
 CCSD(T)= -0.33903609497D+02

 The electronic state is 1-A'.
 Alpha  occ. eigenvalues --   -1.37354  -1.33149  -0.73006  -0.68790  -0.57546
 Alpha  occ. eigenvalues --   -0.52981  -0.52012  -0.47795
 Alpha virt. eigenvalues --    0.18149   0.23880   0.29004   0.35039   0.78336
 Alpha virt. eigenvalues --    0.82901   0.83063   0.85828   0.88841   0.89661
 Alpha virt. eigenvalues --    1.15732   1.20190   1.20334   1.32357   2.51900

 Mulliken charges:
               1
     1  O   -0.767960
     2  H    0.405728
     3  H    0.359982
     4  O   -0.762563
     5  H    0.386349
     6  H    0.378465
 Sum of Mulliken charges =  -0.00000

 Dipole moment (field-independent basis, Debye):
    X=             -2.3597    Y=             -4.4241    Z=              0.0000  Tot=              5.0141
 Quadrupole moment (field-independent basis, Debye-Ang):
   XX=             -9.5070   YY=             -7.4336   ZZ=            -15.0012
   XY=             -4.9408   XZ=              0.0000   YZ=              0.0000

 1555\MP4DQ=-33.8979004\MP4SDQ=-33.8999735\CCSD=-33.9009974\CCSD(T)=-33
 Normal termination of Gaussian 16 at Sun Dec 10 06:57:20 2023.
