 Gaussian 16, Revision A.03,
 Gaussian 16:  ES64L-G16RevA.03 25-Dec-2016

 ------------------
 #p CCSD(T)/CEP-31G
 ------------------

 ------------
 H2O_H2O_2440
 ------------
 Symbolic Z-matrix:
 Charge =  0 Multiplicity = 1

                         Standard orientation:
 ---------------------------------------------------------------------
 Center     Atomic      Atomic             Coordinates (Angstroms)
 Number     Number       Type             X           Y           Z
 ---------------------------------------------------------------------
      1          8           0        0.044881    2.080005    0.000000
      2          1           0        0.042829    1.097406    0.000000
      3          1           0       -0.883945    2.400611    0.000000
      4          8           0        0.044881   -1.899628   -0.000000
      5          1           0        0.860743   -2.447236   -0.000000
      6          1           0       -0.737722   -2.493799   -0.000000
 ---------------------------------------------------------------------

 SCF Done:  E(RHF) =  -33.6568855101     A.U. after   11 cycles
 E2 =    -0.2284323343D+00 EUMP2 =    -0.33885317844384D+02
 CCSD(T)
 CCSD(T)= -0.33902205143D+02

 The electronic state is 1-A'.
 Alpha  occ. eigenvalues --   -1.37036  -1.33546  -0.72684  -0.69171  -0.57098
 Alpha  occ. eigenvalues --   -0.53391  -0.51679  -0.48186
 Alpha virt. eigenvalues --    0.18417   0.23131   0.29261   0.33467   0.78838
 Alpha virt. eigenvalues --    0.82336   0.84052   0.85120   0.85724   0.88446
 Alpha virt. eigenvalues --    1.16052   1.19901   1.20496   1.29417   2.54033

 Mulliken charges:
               1
     1  O   -0.762043
     2  H    0.396801
     3  H    0.363384
     4  O   -0.757046
     5  H    0.381731
     6  H    0.377173
 Sum of Mulliken charges =  -0.00000

 Dipole moment (field-independent basis, Debye):
    X=             -2.0342    Y=             -4.3742    Z=             -0.0000  Tot=              4.8240
 Quadrupole moment (field-independent basis, Debye-Ang):
   XX=             -9.4210   YY=             -6.9965   ZZ=            -14.9987
   XY=             -5.6320   XZ=             -0.0000   YZ=              0.0000

 7805\MP4DQ=-33.8965342\MP4SDQ=-33.8985909\CCSD=-33.8996207\CCSD(T)=-33
 Normal termination of Gaussian 16 at Sun Dec 10 07:06:22 2023.
