 Gaussian 16, Revision A.03,
 Gaussian 16:  ES64L-G16RevA.03 25-Dec-2016

 ------------------
 #p CCSD(T)/CEP-31G
 ------------------

 -----------
 H2O_H2O_524
 -----------
 Symbolic Z-matrix:
 Charge =  0 Multiplicity = 1

                         Standard orientation:
 ---------------------------------------------------------------------
 Center     Atomic      Atomic             Coordinates (Angstroms)
 Number     Number       Type             X           Y           Z
 ---------------------------------------------------------------------
      1          8           0        0.013725   -1.300675    0.000000
      2          1           0        0.008206   -0.318089    0.000000
      3          1           0       -0.913963   -1.624557    0.000000
      4          8           0        0.013725    1.141483    0.000000
      5          1           0        0.996311    1.147003    0.000000
      6          1           0       -0.310157    2.069172    0.000000
 ---------------------------------------------------------------------

 SCF Done:  E(RHF) =  -33.6494744893     A.U. after   11 cycles
 E2 =    -0.2280410453D+00 EUMP2 =    -0.33877515534581D+02
 CCSD(T)
 CCSD(T)= -0.33893441013D+02

 The electronic state is 1-A'.
 Alpha  occ. eigenvalues --   -1.41202  -1.29915  -0.77927  -0.69290  -0.59288
 Alpha  occ. eigenvalues --   -0.55503  -0.48752  -0.44459
 Alpha virt. eigenvalues --    0.17353   0.26318   0.28317   0.53673   0.73928
 Alpha virt. eigenvalues --    0.76342   0.87375   0.88845   0.92806   1.06971
 Alpha virt. eigenvalues --    1.14976   1.22270   1.29261   1.39606   2.71148

 Mulliken charges:
               1
     1  O   -0.759535
     2  H    0.369932
     3  H    0.350676
     4  O   -0.835117
     5  H    0.412682
     6  H    0.461364
 Sum of Mulliken charges =   0.00000

 Dipole moment (field-independent basis, Debye):
    X=             -0.6139    Y=              4.6133    Z=              0.0000  Tot=              4.6540
 Quadrupole moment (field-independent basis, Debye-Ang):
   XX=             -9.8003   YY=             -9.5930   ZZ=            -15.0010
   XY=              4.4943   XZ=              0.0000   YZ=              0.0000

 52\MP4DQ=-33.8874372\MP4SDQ=-33.8896681\CCSD=-33.8905067\CCSD(T)=-33.8
 Normal termination of Gaussian 16 at Sun Dec 10 06:28:23 2023.
