 Gaussian 16, Revision A.03,
 Gaussian 16:  ES64L-G16RevA.03 25-Dec-2016

 ------------------
 #p CCSD(T)/CEP-31G
 ------------------

 ------------
 H2O_H2O_1203
 ------------
 Symbolic Z-matrix:
 Charge =  0 Multiplicity = 1

                         Standard orientation:
 ---------------------------------------------------------------------
 Center     Atomic      Atomic             Coordinates (Angstroms)
 Number     Number       Type             X           Y           Z
 ---------------------------------------------------------------------
      1          8           0        0.085612   -1.574643    0.000000
      2          1           0        0.085196   -0.592041    0.000000
      3          1           0       -0.843747   -1.893702    0.000000
      4          8           0        0.085612    1.425070    0.000000
      5          1           0        0.276900    2.388872    0.000000
      6          1           0       -0.888134    1.293450    0.000000
 ---------------------------------------------------------------------

 SCF Done:  E(RHF) =  -33.6549922472     A.U. after   11 cycles
 E2 =    -0.2290810501D+00 EUMP2 =    -0.33884073297221D+02
 CCSD(T)
 CCSD(T)= -0.33901026435D+02

 The electronic state is 1-A'.
 Alpha  occ. eigenvalues --   -1.38674  -1.33077  -0.74743  -0.68748  -0.58686
 Alpha  occ. eigenvalues --   -0.53222  -0.52655  -0.47617
 Alpha virt. eigenvalues --    0.16887   0.25150   0.27833   0.40772   0.75972
 Alpha virt. eigenvalues --    0.79951   0.84673   0.84950   0.90950   1.11164
 Alpha virt. eigenvalues --    1.16051   1.18705   1.22206   1.38921   2.50450

 Mulliken charges:
               1
     1  O   -0.756226
     2  H    0.400750
     3  H    0.347868
     4  O   -0.776516
     5  H    0.413517
     6  H    0.370607
 Sum of Mulliken charges =   0.00000

 Dipole moment (field-independent basis, Debye):
    X=             -3.8078    Y=              3.9109    Z=              0.0000  Tot=              5.4584
 Quadrupole moment (field-independent basis, Debye-Ang):
   XX=            -10.8555   YY=             -9.0561   ZZ=            -14.9954
   XY=              2.8550   XZ=              0.0000   YZ=              0.0000

 37\MP4DQ=-33.895116\MP4SDQ=-33.8973029\CCSD=-33.8982906\CCSD(T)=-33.90
 Normal termination of Gaussian 16 at Sun Dec 10 06:41:11 2023.
