 Gaussian 16, Revision A.03,
 Gaussian 16:  ES64L-G16RevA.03 25-Dec-2016

 ------------------
 #p CCSD(T)/CEP-31G
 ------------------

 -----------
 H2O_H2O_229
 -----------
 Symbolic Z-matrix:
 Charge =  0 Multiplicity = 1

                         Standard orientation:
 ---------------------------------------------------------------------
 Center     Atomic      Atomic             Coordinates (Angstroms)
 Number     Number       Type             X           Y           Z
 ---------------------------------------------------------------------
      1          8           0        0.082835   -1.188389    0.000000
      2          1           0        0.082060   -0.205788    0.000000
      3          1           0       -0.846407   -1.507789    0.000000
      4          8           0        0.082835    1.033938    0.000000
      5          1           0        0.336403    1.983259    0.000000
      6          1           0       -0.897411    0.965928    0.000000
 ---------------------------------------------------------------------

 SCF Done:  E(RHF) =  -33.6129828707     A.U. after   11 cycles
 E2 =    -0.2282960906D+00 EUMP2 =    -0.33841278961333D+02
 CCSD(T)
 CCSD(T)= -0.33856808069D+02

 The electronic state is 1-A'.
 Alpha  occ. eigenvalues --   -1.44371  -1.29385  -0.81861  -0.71753  -0.57578
 Alpha  occ. eigenvalues --   -0.56991  -0.47541  -0.43525
 Alpha virt. eigenvalues --    0.16151   0.24012   0.29374   0.58669   0.73203
 Alpha virt. eigenvalues --    0.75467   0.87946   0.89992   0.96967   1.08746
 Alpha virt. eigenvalues --    1.12754   1.23015   1.25867   1.42283   2.92539

 Mulliken charges:
               1
     1  O   -0.700076
     2  H    0.300902
     3  H    0.311011
     4  O   -0.796242
     5  H    0.491286
     6  H    0.393119
 Sum of Mulliken charges =  -0.00000

 Dipole moment (field-independent basis, Debye):
    X=             -3.4295    Y=              4.8737    Z=              0.0000  Tot=              5.9594
 Quadrupole moment (field-independent basis, Debye-Ang):
   XX=            -10.6653   YY=            -10.1522   ZZ=            -14.9380
   XY=              2.7665   XZ=              0.0000   YZ=              0.0000

 MP4DQ=-33.8505142\MP4SDQ=-33.8529568\CCSD=-33.8536761\CCSD(T)=-33.8568
 Normal termination of Gaussian 16 at Sun Dec 10 06:22:34 2023.
