 Gaussian 16, Revision A.03,
 Gaussian 16:  ES64L-G16RevA.03 25-Dec-2016

 ------------------
 #p CCSD(T)/CEP-31G
 ------------------

 ------------
 H2O_H2O_3687
 ------------
 Symbolic Z-matrix:
 Charge =  0 Multiplicity = 1

                         Standard orientation:
 ---------------------------------------------------------------------
 Center     Atomic      Atomic             Coordinates (Angstroms)
 Number     Number       Type             X           Y           Z
 ---------------------------------------------------------------------
      1          8           0        0.055978    2.577807    0.000000
      2          1           0        0.054718    1.595207    0.000000
      3          1           0       -0.873105    2.897666   -0.000000
      4          8           0        0.055978   -2.398885    0.000000
      5          1           0        0.749891   -3.094580    0.000000
      6          1           0       -0.827158   -2.829672   -0.000000
 ---------------------------------------------------------------------

 SCF Done:  E(RHF) =  -33.6539197032     A.U. after   11 cycles
 E2 =    -0.2282986871D+00 EUMP2 =    -0.33882218390314D+02
 CCSD(T)
 CCSD(T)= -0.33899157955D+02

 The electronic state is 1-A'.
 Alpha  occ. eigenvalues --   -1.36461  -1.34396  -0.72105  -0.70018  -0.56321
 Alpha  occ. eigenvalues --   -0.54190  -0.51063  -0.48998
 Alpha virt. eigenvalues --    0.19296   0.21632   0.29668   0.31868   0.79499
 Alpha virt. eigenvalues --    0.81504   0.82269   0.84537   0.85490   0.87676
 Alpha virt. eigenvalues --    1.16531   1.18655   1.20957   1.23476   2.56500

 Mulliken charges:
               1
     1  O   -0.749432
     2  H    0.382800
     3  H    0.366466
     4  O   -0.748579
     5  H    0.376406
     6  H    0.372339
 Sum of Mulliken charges =  -0.00000

 Dipole moment (field-independent basis, Debye):
    X=             -2.5634    Y=             -4.2279    Z=             -0.0000  Tot=              4.9443
 Quadrupole moment (field-independent basis, Debye-Ang):
   XX=             -9.5846   YY=             -5.9520   ZZ=            -14.9929
   XY=             -5.9087   XZ=              0.0000   YZ=             -0.0000

 55\MP4DQ=-33.8935251\MP4SDQ=-33.8955509\CCSD=-33.8965993\CCSD(T)=-33.8
 Normal termination of Gaussian 16 at Sun Dec 10 06:39:20 2023.
