 Gaussian 16, Revision A.03,
 Gaussian 16:  ES64L-G16RevA.03 25-Dec-2016

 ------------------
 #p CCSD(T)/CEP-31G
 ------------------

 ------------
 H2O_H2O_4368
 ------------
 Symbolic Z-matrix:
 Charge =  0 Multiplicity = 1

                         Standard orientation:
 ---------------------------------------------------------------------
 Center     Atomic      Atomic             Coordinates (Angstroms)
 Number     Number       Type             X           Y           Z
 ---------------------------------------------------------------------
      1          8           0        0.033755    2.846306    0.000000
      2          1           0        0.031933    1.863707    0.000000
      3          1           0       -0.895146    3.166695   -0.000000
      4          8           0        0.033755   -2.668756    0.000000
      5          1           0        0.940862   -3.046463    0.000000
      6          1           0       -0.617721   -3.404341   -0.000000
 ---------------------------------------------------------------------

 SCF Done:  E(RHF) =  -33.6535311271     A.U. after   11 cycles
 E2 =    -0.2282898926D+00 EUMP2 =    -0.33881821019647D+02
 CCSD(T)
 CCSD(T)= -0.33898772347D+02

 The electronic state is 1-A'.
 Alpha  occ. eigenvalues --   -1.36277  -1.34636  -0.71916  -0.70269  -0.56111
 Alpha  occ. eigenvalues --   -0.54429  -0.50874  -0.49236
 Alpha virt. eigenvalues --    0.19569   0.21285   0.29838   0.31566   0.79678
 Alpha virt. eigenvalues --    0.81277   0.82505   0.84266   0.85712   0.87370
 Alpha virt. eigenvalues --    1.16700   1.18347   1.21138   1.22869   2.56660

 Mulliken charges:
               1
     1  O   -0.747913
     2  H    0.379174
     3  H    0.368720
     4  O   -0.747275
     5  H    0.374262
     6  H    0.373032
 Sum of Mulliken charges =   0.00000

 Dipole moment (field-independent basis, Debye):
    X=             -1.5491    Y=             -4.1667    Z=             -0.0000  Tot=              4.4453
 Quadrupole moment (field-independent basis, Debye-Ang):
   XX=             -9.4369   YY=             -5.4625   ZZ=            -14.9921
   XY=             -8.3267   XZ=              0.0000   YZ=             -0.0000

 92\MP4DQ=-33.8931403\MP4SDQ=-33.8951638\CCSD=-33.8962154\CCSD(T)=-33.8
 Normal termination of Gaussian 16 at Sun Dec 10 06:51:37 2023.
