 Gaussian 16, Revision A.03,
 Gaussian 16:  ES64L-G16RevA.03 25-Dec-2016

 ------------------
 #p CCSD(T)/CEP-31G
 ------------------

 -----------
 H2O_H2O_478
 -----------
 Symbolic Z-matrix:
 Charge =  0 Multiplicity = 1

                         Standard orientation:
 ---------------------------------------------------------------------
 Center     Atomic      Atomic             Coordinates (Angstroms)
 Number     Number       Type             X           Y           Z
 ---------------------------------------------------------------------
      1          8           0        0.085619   -1.285448    0.000000
      2          1           0        0.085104   -0.302847    0.000000
      3          1           0       -0.843707   -1.604602    0.000000
      4          8           0        0.085619    1.135893    0.000000
      5          1           0        0.276811    2.099715    0.000000
      6          1           0       -0.888114    1.004175    0.000000
 ---------------------------------------------------------------------

 SCF Done:  E(RHF) =  -33.6370172511     A.U. after   11 cycles
 E2 =    -0.2287602516D+00 EUMP2 =    -0.33865777502663D+02
 CCSD(T)
 CCSD(T)= -0.33881988870D+02

 The electronic state is 1-A'.
 Alpha  occ. eigenvalues --   -1.41880  -1.30973  -0.79092  -0.69421  -0.58758
 Alpha  occ. eigenvalues --   -0.55836  -0.49851  -0.45293
 Alpha virt. eigenvalues --    0.16421   0.24907   0.28298   0.53184   0.73582
 Alpha virt. eigenvalues --    0.76730   0.86030   0.88418   0.95517   1.09950
 Alpha virt. eigenvalues --    1.14100   1.23709   1.29146   1.40704   2.71404

 Mulliken charges:
               1
     1  O   -0.715160
     2  H    0.343915
     3  H    0.325895
     4  O   -0.802104
     5  H    0.466419
     6  H    0.381036
 Sum of Mulliken charges =  -0.00000

 Dipole moment (field-independent basis, Debye):
    X=             -3.6513    Y=              4.4208    Z=              0.0000  Tot=              5.7337
 Quadrupole moment (field-independent basis, Debye-Ang):
   XX=            -10.8684   YY=             -9.7347   ZZ=            -14.9747
   XY=              2.7024   XZ=              0.0000   YZ=              0.0000

 935\MP4DQ=-33.8758171\MP4SDQ=-33.8781746\CCSD=-33.8790037\CCSD(T)=-33.
 Normal termination of Gaussian 16 at Sun Dec 10 06:27:31 2023.
