 Gaussian 16, Revision A.03,
 Gaussian 16:  ES64L-G16RevA.03 25-Dec-2016

 ------------------
 #p CCSD(T)/CEP-31G
 ------------------

 ------------
 H2O_H2O_3060
 ------------
 Symbolic Z-matrix:
 Charge =  0 Multiplicity = 1

                         Standard orientation:
 ---------------------------------------------------------------------
 Center     Atomic      Atomic             Coordinates (Angstroms)
 Number     Number       Type             X           Y           Z
 ---------------------------------------------------------------------
      1          8           0        0.063237    2.326653   -0.000000
      2          1           0        0.062111    1.344053   -0.000000
      3          1           0       -0.865890    2.646385   -0.000000
      4          8           0        0.063237   -2.151147    0.000000
      5          1           0        0.660512   -2.931383    0.000000
      6          1           0       -0.868530   -2.463103    0.000000
 ---------------------------------------------------------------------

 SCF Done:  E(RHF) =  -33.6546082819     A.U. after   11 cycles
 E2 =    -0.2283452993D+00 EUMP2 =    -0.33882953581173D+02
 CCSD(T)
 CCSD(T)= -0.33899878953D+02

 The electronic state is 1-A'.
 Alpha  occ. eigenvalues --   -1.36709  -1.34146  -0.72360  -0.69756  -0.56611
 Alpha  occ. eigenvalues --   -0.53946  -0.51319  -0.48753
 Alpha virt. eigenvalues --    0.18787   0.22129   0.29425   0.32260   0.79253
 Alpha virt. eigenvalues --    0.81740   0.82507   0.84800   0.85200   0.88010
 Alpha virt. eigenvalues --    1.16300   1.19109   1.20702   1.25427   2.56072

 Mulliken charges:
               1
     1  O   -0.752257
     2  H    0.387155
     3  H    0.364405
     4  O   -0.750681
     5  H    0.378882
     6  H    0.372497
 Sum of Mulliken charges =   0.00000

 Dipole moment (field-independent basis, Debye):
    X=             -2.8866    Y=             -4.1906    Z=              0.0000  Tot=              5.0886
 Quadrupole moment (field-independent basis, Debye-Ang):
   XX=             -9.7770   YY=             -6.7053   ZZ=            -14.9941
   XY=             -4.9892   XZ=              0.0000   YZ=             -0.0000

 839\MP4DQ=-33.8942351\MP4SDQ=-33.8962716\CCSD=-33.8973127\CCSD(T)=-33.
 Normal termination of Gaussian 16 at Sun Dec 10 06:28:08 2023.
