 Gaussian 16, Revision A.03,
 Gaussian 16:  ES64L-G16RevA.03 25-Dec-2016

 ------------------
 #p CCSD(T)/CEP-31G
 ------------------

 ------------
 H2O_H2O_2645
 ------------
 Symbolic Z-matrix:
 Charge =  0 Multiplicity = 1

                         Standard orientation:
 ---------------------------------------------------------------------
 Center     Atomic      Atomic             Coordinates (Angstroms)
 Number     Number       Type             X           Y           Z
 ---------------------------------------------------------------------
      1          8           0        0.026677    2.155892   -0.000000
      2          1           0        0.023958    1.173294   -0.000000
      3          1           0       -0.901930    2.477129   -0.000000
      4          8           0        0.026677   -1.982679    0.000000
      5          1           0        0.975091   -2.239620    0.000000
      6          1           0       -0.523955   -2.796503    0.000000
 ---------------------------------------------------------------------

 SCF Done:  E(RHF) =  -33.6563934479     A.U. after   11 cycles
 E2 =    -0.2283643650D+00 EUMP2 =    -0.33884757812873D+02
 CCSD(T)
 CCSD(T)= -0.33901651543D+02

 The electronic state is 1-A'.
 Alpha  occ. eigenvalues --   -1.36890  -1.33834  -0.72541  -0.69473  -0.56902
 Alpha  occ. eigenvalues --   -0.53690  -0.51526  -0.48475
 Alpha virt. eigenvalues --    0.18452   0.22771   0.29357   0.32900   0.79019
 Alpha virt. eigenvalues --    0.82022   0.83268   0.84623   0.86028   0.88023
 Alpha virt. eigenvalues --    1.16160   1.19653   1.20608   1.28362   2.55147

 Mulliken charges:
               1
     1  O   -0.759798
     2  H    0.391665
     3  H    0.366737
     4  O   -0.756019
     5  H    0.379059
     6  H    0.378355
 Sum of Mulliken charges =  -0.00000

 Dipole moment (field-independent basis, Debye):
    X=             -1.2101    Y=             -4.1710    Z=              0.0000  Tot=              4.3430
 Quadrupole moment (field-independent basis, Debye-Ang):
   XX=             -9.5192   YY=             -7.1525   ZZ=            -14.9976
   XY=             -6.8569   XZ=              0.0000   YZ=             -0.0000

 2384\MP4DQ=-33.8959942\MP4SDQ=-33.898043\CCSD=-33.8990758\CCSD(T)=-33.
 Normal termination of Gaussian 16 at Sun Dec 10 06:20:37 2023.
