 Gaussian 16, Revision A.03,
 Gaussian 16:  ES64L-G16RevA.03 25-Dec-2016

 ------------------
 #p CCSD(T)/CEP-31G
 ------------------

 ------------
 H2O_H2O_2908
 ------------
 Symbolic Z-matrix:
 Charge =  0 Multiplicity = 1

                         Standard orientation:
 ---------------------------------------------------------------------
 Center     Atomic      Atomic             Coordinates (Angstroms)
 Number     Number       Type             X           Y           Z
 ---------------------------------------------------------------------
      1          8           0        0.070201    2.263961    0.000000
      2          1           0        0.069315    1.281360    0.000000
      3          1           0       -0.859004    2.583465   -0.000000
      4          8           0        0.070201   -2.093721    0.000000
      5          1           0        0.560735   -2.945121    0.000000
      6          1           0       -0.894267   -2.281624   -0.000000
 ---------------------------------------------------------------------

 SCF Done:  E(RHF) =  -33.6545011282     A.U. after   11 cycles
 E2 =    -0.2283793662D+00 EUMP2 =    -0.33882880494402D+02
 CCSD(T)
 CCSD(T)= -0.33899813684D+02

 The electronic state is 1-A'.
 Alpha  occ. eigenvalues --   -1.36792  -1.34163  -0.72450  -0.69766  -0.56690
 Alpha  occ. eigenvalues --   -0.53953  -0.51399  -0.48766
 Alpha virt. eigenvalues --    0.18525   0.22236   0.29317   0.32318   0.79172
 Alpha virt. eigenvalues --    0.81736   0.82732   0.84796   0.85228   0.88066
 Alpha virt. eigenvalues --    1.16181   1.19165   1.20607   1.26399   2.55875

 Mulliken charges:
               1
     1  O   -0.752003
     2  H    0.387608
     3  H    0.363535
     4  O   -0.750535
     5  H    0.379735
     6  H    0.371660
 Sum of Mulliken charges =   0.00000

 Dipole moment (field-independent basis, Debye):
    X=             -3.2029    Y=             -4.0788    Z=             -0.0000  Tot=              5.1861
 Quadrupole moment (field-independent basis, Debye-Ang):
   XX=            -10.0291   YY=             -7.1358   ZZ=            -14.9937
   XY=             -4.4183   XZ=              0.0000   YZ=             -0.0000

 4117\MP4DQ=-33.8941615\MP4SDQ=-33.8962032\CCSD=-33.8972427\CCSD(T)=-33
 Normal termination of Gaussian 16 at Sun Dec 10 06:25:20 2023.
