 Gaussian 16, Revision A.03,
 Gaussian 16:  ES64L-G16RevA.03 25-Dec-2016

 ------------------
 #p CCSD(T)/CEP-31G
 ------------------

 ------------
 H2O_H2O_1801
 ------------
 Symbolic Z-matrix:
 Charge =  0 Multiplicity = 1

                         Standard orientation:
 ---------------------------------------------------------------------
 Center     Atomic      Atomic             Coordinates (Angstroms)
 Number     Number       Type             X           Y           Z
 ---------------------------------------------------------------------
      1          8           0        0.090686   -1.808065    0.000000
      2          1           0        0.090576   -0.825463    0.000000
      3          1           0       -0.838771   -2.126836    0.000000
      4          8           0        0.090686    1.669361    0.000000
      5          1           0        0.154841    2.649866    0.000000
      6          1           0       -0.857630    1.412062    0.000000
 ---------------------------------------------------------------------

 SCF Done:  E(RHF) =  -33.6535679153     A.U. after   11 cycles
 E2 =    -0.2289081234D+00 EUMP2 =    -0.33882476038669D+02
 CCSD(T)
 CCSD(T)= -0.33899525505D+02

 The electronic state is 1-A'.
 Alpha  occ. eigenvalues --   -1.37713  -1.34221  -0.73550  -0.69720  -0.57612
 Alpha  occ. eigenvalues --   -0.53909  -0.52278  -0.48778
 Alpha virt. eigenvalues --    0.16699   0.23871   0.28501   0.35073   0.77755
 Alpha virt. eigenvalues --    0.82147   0.82413   0.84618   0.88303   0.97660
 Alpha virt. eigenvalues --    1.15322   1.18022   1.21113   1.38492   2.53057

 Mulliken charges:
               1
     1  O   -0.751647
     2  H    0.391816
     3  H    0.356828
     4  O   -0.752875
     5  H    0.390861
     6  H    0.365017
 Sum of Mulliken charges =   0.00000

 Dipole moment (field-independent basis, Debye):
    X=             -4.0989    Y=              3.4573    Z=              0.0000  Tot=              5.3623
 Quadrupole moment (field-independent basis, Debye-Ang):
   XX=            -11.1659   YY=             -9.2772   ZZ=            -14.9890
   XY=              2.5021   XZ=              0.0000   YZ=              0.0000

 \MP4DQ=-33.8937318\MP4SDQ=-33.8958556\CCSD=-33.8968748\CCSD(T)=-33.899
 Normal termination of Gaussian 16 at Sun Dec 10 06:52:52 2023.
