 Gaussian 16, Revision A.03,
 Gaussian 16:  ES64L-G16RevA.03 25-Dec-2016

 ------------------
 #p CCSD(T)/CEP-31G
 ------------------

 ------------
 H2O_H2O_4037
 ------------
 Symbolic Z-matrix:
 Charge =  0 Multiplicity = 1

                         Standard orientation:
 ---------------------------------------------------------------------
 Center     Atomic      Atomic             Coordinates (Angstroms)
 Number     Number       Type             X           Y           Z
 ---------------------------------------------------------------------
      1          8           0        0.055972    2.717418    0.000000
      2          1           0        0.054778    1.734818    0.000000
      3          1           0       -0.873133    3.037214    0.000000
      4          8           0        0.055972   -2.538488   -0.000000
      5          1           0        0.749932   -3.234137   -0.000000
      6          1           0       -0.827134   -2.969335   -0.000000
 ---------------------------------------------------------------------

 SCF Done:  E(RHF) =  -33.6535443465     A.U. after   11 cycles
 E2 =    -0.2282987879D+00 EUMP2 =    -0.33881843134410D+02
 CCSD(T)
 CCSD(T)= -0.33898793370D+02

 The electronic state is 1-A'.
 Alpha  occ. eigenvalues --   -1.36364  -1.34533  -0.72006  -0.70157  -0.56201
 Alpha  occ. eigenvalues --   -0.54319  -0.50961  -0.49130
 Alpha virt. eigenvalues --    0.19447   0.21422   0.29749   0.31691   0.79597
 Alpha virt. eigenvalues --    0.81380   0.82395   0.84391   0.85614   0.87523
 Alpha virt. eigenvalues --    1.16614   1.18461   1.21048   1.23068   2.56575

 Mulliken charges:
               1
     1  O   -0.747982
     2  H    0.380809
     3  H    0.367114
     4  O   -0.747369
     5  H    0.375488
     6  H    0.371939
 Sum of Mulliken charges =   0.00000

 Dipole moment (field-independent basis, Debye):
    X=             -2.5671    Y=             -4.2124    Z=             -0.0000  Tot=              4.9330
 Quadrupole moment (field-independent basis, Debye-Ang):
   XX=             -9.5848   YY=             -5.6452   ZZ=            -14.9921
   XY=             -6.1488   XZ=             -0.0000   YZ=              0.0000

 123\MP4DQ=-33.8931605\MP4SDQ=-33.8951848\CCSD=-33.8962356\CCSD(T)=-33.
 Normal termination of Gaussian 16 at Sun Dec 10 06:45:39 2023.
