 Gaussian 16, Revision A.03,
 Gaussian 16:  ES64L-G16RevA.03 25-Dec-2016

 ------------------
 #p CCSD(T)/CEP-31G
 ------------------

 ------------
 H2O_H2O_1143
 ------------
 Symbolic Z-matrix:
 Charge =  0 Multiplicity = 1

                         Standard orientation:
 ---------------------------------------------------------------------
 Center     Atomic      Atomic             Coordinates (Angstroms)
 Number     Number       Type             X           Y           Z
 ---------------------------------------------------------------------
      1          8           0        0.033898    1.559876   -0.000000
      2          1           0        0.030485    0.577281   -0.000000
      3          1           0       -0.894482    1.881770   -0.000000
      4          8           0        0.033898   -1.382436    0.000000
      5          1           0        0.940393   -1.761612    0.000000
      6          1           0       -0.618768   -2.116964    0.000000
 ---------------------------------------------------------------------

 SCF Done:  E(RHF) =  -33.6631655497     A.U. after   11 cycles
 E2 =    -0.2289382165D+00 EUMP2 =    -0.33892103766137D+02
 CCSD(T)
 CCSD(T)= -0.33908666565D+02

 The electronic state is 1-A'.
 Alpha  occ. eigenvalues --   -1.38603  -1.31515  -0.74236  -0.68051  -0.59159
 Alpha  occ. eigenvalues --   -0.53336  -0.51168  -0.46188
 Alpha virt. eigenvalues --    0.17743   0.26217   0.28169   0.43407   0.75973
 Alpha virt. eigenvalues --    0.78190   0.85829   0.86169   0.92839   1.02071
 Alpha virt. eigenvalues --    1.15330   1.18509   1.22517   1.35276   2.51267

 Mulliken charges:
               1
     1  O   -0.786816
     2  H    0.430861
     3  H    0.353622
     4  O   -0.802587
     5  H    0.399626
     6  H    0.405294
 Sum of Mulliken charges =  -0.00000

 Dipole moment (field-independent basis, Debye):
    X=             -1.5046    Y=             -4.6064    Z=              0.0000  Tot=              4.8459
 Quadrupole moment (field-independent basis, Debye-Ang):
   XX=             -9.3901   YY=             -8.5837   ZZ=            -15.0162
   XY=             -4.7178   XZ=              0.0000   YZ=             -0.0000

 P4DQ=-33.9028448\MP4SDQ=-33.9049508\CCSD=-33.9059134\CCSD(T)=-33.90866
 Normal termination of Gaussian 16 at Sun Dec 10 06:40:00 2023.
