 Gaussian 16, Revision A.03,
 Gaussian 16:  ES64L-G16RevA.03 25-Dec-2016

 ------------------
 #p CCSD(T)/CEP-31G
 ------------------

 ------------
 H2O_H2O_1484
 ------------
 Symbolic Z-matrix:
 Charge =  0 Multiplicity = 1

                         Standard orientation:
 ---------------------------------------------------------------------
 Center     Atomic      Atomic             Coordinates (Angstroms)
 Number     Number       Type             X           Y           Z
 ---------------------------------------------------------------------
      1          8           0        0.066795    1.697090    0.000000
      2          1           0        0.065415    0.714489    0.000000
      3          1           0       -0.862249    2.017061    0.000000
      4          8           0        0.066795   -1.524040   -0.000000
      5          1           0        0.611551   -2.341809   -0.000000
      6          1           0       -0.883444   -1.774142   -0.000000
 ---------------------------------------------------------------------

 SCF Done:  E(RHF) =  -33.6593680633     A.U. after   11 cycles
 E2 =    -0.2288939352D+00 EUMP2 =    -0.33888261998495D+02
 CCSD(T)
 CCSD(T)= -0.33905101098D+02

 The electronic state is 1-A'.
 Alpha  occ. eigenvalues --   -1.38031  -1.32603  -0.73732  -0.68398  -0.58380
 Alpha  occ. eigenvalues --   -0.52694  -0.52330  -0.47230
 Alpha virt. eigenvalues --    0.17651   0.24994   0.28424   0.38817   0.77054
 Alpha virt. eigenvalues --    0.80655   0.84190   0.85523   0.91144   1.00303
 Alpha virt. eigenvalues --    1.15013   1.19076   1.21104   1.35679   2.49941

 Mulliken charges:
               1
     1  O   -0.773139
     2  H    0.418814
     3  H    0.352446
     4  O   -0.778387
     5  H    0.401194
     6  H    0.379071
 Sum of Mulliken charges =  -0.00000

 Dipole moment (field-independent basis, Debye):
    X=             -2.9767    Y=             -4.3872    Z=             -0.0000  Tot=              5.3017
 Quadrupole moment (field-independent basis, Debye-Ang):
   XX=             -9.8965   YY=             -8.2267   ZZ=            -15.0044
   XY=             -3.9760   XZ=             -0.0000   YZ=              0.0000

 879\MP4DQ=-33.8993042\MP4SDQ=-33.9014133\CCSD=-33.9024188\CCSD(T)=-33.
 Normal termination of Gaussian 16 at Sun Dec 10 06:46:45 2023.
