 Gaussian 16, Revision A.03,
 Gaussian 16:  ES64L-G16RevA.03 25-Dec-2016

 ------------------
 #p CCSD(T)/CEP-31G
 ------------------

 -----------
 H2O_H2O_384
 -----------
 Symbolic Z-matrix:
 Charge =  0 Multiplicity = 1

                         Standard orientation:
 ---------------------------------------------------------------------
 Center     Atomic      Atomic             Coordinates (Angstroms)
 Number     Number       Type             X           Y           Z
 ---------------------------------------------------------------------
      1          8           0        0.066841    1.258290    0.000000
      2          1           0        0.064944    0.275691    0.000000
      3          1           0       -0.862035    1.578750    0.000000
      4          8           0        0.066841   -1.085310   -0.000000
      5          1           0        0.611168   -1.903367   -0.000000
      6          1           0       -0.883530   -1.334914   -0.000000
 ---------------------------------------------------------------------

 SCF Done:  E(RHF) =  -33.6415449085     A.U. after   11 cycles
 E2 =    -0.2287099032D+00 EUMP2 =    -0.33870254811703D+02
 CCSD(T)
 CCSD(T)= -0.33885730582D+02

 The electronic state is 1-A'.
 Alpha  occ. eigenvalues --   -1.42267  -1.29097  -0.78076  -0.72360  -0.57477
 Alpha  occ. eigenvalues --   -0.56475  -0.47552  -0.43400
 Alpha virt. eigenvalues --    0.16615   0.25758   0.28764   0.56814   0.73612
 Alpha virt. eigenvalues --    0.74581   0.86192   0.89782   0.96064   1.06043
 Alpha virt. eigenvalues --    1.14173   1.19777   1.24487   1.35116   2.79672

 Mulliken charges:
               1
     1  O   -0.749858
     2  H    0.392583
     3  H    0.319396
     4  O   -0.833933
     5  H    0.465243
     6  H    0.406569
 Sum of Mulliken charges =   0.00000

 Dipole moment (field-independent basis, Debye):
    X=             -2.7694    Y=             -5.0934    Z=             -0.0000  Tot=              5.7977
 Quadrupole moment (field-independent basis, Debye-Ang):
   XX=             -9.8537   YY=             -9.9246   ZZ=            -14.9856
   XY=             -3.3965   XZ=             -0.0000   YZ=              0.0000

 134\MP4DQ=-33.8796349\MP4SDQ=-33.8819135\CCSD=-33.8826665\CCSD(T)=-33.
 Normal termination of Gaussian 16 at Sun Dec 10 06:25:37 2023.
