 Gaussian 16, Revision A.03,
 Gaussian 16:  ES64L-G16RevA.03 25-Dec-2016

 ------------------
 #p CCSD(T)/CEP-31G
 ------------------

 ------------
 H2O_H2O_4445
 ------------
 Symbolic Z-matrix:
 Charge =  0 Multiplicity = 1

                         Standard orientation:
 ---------------------------------------------------------------------
 Center     Atomic      Atomic             Coordinates (Angstroms)
 Number     Number       Type             X           Y           Z
 ---------------------------------------------------------------------
      1          8           0        0.026616    2.873888    0.000000
      2          1           0        0.024597    1.891288    0.000000
      3          1           0       -0.902221    3.194463    0.000000
      4          8           0        0.026616   -2.700637   -0.000000
      5          1           0        0.975211   -2.956902   -0.000000
      6          1           0       -0.523437   -3.514853   -0.000000
 ---------------------------------------------------------------------

 SCF Done:  E(RHF) =  -33.6534826596     A.U. after   11 cycles
 E2 =    -0.2282893267D+00 EUMP2 =    -0.33881771986309D+02
 CCSD(T)
 CCSD(T)= -0.33898725087D+02

 The electronic state is 1-A'.
 Alpha  occ. eigenvalues --   -1.36260  -1.34699  -0.71900  -0.70335  -0.56090
 Alpha  occ. eigenvalues --   -0.54492  -0.50857  -0.49299
 Alpha virt. eigenvalues --    0.19586   0.21213   0.29852   0.31494   0.79695
 Alpha virt. eigenvalues --    0.81216   0.82534   0.84202   0.85726   0.87302
 Alpha virt. eigenvalues --    1.16715   1.18282   1.21151   1.22795   2.56676

 Mulliken charges:
               1
     1  O   -0.747720
     2  H    0.378465
     3  H    0.369242
     4  O   -0.747164
     5  H    0.373874
     6  H    0.373303
 Sum of Mulliken charges =   0.00000

 Dipole moment (field-independent basis, Debye):
    X=             -1.2217    Y=             -4.0628    Z=             -0.0000  Tot=              4.2425
 Quadrupole moment (field-independent basis, Debye-Ang):
   XX=             -9.5293   YY=             -5.7678   ZZ=            -14.9920
   XY=             -9.0687   XZ=             -0.0000   YZ=              0.0000

 446\MP4DQ=-33.8930927\MP4SDQ=-33.8951162\CCSD=-33.8961681\CCSD(T)=-33.
 Normal termination of Gaussian 16 at Sun Dec 10 06:53:00 2023.
