 Gaussian 16, Revision A.03,
 Gaussian 16:  ES64L-G16RevA.03 25-Dec-2016

 ------------------
 #p CCSD(T)/CEP-31G
 ------------------

 ----------
 H2O_H2O_31
 ----------
 Symbolic Z-matrix:
 Charge =  0 Multiplicity = 1

                         Standard orientation:
 ---------------------------------------------------------------------
 Center     Atomic      Atomic             Coordinates (Angstroms)
 Number     Number       Type             X           Y           Z
 ---------------------------------------------------------------------
      1          8           0        0.076818   -1.113312    0.000000
      2          1           0        0.075487   -0.130712    0.000000
      3          1           0       -0.852242   -1.433238    0.000000
      4          8           0        0.076818    0.950217    0.000000
      5          1           0        0.451613    1.858531    0.000000
      6          1           0       -0.903952    1.010180    0.000000
 ---------------------------------------------------------------------

 SCF Done:  E(RHF) =  -33.5754395714     A.U. after   11 cycles
 E2 =    -0.2276626501D+00 EUMP2 =    -0.33803102221554D+02
 CCSD(T)
 CCSD(T)= -0.33817929656D+02

 The electronic state is 1-A'.
 Alpha  occ. eigenvalues --   -1.47378  -1.27551  -0.84486  -0.75308  -0.59526
 Alpha  occ. eigenvalues --   -0.54526  -0.44537  -0.41418
 Alpha virt. eigenvalues --    0.15822   0.23316   0.30551   0.61829   0.73065
 Alpha virt. eigenvalues --    0.74238   0.89955   0.91485   0.95328   1.08272
 Alpha virt. eigenvalues --    1.09555   1.20507   1.29104   1.42660   3.11031

 Mulliken charges:
               1
     1  O   -0.696470
     2  H    0.233743
     3  H    0.294240
     4  O   -0.747321
     5  H    0.504349
     6  H    0.411459
 Sum of Mulliken charges =  -0.00000

 Dipole moment (field-independent basis, Debye):
    X=             -3.0754    Y=              5.4380    Z=              0.0000  Tot=              6.2474
 Quadrupole moment (field-independent basis, Debye-Ang):
   XX=            -10.2721   YY=            -10.6531   ZZ=            -14.8863
   XY=              2.8840   XZ=              0.0000   YZ=              0.0000

 61\MP4DQ=-33.8115234\MP4SDQ=-33.8140576\CCSD=-33.8146605\CCSD(T)=-33.8
 Normal termination of Gaussian 16 at Sun Dec 10 06:18:37 2023.
