 Gaussian 16, Revision A.03,
 Gaussian 16:  ES64L-G16RevA.03 25-Dec-2016

 ------------------
 #p CCSD(T)/CEP-31G
 ------------------

 -----------
 H2O_H2O_683
 -----------
 Symbolic Z-matrix:
 Charge =  0 Multiplicity = 1

                         Standard orientation:
 ---------------------------------------------------------------------
 Center     Atomic      Atomic             Coordinates (Angstroms)
 Number     Number       Type             X           Y           Z
 ---------------------------------------------------------------------
      1          8           0        0.070254    1.376416    0.000000
      2          1           0        0.068759    0.393816    0.000000
      3          1           0       -0.858753    1.696496    0.000000
      4          8           0        0.070254   -1.206263   -0.000000
      5          1           0        0.560260   -2.057967   -0.000000
      6          1           0       -0.894330   -1.393568   -0.000000
 ---------------------------------------------------------------------

 SCF Done:  E(RHF) =  -33.6552529217     A.U. after   11 cycles
 E2 =    -0.2289929998D+00 EUMP2 =    -0.33884245921563D+02
 CCSD(T)
 CCSD(T)= -0.33900435710D+02

 The electronic state is 1-A'.
 Alpha  occ. eigenvalues --   -1.40293  -1.30639  -0.76197  -0.69423  -0.58985
 Alpha  occ. eigenvalues --   -0.54837  -0.49777  -0.45121
 Alpha virt. eigenvalues --    0.16965   0.26447   0.27672   0.50342   0.74342
 Alpha virt. eigenvalues --    0.76161   0.85312   0.87930   0.95996   1.06956
 Alpha virt. eigenvalues --    1.16152   1.20045   1.23055   1.36400   2.62675

 Mulliken charges:
               1
     1  O   -0.761597
     2  H    0.416640
     3  H    0.333161
     4  O   -0.826445
     5  H    0.446070
     6  H    0.392170
 Sum of Mulliken charges =  -0.00000

 Dipole moment (field-independent basis, Debye):
    X=             -2.9995    Y=             -4.7199    Z=             -0.0000  Tot=              5.5923
 Quadrupole moment (field-independent basis, Debye-Ang):
   XX=            -10.0223   YY=             -9.3206   ZZ=            -15.0061
   XY=             -3.4802   XZ=             -0.0000   YZ=              0.0000

 995\MP4DQ=-33.8944477\MP4SDQ=-33.8966588\CCSD=-33.8975336\CCSD(T)=-33.
 Normal termination of Gaussian 16 at Sun Dec 10 06:31:22 2023.
