 Gaussian 16, Revision A.03,
 Gaussian 16:  ES64L-G16RevA.03 25-Dec-2016

 ------------------
 #p CCSD(T)/CEP-31G
 ------------------

 -----------
 H2O_H2O_675
 -----------
 Symbolic Z-matrix:
 Charge =  0 Multiplicity = 1

                         Standard orientation:
 ---------------------------------------------------------------------
 Center     Atomic      Atomic             Coordinates (Angstroms)
 Number     Number       Type             X           Y           Z
 ---------------------------------------------------------------------
      1          8           0        0.092949   -1.356114    0.000000
      2          1           0        0.092949   -0.373512    0.000000
      3          1           0       -0.836544   -1.674780    0.000000
      4          8           0        0.092949    1.223327    0.000000
      5          1           0        0.092950    2.205929    0.000000
      6          1           0       -0.836544    0.904660    0.000000
 ---------------------------------------------------------------------

 SCF Done:  E(RHF) =  -33.6400291998     A.U. after   11 cycles
 E2 =    -0.2293667830D+00 EUMP2 =    -0.33869395982771D+02
 CCSD(T)
 CCSD(T)= -0.33886109429D+02

 The electronic state is 1-A'.
 Alpha  occ. eigenvalues --   -1.40793  -1.32660  -0.78212  -0.68352  -0.59417
 Alpha  occ. eigenvalues --   -0.54857  -0.51879  -0.47025
 Alpha virt. eigenvalues --    0.16407   0.24899   0.27895   0.48215   0.73900
 Alpha virt. eigenvalues --    0.78406   0.85231   0.86815   0.92527   1.11706
 Alpha virt. eigenvalues --    1.13348   1.24045   1.33896   1.38993   2.57091

 Mulliken charges:
               1
     1  O   -0.712037
     2  H    0.337438
     3  H    0.336261
     4  O   -0.764322
     5  H    0.438020
     6  H    0.364639
 Sum of Mulliken charges =   0.00000

 Dipole moment (field-independent basis, Debye):
    X=             -4.0551    Y=              3.7898    Z=              0.0000  Tot=              5.5503
 Quadrupole moment (field-independent basis, Debye-Ang):
   XX=            -11.3769   YY=             -9.8363   ZZ=            -14.9758
   XY=              2.1888   XZ=              0.0000   YZ=              0.0000

 31\MP4DQ=-33.8799535\MP4SDQ=-33.8823069\CCSD=-33.8831801\CCSD(T)=-33.8
 Normal termination of Gaussian 16 at Sun Dec 10 06:31:13 2023.
