 Gaussian 16, Revision A.03,
 Gaussian 16:  ES64L-G16RevA.03 25-Dec-2016

 ------------------
 #p CCSD(T)/CEP-31G
 ------------------

 -----------
 H2O_H2O_106
 -----------
 Symbolic Z-matrix:
 Charge =  0 Multiplicity = 1

                         Standard orientation:
 ---------------------------------------------------------------------
 Center     Atomic      Atomic             Coordinates (Angstroms)
 Number     Number       Type             X           Y           Z
 ---------------------------------------------------------------------
      1          8           0        0.076815   -1.143231    0.000000
      2          1           0        0.075521   -0.160631    0.000000
      3          1           0       -0.852257   -1.463121    0.000000
      4          8           0        0.076815    0.980130    0.000000
      5          1           0        0.451645    1.888430    0.000000
      6          1           0       -0.903952    1.040130    0.000000
 ---------------------------------------------------------------------

 SCF Done:  E(RHF) =  -33.5953242385     A.U. after   11 cycles
 E2 =    -0.2279506185D+00 EUMP2 =    -0.33823274856914D+02
 CCSD(T)
 CCSD(T)= -0.33838283157D+02

 The electronic state is 1-A'.
 Alpha  occ. eigenvalues --   -1.45975  -1.28064  -0.83053  -0.74313  -0.58732
 Alpha  occ. eigenvalues --   -0.55374  -0.45509  -0.42048
 Alpha virt. eigenvalues --    0.15985   0.23777   0.30103   0.61087   0.73140
 Alpha virt. eigenvalues --    0.74494   0.89102   0.91040   0.96010   1.07970
 Alpha virt. eigenvalues --    1.10852   1.21337   1.27555   1.40057   3.04213

 Mulliken charges:
               1
     1  O   -0.705412
     2  H    0.279815
     3  H    0.300630
     4  O   -0.781490
     5  H    0.498900
     6  H    0.407556
 Sum of Mulliken charges =   0.00000

 Dipole moment (field-independent basis, Debye):
    X=             -3.1049    Y=              5.2935    Z=              0.0000  Tot=              6.1369
 Quadrupole moment (field-independent basis, Debye-Ang):
   XX=            -10.2887   YY=            -10.4645   ZZ=            -14.9130
   XY=              2.9411   XZ=              0.0000   YZ=              0.0000

 571\MP4DQ=-33.8319476\MP4SDQ=-33.8344205\CCSD=-33.8350651\CCSD(T)=-33.
 Normal termination of Gaussian 16 at Sun Dec 10 06:20:07 2023.
