 Gaussian 16, Revision A.03,
 Gaussian 16:  ES64L-G16RevA.03 25-Dec-2016

 ------------------
 #p CCSD(T)/CEP-31G
 ------------------

 ------------
 H2O_H2O_3724
 ------------
 Symbolic Z-matrix:
 Charge =  0 Multiplicity = 1

                         Standard orientation:
 ---------------------------------------------------------------------
 Center     Atomic      Atomic             Coordinates (Angstroms)
 Number     Number       Type             X           Y           Z
 ---------------------------------------------------------------------
      1          8           0       -0.013497    2.577111    0.000000
      2          1           0       -0.010798    1.594513    0.000000
      3          1           0        0.915118    2.898329    0.000000
      4          8           0       -0.013497   -2.417842    0.000000
      5          1           0       -0.996095   -2.420540    0.000000
      6          1           0        0.307721   -3.346456    0.000000
 ---------------------------------------------------------------------

 SCF Done:  E(RHF) =  -33.6540786187     A.U. after   11 cycles
 E2 =    -0.2282723355D+00 EUMP2 =    -0.33882350954149D+02
 CCSD(T)
 CCSD(T)= -0.33899289479D+02

 The electronic state is 1-A'.
 Alpha  occ. eigenvalues --   -1.36431  -1.34626  -0.72077  -0.70269  -0.56294
 Alpha  occ. eigenvalues --   -0.54439  -0.51034  -0.49237
 Alpha virt. eigenvalues --    0.19233   0.21465   0.29700   0.31634   0.79523
 Alpha virt. eigenvalues --    0.81268   0.82289   0.84224   0.85505   0.87402
 Alpha virt. eigenvalues --    1.16544   1.18471   1.20970   1.23325   2.56461

 Mulliken charges:
               1
     1  O   -0.750059
     2  H    0.379938
     3  H    0.370006
     4  O   -0.749516
     5  H    0.374238
     6  H    0.375392
 Sum of Mulliken charges =  -0.00000

 Dipole moment (field-independent basis, Debye):
    X=              0.6178    Y=             -3.7552    Z=              0.0000  Tot=              3.8056
 Quadrupole moment (field-independent basis, Debye-Ang):
   XX=             -9.8739   YY=             -7.3728   ZZ=            -14.9930
   XY=              9.3272   XZ=              0.0000   YZ=              0.0000

 1\MP4DQ=-33.8936574\MP4SDQ=-33.8956821\CCSD=-33.8967311\CCSD(T)=-33.89
 Normal termination of Gaussian 16 at Sun Dec 10 06:40:00 2023.
