 Gaussian 16, Revision A.03,
 Gaussian 16:  ES64L-G16RevA.03 25-Dec-2016

 ------------------
 #p CCSD(T)/CEP-31G
 ------------------

 ------------
 H2O_H2O_1307
 ------------
 Symbolic Z-matrix:
 Charge =  0 Multiplicity = 1

                         Standard orientation:
 ---------------------------------------------------------------------
 Center     Atomic      Atomic             Coordinates (Angstroms)
 Number     Number       Type             X           Y           Z
 ---------------------------------------------------------------------
      1          8           0        0.073565    1.623940    0.000000
      2          1           0        0.072495    0.641339    0.000000
      3          1           0       -0.855581    1.943618    0.000000
      4          8           0        0.073565   -1.457049   -0.000000
      5          1           0        0.507199   -2.338790   -0.000000
      6          1           0       -0.901151   -1.581289   -0.000000
 ---------------------------------------------------------------------

 SCF Done:  E(RHF) =  -33.6586889810     A.U. after   11 cycles
 E2 =    -0.2289724028D+00 EUMP2 =    -0.33887661383782D+02
 CCSD(T)
 CCSD(T)= -0.33904499774D+02

 The electronic state is 1-A'.
 Alpha  occ. eigenvalues --   -1.38365  -1.32531  -0.74151  -0.68418  -0.58648
 Alpha  occ. eigenvalues --   -0.53004  -0.52183  -0.47131
 Alpha virt. eigenvalues --    0.17381   0.25295   0.28109   0.40368   0.76460
 Alpha virt. eigenvalues --    0.79879   0.84700   0.85322   0.91675   1.06121
 Alpha virt. eigenvalues --    1.15095   1.18014   1.21560   1.36971   2.50206

 Mulliken charges:
               1
     1  O   -0.770099
     2  H    0.418063
     3  H    0.349233
     4  O   -0.784535
     5  H    0.409588
     6  H    0.377751
 Sum of Mulliken charges =  -0.00000

 Dipole moment (field-independent basis, Debye):
    X=             -3.2645    Y=             -4.2981    Z=             -0.0000  Tot=              5.3973
 Quadrupole moment (field-independent basis, Debye-Ang):
   XX=            -10.1845   YY=             -8.5433   ZZ=            -15.0036
   XY=             -3.5942   XZ=             -0.0000   YZ=              0.0000

 521\MP4DQ=-33.8986558\MP4SDQ=-33.900792\CCSD=-33.9017871\CCSD(T)=-33.9
 Normal termination of Gaussian 16 at Sun Dec 10 06:43:15 2023.
