 Gaussian 16, Revision A.03,
 Gaussian 16:  ES64L-G16RevA.03 25-Dec-2016

 ------------------
 #p CCSD(T)/CEP-31G
 ------------------

 ------------
 H2O_H2O_1374
 ------------
 Symbolic Z-matrix:
 Charge =  0 Multiplicity = 1

                         Standard orientation:
 ---------------------------------------------------------------------
 Center     Atomic      Atomic             Coordinates (Angstroms)
 Number     Number       Type             X           Y           Z
 ---------------------------------------------------------------------
      1          8           0        0.013628   -1.639733    0.000000
      2          1           0        0.009308   -0.657141    0.000000
      3          1           0       -0.914455   -1.962483    0.000000
      4          8           0        0.013628    1.480508    0.000000
      5          1           0        0.996219    1.484828    0.000000
      6          1           0       -0.309122    2.408592    0.000000
 ---------------------------------------------------------------------

 SCF Done:  E(RHF) =  -33.6607198785     A.U. after   11 cycles
 E2 =    -0.2286918596D+00 EUMP2 =    -0.33889411738052D+02
 CCSD(T)
 CCSD(T)= -0.33906237720D+02

 The electronic state is 1-A'.
 Alpha  occ. eigenvalues --   -1.38142  -1.32616  -0.73981  -0.68469  -0.58617
 Alpha  occ. eigenvalues --   -0.52808  -0.52393  -0.47305
 Alpha virt. eigenvalues --    0.17652   0.25428   0.28438   0.39728   0.76664
 Alpha virt. eigenvalues --    0.80100   0.84433   0.86282   0.89148   1.07203
 Alpha virt. eigenvalues --    1.16286   1.17733   1.21812   1.37726   2.51374

 Mulliken charges:
               1
     1  O   -0.779690
     2  H    0.410023
     3  H    0.364725
     4  O   -0.787786
     5  H    0.388352
     6  H    0.404376
 Sum of Mulliken charges =   0.00000

 Dipole moment (field-independent basis, Debye):
    X=             -0.6101    Y=              4.0737    Z=              0.0000  Tot=              4.1191
 Quadrupole moment (field-independent basis, Debye-Ang):
   XX=             -9.8473   YY=             -8.6519   ZZ=            -15.0074
   XY=              5.8456   XZ=              0.0000   YZ=              0.0000

 007\MP4DQ=-33.9004237\MP4SDQ=-33.9025497\CCSD=-33.9035483\CCSD(T)=-33.
 Normal termination of Gaussian 16 at Sun Dec 10 06:44:34 2023.
