 Gaussian 16, Revision A.03,
 Gaussian 16:  ES64L-G16RevA.03 25-Dec-2016

 ------------------
 #p CCSD(T)/CEP-31G
 ------------------

 ------------
 H2O_H2O_1511
 ------------
 Symbolic Z-matrix:
 Charge =  0 Multiplicity = 1

                         Standard orientation:
 ---------------------------------------------------------------------
 Center     Atomic      Atomic             Coordinates (Angstroms)
 Number     Number       Type             X           Y           Z
 ---------------------------------------------------------------------
      1          8           0        0.059686    1.709418   -0.000000
      2          1           0        0.057941    0.726818   -0.000000
      3          1           0       -0.869240    2.029734   -0.000000
      4          8           0        0.059686   -1.532033    0.000000
      5          1           0        0.706248   -2.271940    0.000000
      6          1           0       -0.849917   -1.903690    0.000000
 ---------------------------------------------------------------------

 SCF Done:  E(RHF) =  -33.6601674299     A.U. after   11 cycles
 E2 =    -0.2288765297D+00 EUMP2 =    -0.33889043959531D+02
 CCSD(T)
 CCSD(T)= -0.33905847931D+02

 The electronic state is 1-A'.
 Alpha  occ. eigenvalues --   -1.37970  -1.32471  -0.73633  -0.68291  -0.58382
 Alpha  occ. eigenvalues --   -0.52651  -0.52224  -0.47114
 Alpha virt. eigenvalues --    0.17801   0.25037   0.28522   0.38813   0.77151
 Alpha virt. eigenvalues --    0.80700   0.84217   0.85699   0.91308   0.98084
 Alpha virt. eigenvalues --    1.15099   1.19565   1.20979   1.34646   2.49779

 Mulliken charges:
               1
     1  O   -0.776145
     2  H    0.420997
     3  H    0.353570
     4  O   -0.778741
     5  H    0.398577
     6  H    0.381743
 Sum of Mulliken charges =   0.00000

 Dipole moment (field-independent basis, Debye):
    X=             -2.6591    Y=             -4.4816    Z=              0.0000  Tot=              5.2111
 Quadrupole moment (field-independent basis, Debye-Ang):
   XX=             -9.6631   YY=             -8.1015   ZZ=            -15.0063
   XY=             -4.2771   XZ=              0.0000   YZ=             -0.0000

 486\MP4DQ=-33.9000671\MP4SDQ=-33.9021648\CCSD=-33.9031694\CCSD(T)=-33.
 Normal termination of Gaussian 16 at Sun Dec 10 06:47:18 2023.
