 Gaussian 16, Revision A.03,
 Gaussian 16:  ES64L-G16RevA.03 25-Dec-2016

 ------------------
 #p CCSD(T)/CEP-31G
 ------------------

 ------------
 H2O_H2O_3258
 ------------
 Symbolic Z-matrix:
 Charge =  0 Multiplicity = 1

                         Standard orientation:
 ---------------------------------------------------------------------
 Center     Atomic      Atomic             Coordinates (Angstroms)
 Number     Number       Type             X           Y           Z
 ---------------------------------------------------------------------
      1          8           0        0.070197    2.403571    0.000000
      2          1           0        0.069364    1.420970    0.000000
      3          1           0       -0.859026    2.723026   -0.000000
      4          8           0        0.070197   -2.233324    0.000000
      5          1           0        0.560777   -3.084698    0.000000
      6          1           0       -0.894261   -2.421280   -0.000000
 ---------------------------------------------------------------------

 SCF Done:  E(RHF) =  -33.6539502835     A.U. after   11 cycles
 E2 =    -0.2283376168D+00 EUMP2 =    -0.33882287900262D+02
 CCSD(T)
 CCSD(T)= -0.33899229325D+02

 The electronic state is 1-A'.
 Alpha  occ. eigenvalues --   -1.36631  -1.34351  -0.72283  -0.69960  -0.56493
 Alpha  occ. eigenvalues --   -0.54134  -0.51231  -0.48948
 Alpha virt. eigenvalues --    0.18875   0.21848   0.29455   0.31990   0.79341
 Alpha virt. eigenvalues --    0.81554   0.82312   0.84608   0.85301   0.87856
 Alpha virt. eigenvalues --    1.16343   1.18826   1.20735   1.24577   2.56318

 Mulliken charges:
               1
     1  O   -0.749633
     2  H    0.384441
     3  H    0.364767
     4  O   -0.748894
     5  H    0.378125
     6  H    0.371193
 Sum of Mulliken charges =  -0.00000

 Dipole moment (field-independent basis, Debye):
    X=             -3.2098    Y=             -4.0499    Z=             -0.0000  Tot=              5.1676
 Quadrupole moment (field-independent basis, Debye-Ang):
   XX=            -10.0276   YY=             -6.8883   ZZ=            -14.9927
   XY=             -4.5678   XZ=              0.0000   YZ=             -0.0000

 8391\MP4DQ=-33.893588\MP4SDQ=-33.8956203\CCSD=-33.8966652\CCSD(T)=-33.
 Normal termination of Gaussian 16 at Sun Dec 10 06:31:43 2023.
