 Gaussian 16, Revision A.03,
 Gaussian 16:  ES64L-G16RevA.03 25-Dec-2016

 ------------------
 #p CCSD(T)/CEP-31G
 ------------------

 ------------
 H2O_H2O_2000
 ------------
 Symbolic Z-matrix:
 Charge =  0 Multiplicity = 1

                         Standard orientation:
 ---------------------------------------------------------------------
 Center     Atomic      Atomic             Coordinates (Angstroms)
 Number     Number       Type             X           Y           Z
 ---------------------------------------------------------------------
      1          8           0        0.092949   -1.884626    0.000000
      2          1           0        0.092949   -0.902025    0.000000
      3          1           0       -0.836544   -2.203293    0.000000
      4          8           0        0.092949    1.751839    0.000000
      5          1           0        0.092949    2.734441    0.000000
      6          1           0       -0.836544    1.433173    0.000000
 ---------------------------------------------------------------------

 SCF Done:  E(RHF) =  -33.6528302712     A.U. after   11 cycles
 E2 =    -0.2288274650D+00 EUMP2 =    -0.33881657736194D+02
 CCSD(T)
 CCSD(T)= -0.33898708436D+02

 The electronic state is 1-A'.
 Alpha  occ. eigenvalues --   -1.37506  -1.34537  -0.73306  -0.70044  -0.57346
 Alpha  occ. eigenvalues --   -0.54229  -0.52068  -0.49090
 Alpha virt. eigenvalues --    0.16531   0.23500   0.28656   0.33938   0.78165
 Alpha virt. eigenvalues --    0.81883   0.82506   0.84410   0.87847   0.93591
 Alpha virt. eigenvalues --    1.15376   1.18221   1.20864   1.36674   2.54590

 Mulliken charges:
               1
     1  O   -0.748178
     2  H    0.387080
     3  H    0.358967
     4  O   -0.748177
     5  H    0.386785
     6  H    0.363524
 Sum of Mulliken charges =   0.00000

 Dipole moment (field-independent basis, Debye):
    X=             -4.2146    Y=              3.2738    Z=              0.0000  Tot=              5.3368
 Quadrupole moment (field-independent basis, Debye-Ang):
   XX=            -11.3165   YY=             -9.5600   ZZ=            -14.9873
   XY=              2.2788   XZ=              0.0000   YZ=              0.0000

 2202\MP4DQ=-33.8929461\MP4SDQ=-33.8950514\CCSD=-33.8960758\CCSD(T)=-33
 Normal termination of Gaussian 16 at Sun Dec 10 06:56:37 2023.
