 Gaussian 16, Revision A.03,
 Gaussian 16:  ES64L-G16RevA.03 25-Dec-2016

 ------------------
 #p CCSD(T)/CEP-31G
 ------------------

 ------------
 H2O_H2O_2713
 ------------
 Symbolic Z-matrix:
 Charge =  0 Multiplicity = 1

                         Standard orientation:
 ---------------------------------------------------------------------
 Center     Atomic      Atomic             Coordinates (Angstroms)
 Number     Number       Type             X           Y           Z
 ---------------------------------------------------------------------
      1          8           0        0.052309    2.189423   -0.000000
      2          1           0        0.050666    1.206823   -0.000000
      3          1           0       -0.876649    2.509644   -0.000000
      4          8           0        0.052309   -2.009545    0.000000
      5          1           0        0.789984   -2.658654    0.000000
      6          1           0       -0.800950   -2.496837    0.000000
 ---------------------------------------------------------------------

 SCF Done:  E(RHF) =  -33.6558310115     A.U. after   11 cycles
 E2 =    -0.2283812441D+00 EUMP2 =    -0.33884212255624D+02
 CCSD(T)
 CCSD(T)= -0.33901113984D+02

 The electronic state is 1-A'.
 Alpha  occ. eigenvalues --   -1.36876  -1.33808  -0.72525  -0.69423  -0.56858
 Alpha  occ. eigenvalues --   -0.53635  -0.51504  -0.48433
 Alpha virt. eigenvalues --    0.18589   0.22660   0.29357   0.32809   0.79055
 Alpha virt. eigenvalues --    0.82058   0.83499   0.84607   0.85376   0.88236
 Alpha virt. eigenvalues --    1.16182   1.19578   1.20612   1.27398   2.55163

 Mulliken charges:
               1
     1  O   -0.757373
     2  H    0.392204
     3  H    0.363834
     4  O   -0.753928
     5  H    0.380351
     6  H    0.374912
 Sum of Mulliken charges =  -0.00000

 Dipole moment (field-independent basis, Debye):
    X=             -2.3791    Y=             -4.3294    Z=              0.0000  Tot=              4.9401
 Quadrupole moment (field-independent basis, Debye-Ang):
   XX=             -9.5117   YY=             -6.7608   ZZ=            -14.9966
   XY=             -5.4536   XZ=              0.0000   YZ=             -0.0000

 049\MP4DQ=-33.8954589\MP4SDQ=-33.8975057\CCSD=-33.8985402\CCSD(T)=-33.
 Normal termination of Gaussian 16 at Sun Dec 10 06:21:50 2023.
