 Gaussian 16, Revision A.03,
 Gaussian 16:  ES64L-G16RevA.03 25-Dec-2016

 ------------------
 #p CCSD(T)/CEP-31G
 ------------------

 ------------
 H2O_H2O_2375
 ------------
 Symbolic Z-matrix:
 Charge =  0 Multiplicity = 1

                         Standard orientation:
 ---------------------------------------------------------------------
 Center     Atomic      Atomic             Coordinates (Angstroms)
 Number     Number       Type             X           Y           Z
 ---------------------------------------------------------------------
      1          8           0        0.092949   -2.034205    0.000000
      2          1           0        0.092949   -1.051604    0.000000
      3          1           0       -0.836544   -2.352872    0.000000
      4          8           0        0.092949    1.901418    0.000000
      5          1           0        0.092950    2.884020    0.000000
      6          1           0       -0.836544    1.582751    0.000000
 ---------------------------------------------------------------------

 SCF Done:  E(RHF) =  -33.6526260349     A.U. after   11 cycles
 E2 =    -0.2286280022D+00 EUMP2 =    -0.33881254037095D+02
 CCSD(T)
 CCSD(T)= -0.33898275197D+02

 The electronic state is 1-A'.
 Alpha  occ. eigenvalues --   -1.37178  -1.34718  -0.72904  -0.70271  -0.56987
 Alpha  occ. eigenvalues --   -0.54430  -0.51746  -0.49279
 Alpha virt. eigenvalues --    0.16707   0.22903   0.28923   0.32588   0.78732
 Alpha virt. eigenvalues --    0.81406   0.82791   0.84284   0.87567   0.88492
 Alpha virt. eigenvalues --    1.15406   1.18631   1.20528   1.32244   2.55881

 Mulliken charges:
               1
     1  O   -0.745981
     2  H    0.383346
     3  H    0.361461
     4  O   -0.745835
     5  H    0.382602
     6  H    0.364406
 Sum of Mulliken charges =   0.00000

 Dipole moment (field-independent basis, Debye):
    X=             -4.2325    Y=              3.2246    Z=              0.0000  Tot=              5.3209
 Quadrupole moment (field-independent basis, Debye-Ang):
   XX=            -11.3065   YY=             -9.5671   ZZ=            -14.9876
   XY=              2.2868   XZ=              0.0000   YZ=              0.0000

 2\MP4DQ=-33.8925665\MP4SDQ=-33.8946389\CCSD=-33.895673\CCSD(T)=-33.898
 Normal termination of Gaussian 16 at Sun Dec 10 07:05:09 2023.
