 Gaussian 16, Revision A.03,
 Gaussian 16:  ES64L-G16RevA.03 25-Dec-2016

 ------------------
 #p CCSD(T)/CEP-31G
 ------------------

 ------------
 H2O_H2O_3098
 ------------
 Symbolic Z-matrix:
 Charge =  0 Multiplicity = 1

                         Standard orientation:
 ---------------------------------------------------------------------
 Center     Atomic      Atomic             Coordinates (Angstroms)
 Number     Number       Type             X           Y           Z
 ---------------------------------------------------------------------
      1          8           0       -0.016628    2.330052    0.000000
      2          1           0       -0.013748    1.347454    0.000000
      3          1           0        0.911927    2.651442    0.000000
      4          8           0       -0.016628   -2.166662    0.000000
      5          1           0       -0.996933   -2.233801    0.000000
      6          1           0        0.364805   -3.072209    0.000000
 ---------------------------------------------------------------------

 SCF Done:  E(RHF) =  -33.6551243521     A.U. after   11 cycles
 E2 =    -0.2282944870D+00 EUMP2 =    -0.33883418839146D+02
 CCSD(T)
 CCSD(T)= -0.33900333467D+02

 The electronic state is 1-A'.
 Alpha  occ. eigenvalues --   -1.36654  -1.34296  -0.72306  -0.69940  -0.56579
 Alpha  occ. eigenvalues --   -0.54134  -0.51272  -0.48922
 Alpha virt. eigenvalues --    0.18700   0.22103   0.29504   0.32126   0.79291
 Alpha virt. eigenvalues --    0.81568   0.82384   0.84357   0.85588   0.87705
 Alpha virt. eigenvalues --    1.16325   1.19059   1.20764   1.25484   2.56302

 Mulliken charges:
               1
     1  O   -0.754306
     2  H    0.384597
     3  H    0.369138
     4  O   -0.752761
     5  H    0.376165
     6  H    0.377166
 Sum of Mulliken charges =  -0.00000

 Dipole moment (field-independent basis, Debye):
    X=              0.7574    Y=             -3.8893    Z=              0.0000  Tot=              3.9624
 Quadrupole moment (field-independent basis, Debye-Ang):
   XX=             -9.7672   YY=             -7.4100   ZZ=            -14.9950
   XY=              8.1559   XZ=              0.0000   YZ=              0.0000

 \MP4DQ=-33.8946943\MP4SDQ=-33.8967277\CCSD=-33.8977691\CCSD(T)=-33.900
 Normal termination of Gaussian 16 at Sun Dec 10 06:28:49 2023.
