 Gaussian 16, Revision A.03,
 Gaussian 16:  ES64L-G16RevA.03 25-Dec-2016

 ------------------
 #p CCSD(T)/CEP-31G
 ------------------

 -----------
 H2O_H2O_459
 -----------
 Symbolic Z-matrix:
 Charge =  0 Multiplicity = 1

                         Standard orientation:
 ---------------------------------------------------------------------
 Center     Atomic      Atomic             Coordinates (Angstroms)
 Number     Number       Type             X           Y           Z
 ---------------------------------------------------------------------
      1          8           0        0.066837    1.288209   -0.000000
      2          1           0        0.064987    0.305610   -0.000000
      3          1           0       -0.862055    1.608625   -0.000000
      4          8           0        0.066837   -1.115223    0.000000
      5          1           0        0.611203   -1.933252    0.000000
      6          1           0       -0.883522   -1.364872    0.000000
 ---------------------------------------------------------------------

 SCF Done:  E(RHF) =  -33.6469948996     A.U. after   11 cycles
 E2 =    -0.2288237242D+00 EUMP2 =    -0.33875818623806D+02
 CCSD(T)
 CCSD(T)= -0.33891478984D+02

 The electronic state is 1-A'.
 Alpha  occ. eigenvalues --   -1.41647  -1.29484  -0.77435  -0.71503  -0.57976
 Alpha  occ. eigenvalues --   -0.55997  -0.48154  -0.43848
 Alpha virt. eigenvalues --    0.16732   0.26033   0.28440   0.55240   0.73769
 Alpha virt. eigenvalues --    0.74853   0.85821   0.89335   0.96371   1.05740
 Alpha virt. eigenvalues --    1.14795   1.19640   1.24026   1.35541   2.74726

 Mulliken charges:
               1
     1  O   -0.754572
     2  H    0.403438
     3  H    0.323459
     4  O   -0.835278
     5  H    0.459582
     6  H    0.403371
 Sum of Mulliken charges =  -0.00000

 Dipole moment (field-independent basis, Debye):
    X=             -2.7911    Y=             -5.0022    Z=              0.0000  Tot=              5.7282
 Quadrupole moment (field-independent basis, Debye-Ang):
   XX=             -9.8611   YY=             -9.7638   ZZ=            -14.9945
   XY=             -3.4471   XZ=              0.0000   YZ=             -0.0000

 906\MP4DQ=-33.8854184\MP4SDQ=-33.8876726\CCSD=-33.8884581\CCSD(T)=-33.
 Normal termination of Gaussian 16 at Sun Dec 10 06:27:08 2023.
