 Gaussian 16, Revision A.03,
 Gaussian 16:  ES64L-G16RevA.03 25-Dec-2016

 ------------------
 #p CCSD(T)/CEP-31G
 ------------------

 ------------
 H2O_H2O_1547
 ------------
 Symbolic Z-matrix:
 Charge =  0 Multiplicity = 1

                         Standard orientation:
 ---------------------------------------------------------------------
 Center     Atomic      Atomic             Coordinates (Angstroms)
 Number     Number       Type             X           Y           Z
 ---------------------------------------------------------------------
      1          8           0       -0.019952    1.713790    0.000000
      2          1           0       -0.016147    0.731196    0.000000
      3          1           0        0.908301    2.036053    0.000000
      4          8           0       -0.019952   -1.546730    0.000000
      5          1           0       -0.993643   -1.678756    0.000000
      6          1           0        0.420716   -2.424977    0.000000
 ---------------------------------------------------------------------

 SCF Done:  E(RHF) =  -33.6607181050     A.U. after   11 cycles
 E2 =    -0.2286906545D+00 EUMP2 =    -0.33889408759496D+02
 CCSD(T)
 CCSD(T)= -0.33906240366D+02

 The electronic state is 1-A'.
 Alpha  occ. eigenvalues --   -1.37865  -1.32691  -0.73587  -0.68497  -0.58307
 Alpha  occ. eigenvalues --   -0.52545  -0.52514  -0.47379
 Alpha virt. eigenvalues --    0.17808   0.25052   0.28660   0.38261   0.77230
 Alpha virt. eigenvalues --    0.80704   0.83959   0.86401   0.89077   1.01308
 Alpha virt. eigenvalues --    1.15548   1.18663   1.21487   1.36471   2.50871

 Mulliken charges:
               1
     1  O   -0.779403
     2  H    0.412922
     3  H    0.363391
     4  O   -0.780825
     5  H    0.387399
     6  H    0.396517
 Sum of Mulliken charges =  -0.00000

 Dipole moment (field-independent basis, Debye):
    X=              0.8944    Y=             -4.2137    Z=              0.0000  Tot=              4.3076
 Quadrupole moment (field-independent basis, Debye-Ang):
   XX=             -9.6524   YY=             -8.3017   ZZ=            -15.0069
   XY=              5.7758   XZ=              0.0000   YZ=              0.0000

 7332\MP4DQ=-33.9004637\MP4SDQ=-33.9025674\CCSD=-33.9035755\CCSD(T)=-33
 Normal termination of Gaussian 16 at Sun Dec 10 06:48:01 2023.
