 Gaussian 16, Revision A.03,
 Gaussian 16:  ES64L-G16RevA.03 25-Dec-2016

 ------------------
 #p CCSD(T)/CEP-31G
 ------------------

 -----------
 H2O_H2O_791
 -----------
 Symbolic Z-matrix:
 Charge =  0 Multiplicity = 1

                         Standard orientation:
 ---------------------------------------------------------------------
 Center     Atomic      Atomic             Coordinates (Angstroms)
 Number     Number       Type             X           Y           Z
 ---------------------------------------------------------------------
      1          8           0        0.041265    1.421557   -0.000000
      2          1           0        0.037963    0.438961   -0.000000
      3          1           0       -0.887152    1.743345   -0.000000
      4          8           0        0.041265   -1.241746    0.000000
      5          1           0        0.890568   -1.735904    0.000000
      6          1           0       -0.701620   -1.884885    0.000000
 ---------------------------------------------------------------------

 SCF Done:  E(RHF) =  -33.6618714804     A.U. after   11 cycles
 E2 =    -0.2290463947D+00 EUMP2 =    -0.33890917875077D+02
 CCSD(T)
 CCSD(T)= -0.33907044593D+02

 The electronic state is 1-A'.
 Alpha  occ. eigenvalues --   -1.39691  -1.30352  -0.75150  -0.69096  -0.59221
 Alpha  occ. eigenvalues --   -0.54417  -0.49650  -0.44948
 Alpha virt. eigenvalues --    0.17429   0.27319   0.27539   0.49353   0.74770
 Alpha virt. eigenvalues --    0.75714   0.85588   0.87718   0.96806   0.99102
 Alpha virt. eigenvalues --    1.15164   1.18440   1.23552   1.36817   2.58174

 Mulliken charges:
               1
     1  O   -0.784306
     2  H    0.434583
     3  H    0.342827
     4  O   -0.823950
     5  H    0.416066
     6  H    0.414780
 Sum of Mulliken charges =   0.00000

 Dipole moment (field-independent basis, Debye):
    X=             -1.7948    Y=             -4.8555    Z=              0.0000  Tot=              5.1766
 Quadrupole moment (field-independent basis, Debye-Ang):
   XX=             -9.3448   YY=             -9.1686   ZZ=            -15.0196
   XY=             -4.1482   XZ=              0.0000   YZ=             -0.0000

 3\MP4DQ=-33.9011514\MP4SDQ=-33.9032867\CCSD=-33.9041678\CCSD(T)=-33.90
 Normal termination of Gaussian 16 at Sun Dec 10 06:33:23 2023.
