 Gaussian 16, Revision A.03,
 Gaussian 16:  ES64L-G16RevA.03 25-Dec-2016

 ------------------
 #p CCSD(T)/CEP-31G
 ------------------

 ------------
 H2O_H2O_1811
 ------------
 Symbolic Z-matrix:
 Charge =  0 Multiplicity = 1

                         Standard orientation:
 ---------------------------------------------------------------------
 Center     Atomic      Atomic             Coordinates (Angstroms)
 Number     Number       Type             X           Y           Z
 ---------------------------------------------------------------------
      1          8           0        0.059675    1.829088   -0.000000
      2          1           0        0.058050    0.846488   -0.000000
      3          1           0       -0.869290    2.149291   -0.000000
      4          8           0        0.059675   -1.651689    0.000000
      5          1           0        0.706327   -2.391518    0.000000
      6          1           0       -0.849883   -2.023457    0.000000
 ---------------------------------------------------------------------

 SCF Done:  E(RHF) =  -33.6586776895     A.U. after   11 cycles
 E2 =    -0.2287106795D+00 EUMP2 =    -0.33887388368972D+02
 CCSD(T)
 CCSD(T)= -0.33904258810D+02

 The electronic state is 1-A'.
 Alpha  occ. eigenvalues --   -1.37590  -1.32947  -0.73253  -0.68616  -0.57854
 Alpha  occ. eigenvalues --   -0.52748  -0.52251  -0.47588
 Alpha virt. eigenvalues --    0.17949   0.24315   0.28801   0.36306   0.77906
 Alpha virt. eigenvalues --    0.82189   0.83325   0.85706   0.89855   0.93152
 Alpha virt. eigenvalues --    1.15452   1.19969   1.20524   1.33942   2.50823

 Mulliken charges:
               1
     1  O   -0.770474
     2  H    0.411237
     3  H    0.357112
     4  O   -0.767368
     5  H    0.391066
     6  H    0.378427
 Sum of Mulliken charges =  -0.00000

 Dipole moment (field-independent basis, Debye):
    X=             -2.6805    Y=             -4.4093    Z=              0.0000  Tot=              5.1602
 Quadrupole moment (field-independent basis, Debye-Ang):
   XX=             -9.6683   YY=             -7.7595   ZZ=            -15.0023
   XY=             -4.4609   XZ=              0.0000   YZ=             -0.0000

 832\MP4DQ=-33.8985183\MP4SDQ=-33.9006036\CCSD=-33.9016226\CCSD(T)=-33.
 Normal termination of Gaussian 16 at Sun Dec 10 06:53:04 2023.
