 Gaussian 16, Revision A.03,
 Gaussian 16:  ES64L-G16RevA.03 25-Dec-2016

 ------------------
 #p CCSD(T)/CEP-31G
 ------------------

 ------------
 H2O_H2O_1802
 ------------
 Symbolic Z-matrix:
 Charge =  0 Multiplicity = 1

                         Standard orientation:
 ---------------------------------------------------------------------
 Center     Atomic      Atomic             Coordinates (Angstroms)
 Number     Number       Type             X           Y           Z
 ---------------------------------------------------------------------
      1          8           0        0.088236   -1.811110    0.000000
      2          1           0        0.088005   -0.828509    0.000000
      3          1           0       -0.841183   -2.129994    0.000000
      4          8           0        0.088236    1.666800    0.000000
      5          1           0        0.216263    2.641026    0.000000
      6          1           0       -0.874854    1.471957    0.000000
 ---------------------------------------------------------------------

 SCF Done:  E(RHF) =  -33.6542307149     A.U. after   11 cycles
 E2 =    -0.2288669658D+00 EUMP2 =    -0.33883097680691D+02
 CCSD(T)
 CCSD(T)= -0.33900129155D+02

 The electronic state is 1-A'.
 Alpha  occ. eigenvalues --   -1.37697  -1.34041  -0.73507  -0.69566  -0.57639
 Alpha  occ. eigenvalues --   -0.53741  -0.52273  -0.48608
 Alpha virt. eigenvalues --    0.16877   0.23910   0.28524   0.35174   0.77781
 Alpha virt. eigenvalues --    0.82128   0.82540   0.84758   0.88523   0.97502
 Alpha virt. eigenvalues --    1.15253   1.18249   1.21032   1.38306   2.52699

 Mulliken charges:
               1
     1  O   -0.754064
     2  H    0.394632
     3  H    0.356498
     4  O   -0.755361
     5  H    0.391489
     6  H    0.366806
 Sum of Mulliken charges =  -0.00000

 Dipole moment (field-independent basis, Debye):
    X=             -3.9865    Y=              3.5975    Z=              0.0000  Tot=              5.3698
 Quadrupole moment (field-independent basis, Debye-Ang):
   XX=            -11.0022   YY=             -9.0204   ZZ=            -14.9908
   XY=              2.7282   XZ=              0.0000   YZ=              0.0000

 6169\MP4DQ=-33.8943413\MP4SDQ=-33.8964613\CCSD=-33.8974817\CCSD(T)=-33
 Normal termination of Gaussian 16 at Sun Dec 10 06:52:54 2023.
