 Gaussian 16, Revision A.03,
 Gaussian 16:  ES64L-G16RevA.03 25-Dec-2016

 ------------------
 #p CCSD(T)/CEP-31G
 ------------------

 ----------
 H2O_H2O_77
 ----------
 Symbolic Z-matrix:
 Charge =  0 Multiplicity = 1

                         Standard orientation:
 ---------------------------------------------------------------------
 Center     Atomic      Atomic             Coordinates (Angstroms)
 Number     Number       Type             X           Y           Z
 ---------------------------------------------------------------------
      1          8           0        0.088247   -1.123033    0.000000
      2          1           0        0.087866   -0.140432    0.000000
      3          1           0       -0.841123   -1.442060    0.000000
      4          8           0        0.088247    0.978750    0.000000
      5          1           0        0.216125    1.952996    0.000000
      6          1           0       -0.874813    0.783760    0.000000
 ---------------------------------------------------------------------

 SCF Done:  E(RHF) =  -33.5726960613     A.U. after   11 cycles
 E2 =    -0.2281621328D+00 EUMP2 =    -0.33800858194084D+02
 CCSD(T)
 CCSD(T)= -0.33816152006D+02

 The electronic state is 1-A'.
 Alpha  occ. eigenvalues --   -1.47232  -1.29032  -0.85310  -0.72222  -0.58974
 Alpha  occ. eigenvalues --   -0.56030  -0.46686  -0.43032
 Alpha virt. eigenvalues --    0.15895   0.22749   0.30112   0.60397   0.72960
 Alpha virt. eigenvalues --    0.75506   0.90024   0.90456   0.96841   1.09433
 Alpha virt. eigenvalues --    1.10674   1.20990   1.27446   1.49970   3.01887

 Mulliken charges:
               1
     1  O   -0.663658
     2  H    0.194528
     3  H    0.301478
     4  O   -0.721348
     5  H    0.500363
     6  H    0.388637
 Sum of Mulliken charges =  -0.00000

 Dipole moment (field-independent basis, Debye):
    X=             -3.6240    Y=              4.8782    Z=              0.0000  Tot=              6.0770
 Quadrupole moment (field-independent basis, Debye-Ang):
   XX=            -10.9904   YY=            -10.5288   ZZ=            -14.8809
   XY=              2.3883   XZ=              0.0000   YZ=              0.0000

 94\MP4DQ=-33.8096533\MP4SDQ=-33.8122564\CCSD=-33.8128832\CCSD(T)=-33.8
 Normal termination of Gaussian 16 at Sun Dec 10 06:19:33 2023.
