 Gaussian 16, Revision A.03,
 Gaussian 16:  ES64L-G16RevA.03 25-Dec-2016

 ------------------
 #p CCSD(T)/CEP-31G
 ------------------

 ------------
 H2O_H2O_1757
 ------------
 Symbolic Z-matrix:
 Charge =  0 Multiplicity = 1

                         Standard orientation:
 ---------------------------------------------------------------------
 Center     Atomic      Atomic             Coordinates (Angstroms)
 Number     Number       Type             X           Y           Z
 ---------------------------------------------------------------------
      1          8           0        0.073555    1.803443    0.000000
      2          1           0        0.072597    0.820842    0.000000
      3          1           0       -0.855627    2.123015    0.000000
      4          8           0        0.073555   -1.636536   -0.000000
      5          1           0        0.507290   -2.518227   -0.000000
      6          1           0       -0.901146   -1.760886   -0.000000
 ---------------------------------------------------------------------

 SCF Done:  E(RHF) =  -33.6572498074     A.U. after   11 cycles
 E2 =    -0.2287721205D+00 EUMP2 =    -0.33886021927833D+02
 CCSD(T)
 CCSD(T)= -0.33902954435D+02

 The electronic state is 1-A'.
 Alpha  occ. eigenvalues --   -1.37687  -1.33244  -0.73402  -0.68871  -0.57848
 Alpha  occ. eigenvalues --   -0.52997  -0.52317  -0.47856
 Alpha virt. eigenvalues --    0.17586   0.24240   0.28639   0.36205   0.77756
 Alpha virt. eigenvalues --    0.81950   0.83193   0.85338   0.89595   0.96328
 Alpha virt. eigenvalues --    1.15239   1.19248   1.20778   1.36164   2.51170

 Mulliken charges:
               1
     1  O   -0.765280
     2  H    0.407357
     3  H    0.355531
     4  O   -0.765582
     5  H    0.393795
     6  H    0.374180
 Sum of Mulliken charges =   0.00000

 Dipole moment (field-independent basis, Debye):
    X=             -3.3085    Y=             -4.1678    Z=             -0.0000  Tot=              5.3213
 Quadrupole moment (field-independent basis, Debye-Ang):
   XX=            -10.1816   YY=             -8.1478   ZZ=            -14.9987
   XY=             -3.7502   XZ=             -0.0000   YZ=              0.0000

 4571\MP4DQ=-33.8971871\MP4SDQ=-33.89929\CCSD=-33.9003098\CCSD(T)=-33.9
 Normal termination of Gaussian 16 at Sun Dec 10 06:52:03 2023.
