 Gaussian 16, Revision A.03,
 Gaussian 16:  ES64L-G16RevA.03 25-Dec-2016

 ------------------
 #p CCSD(T)/CEP-31G
 ------------------

 ------------
 H2O_H2O_3897
 ------------
 Symbolic Z-matrix:
 Charge =  0 Multiplicity = 1

                         Standard orientation:
 ---------------------------------------------------------------------
 Center     Atomic      Atomic             Coordinates (Angstroms)
 Number     Number       Type             X           Y           Z
 ---------------------------------------------------------------------
      1          8           0       -0.019834    2.651175    0.000000
      2          1           0       -0.017418    1.668577    0.000000
      3          1           0        0.908873    2.972126    0.000000
      4          8           0       -0.019834   -2.484059    0.000000
      5          1           0       -0.993711   -2.614709    0.000000
      6          1           0        0.419592   -3.362928    0.000000
 ---------------------------------------------------------------------

 SCF Done:  E(RHF) =  -33.6539693639     A.U. after   11 cycles
 E2 =    -0.2282748976D+00 EUMP2 =    -0.33882244261452D+02
 CCSD(T)
 CCSD(T)= -0.33899184527D+02

 The electronic state is 1-A'.
 Alpha  occ. eigenvalues --   -1.36383  -1.34590  -0.72026  -0.70230  -0.56241
 Alpha  occ. eigenvalues --   -0.54399  -0.50986  -0.49199
 Alpha virt. eigenvalues --    0.19391   0.21416   0.29741   0.31662   0.79570
 Alpha virt. eigenvalues --    0.81307   0.82338   0.84284   0.85567   0.87415
 Alpha virt. eigenvalues --    1.16607   1.18450   1.21017   1.23155   2.56545

 Mulliken charges:
               1
     1  O   -0.749625
     2  H    0.380127
     3  H    0.369420
     4  O   -0.748952
     5  H    0.374417
     6  H    0.374613
 Sum of Mulliken charges =  -0.00000

 Dipole moment (field-independent basis, Debye):
    X=              0.9084    Y=             -3.9348    Z=              0.0000  Tot=              4.0383
 Quadrupole moment (field-independent basis, Debye-Ang):
   XX=             -9.6783   YY=             -6.6620   ZZ=            -14.9929
   XY=              8.9862   XZ=              0.0000   YZ=              0.0000

 8034\MP4DQ=-33.8935534\MP4SDQ=-33.8955773\CCSD=-33.8966271\CCSD(T)=-33
 Normal termination of Gaussian 16 at Sun Dec 10 06:43:08 2023.
