 Gaussian 16, Revision A.03,
 Gaussian 16:  ES64L-G16RevA.03 25-Dec-2016

 ------------------
 #p CCSD(T)/CEP-31G
 ------------------

 ------------
 H2O_H2O_1415
 ------------
 Symbolic Z-matrix:
 Charge =  0 Multiplicity = 1

                         Standard orientation:
 ---------------------------------------------------------------------
 Center     Atomic      Atomic             Coordinates (Angstroms)
 Number     Number       Type             X           Y           Z
 ---------------------------------------------------------------------
      1          8           0        0.044930    1.671133    0.000000
      2          1           0        0.042348    0.688535    0.000000
      3          1           0       -0.883723    1.992240    0.000000
      4          8           0        0.044930   -1.490804   -0.000000
      5          1           0        0.860496   -2.038853   -0.000000
      6          1           0       -0.737994   -2.084552   -0.000000
 ---------------------------------------------------------------------

 SCF Done:  E(RHF) =  -33.6618288793     A.U. after   11 cycles
 E2 =    -0.2289014485D+00 EUMP2 =    -0.33890730327745D+02
 CCSD(T)
 CCSD(T)= -0.33907450038D+02

 The electronic state is 1-A'.
 Alpha  occ. eigenvalues --   -1.38088  -1.32112  -0.73715  -0.68094  -0.58633
 Alpha  occ. eigenvalues --   -0.52801  -0.51872  -0.46781
 Alpha virt. eigenvalues --    0.17890   0.25430   0.28509   0.40074   0.76880
 Alpha virt. eigenvalues --    0.79943   0.84682   0.86054   0.91839   0.98013
 Alpha virt. eigenvalues --    1.15115   1.19565   1.21407   1.34004   2.49648

 Mulliken charges:
               1
     1  O   -0.782334
     2  H    0.426217
     3  H    0.354777
     4  O   -0.785423
     5  H    0.396622
     6  H    0.390141
 Sum of Mulliken charges =   0.00000

 Dipole moment (field-independent basis, Debye):
    X=             -1.9981    Y=             -4.5759    Z=             -0.0000  Tot=              4.9931
 Quadrupole moment (field-independent basis, Debye-Ang):
   XX=             -9.3984   YY=             -8.1701   ZZ=            -15.0107
   XY=             -4.6940   XZ=             -0.0000   YZ=              0.0000

 559\MP4DQ=-33.9016695\MP4SDQ=-33.9037604\CCSD=-33.9047541\CCSD(T)=-33.
 Normal termination of Gaussian 16 at Sun Dec 10 06:45:23 2023.
