 Gaussian 16, Revision A.03,
 Gaussian 16:  ES64L-G16RevA.03 25-Dec-2016

 ------------------
 #p CCSD(T)/CEP-31G
 ------------------

 ------------
 H2O_H2O_4326
 ------------
 Symbolic Z-matrix:
 Charge =  0 Multiplicity = 1

                         Standard orientation:
 ---------------------------------------------------------------------
 Center     Atomic      Atomic             Coordinates (Angstroms)
 Number     Number       Type             X           Y           Z
 ---------------------------------------------------------------------
      1          8           0        0.090684   -2.815234    0.000000
      2          1           0        0.090613   -1.832632    0.000000
      3          1           0       -0.838787   -3.133966    0.000000
      4          8           0        0.090684    2.676523    0.000000
      5          1           0        0.154879    3.657025    0.000000
      6          1           0       -0.857643    2.419262    0.000000
 ---------------------------------------------------------------------

 SCF Done:  E(RHF) =  -33.6521181131     A.U. after   11 cycles
 E2 =    -0.2283570831D+00 EUMP2 =    -0.33880475196210D+02
 CCSD(T)
 CCSD(T)= -0.33897468105D+02

 The electronic state is 1-A'.
 Alpha  occ. eigenvalues --   -1.36340  -1.35104  -0.71989  -0.70721  -0.56100
 Alpha  occ. eigenvalues --   -0.54841  -0.50914  -0.49677
 Alpha virt. eigenvalues --    0.19322   0.20811   0.29693   0.30986   0.79651
 Alpha virt. eigenvalues --    0.80864   0.82599   0.83881   0.85660   0.87081
 Alpha virt. eigenvalues --    1.16551   1.17835   1.21028   1.22365   2.56372

 Mulliken charges:
               1
     1  O   -0.742483
     2  H    0.375380
     3  H    0.367093
     4  O   -0.742828
     5  H    0.374833
     6  H    0.368005
 Sum of Mulliken charges =  -0.00000

 Dipole moment (field-independent basis, Debye):
    X=             -4.1699    Y=              3.2601    Z=              0.0000  Tot=              5.2930
 Quadrupole moment (field-independent basis, Debye-Ang):
   XX=            -11.1270   YY=             -9.0512   ZZ=            -14.9886
   XY=              2.6396   XZ=              0.0000   YZ=              0.0000

 0832\MP4DQ=-33.8918246\MP4SDQ=-33.893852\CCSD=-33.8949063\CCSD(T)=-33.
 Normal termination of Gaussian 16 at Sun Dec 10 06:50:52 2023.
