 Gaussian 16, Revision A.03,
 Gaussian 16:  ES64L-G16RevA.03 25-Dec-2016

 ------------------
 #p CCSD(T)/CEP-31G
 ------------------

 ------------
 H2O_H2O_2406
 ------------
 Symbolic Z-matrix:
 Charge =  0 Multiplicity = 1

                         Standard orientation:
 ---------------------------------------------------------------------
 Center     Atomic      Atomic             Coordinates (Angstroms)
 Number     Number       Type             X           Y           Z
 ---------------------------------------------------------------------
      1          8           0        0.076765    2.060695   -0.000000
      2          1           0        0.076071    1.078094   -0.000000
      3          1           0       -0.852502    2.380018    0.000000
      4          8           0        0.076765   -1.897500   -0.000000
      5          1           0        0.452150   -2.805571   -0.000000
      6          1           0       -0.903966   -1.958099    0.000000
 ---------------------------------------------------------------------

 SCF Done:  E(RHF) =  -33.6549551578     A.U. after   11 cycles
 E2 =    -0.2285172788D+00 EUMP2 =    -0.33883472436687D+02
 CCSD(T)
 CCSD(T)= -0.33900422822D+02

 The electronic state is 1-A'.
 Alpha  occ. eigenvalues --   -1.37106  -1.33990  -0.72786  -0.69576  -0.57048
 Alpha  occ. eigenvalues --   -0.53765  -0.51714  -0.48590
 Alpha virt. eigenvalues --    0.17827   0.22918   0.29061   0.33045   0.78793
 Alpha virt. eigenvalues --    0.81994   0.83236   0.84924   0.87172   0.88376
 Alpha virt. eigenvalues --    1.15774   1.19486   1.20419   1.30987   2.54602

 Mulliken charges:
               1
     1  O   -0.754750
     2  H    0.392275
     3  H    0.360863
     4  O   -0.752693
     5  H    0.383266
     6  H    0.371039
 Sum of Mulliken charges =  -0.00000

 Dipole moment (field-independent basis, Debye):
    X=             -3.4898    Y=             -3.9646    Z=              0.0000  Tot=              5.2818
 Quadrupole moment (field-independent basis, Debye-Ang):
   XX=            -10.3300   YY=             -7.8554   ZZ=            -14.9940
   XY=             -3.7564   XZ=             -0.0000   YZ=              0.0000

 9873\MP4DQ=-33.8947325\MP4SDQ=-33.896798\CCSD=-33.8978303\CCSD(T)=-33.
 Normal termination of Gaussian 16 at Sun Dec 10 07:05:44 2023.
