 Gaussian 16, Revision A.03,
 Gaussian 16:  ES64L-G16RevA.03 25-Dec-2016

 ------------------
 #p CCSD(T)/CEP-31G
 ------------------

 -----------
 H2O_H2O_734
 -----------
 Symbolic Z-matrix:
 Charge =  0 Multiplicity = 1

                         Standard orientation:
 ---------------------------------------------------------------------
 Center     Atomic      Atomic             Coordinates (Angstroms)
 Number     Number       Type             X           Y           Z
 ---------------------------------------------------------------------
      1          8           0        0.066823    1.397911   -0.000000
      2          1           0        0.065128    0.415311   -0.000000
      3          1           0       -0.862119    1.718180   -0.000000
      4          8           0        0.066823   -1.224903    0.000000
      5          1           0        0.611317   -2.042847    0.000000
      6          1           0       -0.883496   -1.474702    0.000000
 ---------------------------------------------------------------------

 SCF Done:  E(RHF) =  -33.6574698942     A.U. after   11 cycles
 E2 =    -0.2290563122D+00 EUMP2 =    -0.33886526206414D+02
 CCSD(T)
 CCSD(T)= -0.33902741067D+02

 The electronic state is 1-A'.
 Alpha  occ. eigenvalues --   -1.40024  -1.30668  -0.75783  -0.69247  -0.59070
 Alpha  occ. eigenvalues --   -0.54630  -0.49877  -0.45182
 Alpha virt. eigenvalues --    0.17082   0.26676   0.27575   0.49591   0.74523
 Alpha virt. eigenvalues --    0.76175   0.85239   0.87736   0.96003   1.05844
 Alpha virt. eigenvalues --    1.16068   1.18762   1.22851   1.36536   2.60583

 Mulliken charges:
               1
     1  O   -0.767982
     2  H    0.424252
     3  H    0.335228
     4  O   -0.824922
     5  H    0.439823
     6  H    0.393600
 Sum of Mulliken charges =  -0.00000

 Dipole moment (field-independent basis, Debye):
    X=             -2.8605    Y=             -4.7447    Z=              0.0000  Tot=              5.5403
 Quadrupole moment (field-independent basis, Debye-Ang):
   XX=             -9.8793   YY=             -9.2393   ZZ=            -15.0100
   XY=             -3.6097   XZ=              0.0000   YZ=             -0.0000

 302\MP4DQ=-33.8967821\MP4SDQ=-33.8989708\CCSD=-33.8998543\CCSD(T)=-33.
 Normal termination of Gaussian 16 at Sun Dec 10 06:32:19 2023.
