 Gaussian 16, Revision A.03,
 Gaussian 16:  ES64L-G16RevA.03 25-Dec-2016

 ------------------
 #p CCSD(T)/CEP-31G
 ------------------

 ------------
 H2O_H2O_1444
 ------------
 Symbolic Z-matrix:
 Charge =  0 Multiplicity = 1

                         Standard orientation:
 ---------------------------------------------------------------------
 Center     Atomic      Atomic             Coordinates (Angstroms)
 Number     Number       Type             X           Y           Z
 ---------------------------------------------------------------------
      1          8           0        0.030278    1.678510   -0.000000
      2          1           0        0.026929    0.695914   -0.000000
      3          1           0       -0.898124    2.000342   -0.000000
      4          8           0        0.030278   -1.502964    0.000000
      5          1           0        0.959651   -1.821979    0.000000
      6          1           0       -0.572900   -2.278646    0.000000
 ---------------------------------------------------------------------

 SCF Done:  E(RHF) =  -33.6618017622     A.U. after   11 cycles
 E2 =    -0.2287949335D+00 EUMP2 =    -0.33890596695687D+02
 CCSD(T)
 CCSD(T)= -0.33907348826D+02

 The electronic state is 1-A'.
 Alpha  occ. eigenvalues --   -1.38023  -1.32260  -0.73688  -0.68194  -0.58566
 Alpha  occ. eigenvalues --   -0.52729  -0.52050  -0.46945
 Alpha virt. eigenvalues --    0.17893   0.25373   0.28562   0.39609   0.76956
 Alpha virt. eigenvalues --    0.80084   0.84500   0.86417   0.90451   1.00243
 Alpha virt. eigenvalues --    1.15307   1.18840   1.21712   1.34945   2.50052

 Mulliken charges:
               1
     1  O   -0.782814
     2  H    0.421632
     3  H    0.358993
     4  O   -0.785619
     5  H    0.391550
     6  H    0.396259
 Sum of Mulliken charges =  -0.00000

 Dipole moment (field-independent basis, Debye):
    X=             -1.3537    Y=             -4.4514    Z=              0.0000  Tot=              4.6527
 Quadrupole moment (field-independent basis, Debye-Ang):
   XX=             -9.4417   YY=             -8.2127   ZZ=            -15.0102
   XY=             -5.2043   XZ=              0.0000   YZ=             -0.0000

 8492\MP4DQ=-33.9015696\MP4SDQ=-33.9036649\CCSD=-33.9046635\CCSD(T)=-33
 Normal termination of Gaussian 16 at Sun Dec 10 06:45:58 2023.
