 Gaussian 16, Revision A.03,
 Gaussian 16:  ES64L-G16RevA.03 25-Dec-2016

 ------------------
 #p CCSD(T)/CEP-31G
 ------------------

 -----------
 H2O_H2O_432
 -----------
 Symbolic Z-matrix:
 Charge =  0 Multiplicity = 1

                         Standard orientation:
 ---------------------------------------------------------------------
 Center     Atomic      Atomic             Coordinates (Angstroms)
 Number     Number       Type             X           Y           Z
 ---------------------------------------------------------------------
      1          8           0        0.073591    1.274898    0.000000
      2          1           0        0.072209    0.292298    0.000000
      3          1           0       -0.855452    1.594873    0.000000
      4          8           0        0.073591   -1.108055    0.000000
      5          1           0        0.506944   -1.989935    0.000000
      6          1           0       -0.901164   -1.231985    0.000000
 ---------------------------------------------------------------------

 SCF Done:  E(RHF) =  -33.6423366871     A.U. after   11 cycles
 E2 =    -0.2287009722D+00 EUMP2 =    -0.33871037659319D+02
 CCSD(T)
 CCSD(T)= -0.33886788477D+02

 The electronic state is 1-A'.
 Alpha  occ. eigenvalues --   -1.41952  -1.29734  -0.78253  -0.71122  -0.57997
 Alpha  occ. eigenvalues --   -0.56138  -0.48382  -0.44062
 Alpha virt. eigenvalues --    0.16589   0.25557   0.28509   0.55307   0.73660
 Alpha virt. eigenvalues --    0.75331   0.86120   0.89270   0.96655   1.07083
 Alpha virt. eigenvalues --    1.14861   1.22806   1.24043   1.35691   2.77044

 Mulliken charges:
               1
     1  O   -0.741341
     2  H    0.385272
     3  H    0.321936
     4  O   -0.831782
     5  H    0.468585
     6  H    0.397329
 Sum of Mulliken charges =  -0.00000

 Dipole moment (field-independent basis, Debye):
    X=             -3.0773    Y=             -4.8923    Z=              0.0000  Tot=              5.7796
 Quadrupole moment (field-independent basis, Debye-Ang):
   XX=            -10.1651   YY=             -9.7689   ZZ=            -14.9855
   XY=             -3.2460   XZ=              0.0000   YZ=              0.0000

 57\MP4DQ=-33.8806837\MP4SDQ=-33.8829769\CCSD=-33.8837689\CCSD(T)=-33.8
 Normal termination of Gaussian 16 at Sun Dec 10 06:26:33 2023.
