 Gaussian 16, Revision A.03,
 Gaussian 16:  ES64L-G16RevA.03 25-Dec-2016

 ------------------
 #p CCSD(T)/CEP-31G
 ------------------

 ------------
 H2O_H2O_1337
 ------------
 Symbolic Z-matrix:
 Charge =  0 Multiplicity = 1

                         Standard orientation:
 ---------------------------------------------------------------------
 Center     Atomic      Atomic             Coordinates (Angstroms)
 Number     Number       Type             X           Y           Z
 ---------------------------------------------------------------------
      1          8           0        0.056048    1.640404   -0.000000
      2          1           0        0.054025    0.657804   -0.000000
      3          1           0       -0.872787    1.960983   -0.000000
      4          8           0        0.056048   -1.461568    0.000000
      5          1           0        0.749420   -2.157801    0.000000
      6          1           0       -0.827423   -1.891669    0.000000
 ---------------------------------------------------------------------

 SCF Done:  E(RHF) =  -33.6614023730     A.U. after   11 cycles
 E2 =    -0.2289744749D+00 EUMP2 =    -0.33890376847895D+02
 CCSD(T)
 CCSD(T)= -0.33907089843D+02

 The electronic state is 1-A'.
 Alpha  occ. eigenvalues --   -1.38245  -1.32060  -0.73888  -0.68112  -0.58742
 Alpha  occ. eigenvalues --   -0.52948  -0.51769  -0.46707
 Alpha virt. eigenvalues --    0.17751   0.25535   0.28353   0.40793   0.76624
 Alpha virt. eigenvalues --    0.79590   0.84922   0.85701   0.92569   0.99736
 Alpha virt. eigenvalues --    1.14958   1.19467   1.21321   1.34519   2.49827

 Mulliken charges:
               1
     1  O   -0.780330
     2  H    0.427750
     3  H    0.351472
     4  O   -0.788135
     5  H    0.403007
     6  H    0.386236
 Sum of Mulliken charges =   0.00000

 Dipole moment (field-independent basis, Debye):
    X=             -2.4814    Y=             -4.5683    Z=              0.0000  Tot=              5.1987
 Quadrupole moment (field-independent basis, Debye-Ang):
   XX=             -9.5650   YY=             -8.2987   ZZ=            -15.0102
   XY=             -4.2897   XZ=              0.0000   YZ=             -0.0000

 819\MP4DQ=-33.9012878\MP4SDQ=-33.9033896\CCSD=-33.9043775\CCSD(T)=-33.
 Normal termination of Gaussian 16 at Sun Dec 10 06:43:50 2023.
