 Gaussian 16, Revision A.03,
 Gaussian 16:  ES64L-G16RevA.03 25-Dec-2016

 ------------------
 #p CCSD(T)/CEP-31G
 ------------------

 ------------
 H2O_H2O_1781
 ------------
 Symbolic Z-matrix:
 Charge =  0 Multiplicity = 1

                         Standard orientation:
 ---------------------------------------------------------------------
 Center     Atomic      Atomic             Coordinates (Angstroms)
 Number     Number       Type             X           Y           Z
 ---------------------------------------------------------------------
      1          8           0        0.076774    1.811389    0.000000
      2          1           0        0.075979    0.828788    0.000000
      3          1           0       -0.852461    2.130807   -0.000000
      4          8           0        0.076774   -1.648210    0.000000
      5          1           0        0.452065   -2.556319    0.000000
      6          1           0       -0.903964   -1.708709   -0.000000
 ---------------------------------------------------------------------

 SCF Done:  E(RHF) =  -33.6566504493     A.U. after   11 cycles
 E2 =    -0.2287746188D+00 EUMP2 =    -0.33885425068120D+02
 CCSD(T)
 CCSD(T)= -0.33902379117D+02

 The electronic state is 1-A'.
 Alpha  occ. eigenvalues --   -1.37670  -1.33400  -0.73399  -0.69006  -0.57783
 Alpha  occ. eigenvalues --   -0.53144  -0.52290  -0.48003
 Alpha virt. eigenvalues --    0.17477   0.24136   0.28628   0.35887   0.77800
 Alpha virt. eigenvalues --    0.82034   0.83040   0.85233   0.89352   0.96411
 Alpha virt. eigenvalues --    1.15229   1.19090   1.20804   1.36628   2.51497

 Mulliken charges:
               1
     1  O   -0.763022
     2  H    0.404786
     3  H    0.355731
     4  O   -0.763539
     5  H    0.393251
     6  H    0.372793
 Sum of Mulliken charges =  -0.00000

 Dipole moment (field-independent basis, Debye):
    X=             -3.4579    Y=             -4.0710    Z=             -0.0000  Tot=              5.3413
 Quadrupole moment (field-independent basis, Debye-Ang):
   XX=            -10.3375   YY=             -8.2613   ZZ=            -14.9972
   XY=             -3.5674   XZ=              0.0000   YZ=             -0.0000

 MP4DQ=-33.8966098\MP4SDQ=-33.8987154\CCSD=-33.8997364\CCSD(T)=-33.9023
 Normal termination of Gaussian 16 at Sun Dec 10 06:52:30 2023.
