 Gaussian 16, Revision A.03,
 Gaussian 16:  ES64L-G16RevA.03 25-Dec-2016

 ------------------
 #p CCSD(T)/CEP-31G
 ------------------

 -----------
 H2O_H2O_367
 -----------
 Symbolic Z-matrix:
 Charge =  0 Multiplicity = 1

                         Standard orientation:
 ---------------------------------------------------------------------
 Center     Atomic      Atomic             Coordinates (Angstroms)
 Number     Number       Type             X           Y           Z
 ---------------------------------------------------------------------
      1          8           0        0.037626    1.251496   -0.000000
      2          1           0        0.033572    0.268903   -0.000000
      3          1           0       -0.890545    1.573995    0.000000
      4          8           0        0.037626   -1.072683   -0.000000
      5          1           0        0.917094   -1.510908   -0.000000
      6          1           0       -0.662134   -1.762496    0.000000
 ---------------------------------------------------------------------

 SCF Done:  E(RHF) =  -33.6440780555     A.U. after   11 cycles
 E2 =    -0.2284437251D+00 EUMP2 =    -0.33872521780601D+02
 CCSD(T)
 CCSD(T)= -0.33887734226D+02

 The electronic state is 1-A'.
 Alpha  occ. eigenvalues --   -1.42293  -1.28358  -0.77324  -0.73504  -0.57297
 Alpha  occ. eigenvalues --   -0.56613  -0.46655  -0.42704
 Alpha virt. eigenvalues --    0.16903   0.26283   0.29017   0.58048   0.73662
 Alpha virt. eigenvalues --    0.73791   0.86357   0.90256   0.94110   1.01355
 Alpha virt. eigenvalues --    1.14932   1.17737   1.26243   1.36230   2.77533

 Mulliken charges:
               1
     1  O   -0.768635
     2  H    0.394804
     3  H    0.327018
     4  O   -0.831030
     5  H    0.434576
     6  H    0.443268
 Sum of Mulliken charges =  -0.00000

 Dipole moment (field-independent basis, Debye):
    X=             -1.5968    Y=             -5.2614    Z=              0.0000  Tot=              5.4983
 Quadrupole moment (field-independent basis, Debye-Ang):
   XX=             -9.3025   YY=            -10.0499   ZZ=            -14.9938
   XY=             -3.7003   XZ=             -0.0000   YZ=              0.0000

 \MP4DQ=-33.8817088\MP4SDQ=-33.8839257\CCSD=-33.884649\CCSD(T)=-33.8877
 Normal termination of Gaussian 16 at Sun Dec 10 06:25:17 2023.
