 Gaussian 16, Revision A.03,
 Gaussian 16:  ES64L-G16RevA.03 25-Dec-2016

 ------------------
 #p CCSD(T)/CEP-31G
 ------------------

 ------------
 H2O_H2O_4142
 ------------
 Symbolic Z-matrix:
 Charge =  0 Multiplicity = 1

                         Standard orientation:
 ---------------------------------------------------------------------
 Center     Atomic      Atomic             Coordinates (Angstroms)
 Number     Number       Type             X           Y           Z
 ---------------------------------------------------------------------
      1          8           0        0.037417    2.757340    0.000000
      2          1           0        0.035652    1.774740    0.000000
      3          1           0       -0.891501    3.077676    0.000000
      4          8           0        0.037417   -2.578352    0.000000
      5          1           0        0.917904   -3.014528    0.000000
      6          1           0       -0.660734   -3.269792    0.000000
 ---------------------------------------------------------------------

 SCF Done:  E(RHF) =  -33.6537125935     A.U. after   11 cycles
 E2 =    -0.2282864571D+00 EUMP2 =    -0.33881999050560D+02
 CCSD(T)
 CCSD(T)= -0.33898945030D+02

 The electronic state is 1-A'.
 Alpha  occ. eigenvalues --   -1.36327  -1.34549  -0.71967  -0.70181  -0.56173
 Alpha  occ. eigenvalues --   -0.54346  -0.50927  -0.49152
 Alpha virt. eigenvalues --    0.19509   0.21399   0.29797   0.31675   0.79627
 Alpha virt. eigenvalues --    0.81357   0.82421   0.84352   0.85653   0.87460
 Alpha virt. eigenvalues --    1.16657   1.18449   1.21092   1.23014   2.56612

 Mulliken charges:
               1
     1  O   -0.748623
     2  H    0.380320
     3  H    0.368261
     4  O   -0.747866
     5  H    0.374788
     6  H    0.373121
 Sum of Mulliken charges =   0.00000

 Dipole moment (field-independent basis, Debye):
    X=             -1.7159    Y=             -4.2079    Z=              0.0000  Tot=              4.5443
 Quadrupole moment (field-independent basis, Debye-Ang):
   XX=             -9.4154   YY=             -5.5410   ZZ=            -14.9925
   XY=             -7.7708   XZ=              0.0000   YZ=              0.0000

 5647\MP4DQ=-33.8933137\MP4SDQ=-33.8953373\CCSD=-33.8963881\CCSD(T)=-33
 Normal termination of Gaussian 16 at Sun Dec 10 06:47:33 2023.
