 Gaussian 16, Revision A.03,
 Gaussian 16:  ES64L-G16RevA.03 25-Dec-2016

 ------------------
 #p CCSD(T)/CEP-31G
 ------------------

 -----------
 H2O_H2O_325
 -----------
 Symbolic Z-matrix:
 Charge =  0 Multiplicity = 1

                         Standard orientation:
 ---------------------------------------------------------------------
 Center     Atomic      Atomic             Coordinates (Angstroms)
 Number     Number       Type             X           Y           Z
 ---------------------------------------------------------------------
      1          8           0        0.092949   -1.216507    0.000000
      2          1           0        0.092949   -0.233905    0.000000
      3          1           0       -0.836544   -1.535173    0.000000
      4          8           0        0.092949    1.083720    0.000000
      5          1           0        0.092949    2.066321    0.000000
      6          1           0       -0.836544    0.765052    0.000000
 ---------------------------------------------------------------------

 SCF Done:  E(RHF) =  -33.6113559995     A.U. after   11 cycles
 E2 =    -0.2290861148D+00 EUMP2 =    -0.33840442114341D+02
 CCSD(T)
 CCSD(T)= -0.33856506650D+02

 The electronic state is 1-A'.
 Alpha  occ. eigenvalues --   -1.43792  -1.31234  -0.82131  -0.69041  -0.58663
 Alpha  occ. eigenvalues --   -0.56813  -0.49879  -0.45436
 Alpha virt. eigenvalues --    0.16218   0.23844   0.28854   0.55424   0.73079
 Alpha virt. eigenvalues --    0.77038   0.87228   0.88697   0.94533   1.11361
 Alpha virt. eigenvalues --    1.12415   1.24475   1.27207   1.46934   2.75099

 Mulliken charges:
               1
     1  O   -0.675024
     2  H    0.264344
     3  H    0.320580
     4  O   -0.745347
     5  H    0.466066
     6  H    0.369381
 Sum of Mulliken charges =  -0.00000

 Dipole moment (field-independent basis, Debye):
    X=             -3.9545    Y=              4.1704    Z=              0.0000  Tot=              5.7472
 Quadrupole moment (field-independent basis, Debye-Ang):
   XX=            -11.3666   YY=            -10.2210   ZZ=            -14.9349
   XY=              2.1224   XZ=              0.0000   YZ=              0.0000

 59\MP4DQ=-33.8501411\MP4SDQ=-33.8526419\CCSD=-33.8533734\CCSD(T)=-33.8
 Normal termination of Gaussian 16 at Sun Dec 10 06:24:28 2023.
