 Gaussian 16, Revision A.03,
 Gaussian 16:  ES64L-G16RevA.03 25-Dec-2016

 ------------------
 #p CCSD(T)/CEP-31G
 ------------------

 ------------
 H2O_H2O_2278
 ------------
 Symbolic Z-matrix:
 Charge =  0 Multiplicity = 1

                         Standard orientation:
 ---------------------------------------------------------------------
 Center     Atomic      Atomic             Coordinates (Angstroms)
 Number     Number       Type             X           Y           Z
 ---------------------------------------------------------------------
      1          8           0        0.085605   -2.003444    0.000000
      2          1           0        0.085281   -1.020842    0.000000
      3          1           0       -0.843784   -2.322416    0.000000
      4          8           0        0.085605    1.853855    0.000000
      5          1           0        0.276984    2.817639    0.000000
      6          1           0       -0.888154    1.722327    0.000000
 ---------------------------------------------------------------------

 SCF Done:  E(RHF) =  -33.6540494982     A.U. after   11 cycles
 E2 =    -0.2286073768D+00 EUMP2 =    -0.33882656874904D+02
 CCSD(T)
 CCSD(T)= -0.33899646519D+02

 The electronic state is 1-A'.
 Alpha  occ. eigenvalues --   -1.37225  -1.34246  -0.72935  -0.69813  -0.57119
 Alpha  occ. eigenvalues --   -0.53988  -0.51814  -0.48828
 Alpha virt. eigenvalues --    0.17253   0.23073   0.28936   0.33068   0.78637
 Alpha virt. eigenvalues --    0.81850   0.82914   0.84698   0.88003   0.89242
 Alpha virt. eigenvalues --    1.15507   1.19100   1.20481   1.33071   2.54778

 Mulliken charges:
               1
     1  O   -0.751705
     2  H    0.389866
     3  H    0.360191
     4  O   -0.750741
     5  H    0.384270
     6  H    0.368118
 Sum of Mulliken charges =   0.00000

 Dipole moment (field-independent basis, Debye):
    X=             -3.8910    Y=              3.6487    Z=              0.0000  Tot=              5.3341
 Quadrupole moment (field-independent basis, Debye-Ang):
   XX=            -10.8238   YY=             -8.6242   ZZ=            -14.9913
   XY=              3.0211   XZ=              0.0000   YZ=              0.0000

 1958\MP4DQ=-33.8939348\MP4SDQ=-33.8960115\CCSD=-33.8970428\CCSD(T)=-33
 Normal termination of Gaussian 16 at Sun Dec 10 07:03:21 2023.
