 Gaussian 16, Revision A.03,
 Gaussian 16:  ES64L-G16RevA.03 25-Dec-2016

 ------------------
 #p CCSD(T)/CEP-31G
 ------------------

 ------------
 H2O_H2O_1292
 ------------
 Symbolic Z-matrix:
 Charge =  0 Multiplicity = 1

                         Standard orientation:
 ---------------------------------------------------------------------
 Center     Atomic      Atomic             Coordinates (Angstroms)
 Number     Number       Type             X           Y           Z
 ---------------------------------------------------------------------
      1          8           0        0.037537    1.620493    0.000000
      2          1           0        0.034460    0.637896    0.000000
      3          1           0       -0.890954    1.942068   -0.000000
      4          8           0        0.037537   -1.441604    0.000000
      5          1           0        0.917440   -1.878956    0.000000
      6          1           0       -0.661537   -2.132113   -0.000000
 ---------------------------------------------------------------------

 SCF Done:  E(RHF) =  -33.6626537523     A.U. after   11 cycles
 E2 =    -0.2289207178D+00 EUMP2 =    -0.33891574470123D+02
 CCSD(T)
 CCSD(T)= -0.33908231675D+02

 The electronic state is 1-A'.
 Alpha  occ. eigenvalues --   -1.38294  -1.31853  -0.73922  -0.68034  -0.58885
 Alpha  occ. eigenvalues --   -0.53019  -0.51580  -0.46530
 Alpha virt. eigenvalues --    0.17835   0.25791   0.28380   0.41486   0.76484
 Alpha virt. eigenvalues --    0.79127   0.85173   0.86180   0.92151   1.00202
 Alpha virt. eigenvalues --    1.15134   1.19005   1.21961   1.34533   2.50100

 Mulliken charges:
               1
     1  O   -0.785274
     2  H    0.428817
     3  H    0.354870
     4  O   -0.793039
     5  H    0.397112
     6  H    0.397513
 Sum of Mulliken charges =  -0.00000

 Dipole moment (field-independent basis, Debye):
    X=             -1.6684    Y=             -4.5816    Z=             -0.0000  Tot=              4.8760
 Quadrupole moment (field-independent basis, Debye-Ang):
   XX=             -9.3768   YY=             -8.3580   ZZ=            -15.0134
   XY=             -4.7873   XZ=              0.0000   YZ=             -0.0000

 284\MP4DQ=-33.9024343\MP4SDQ=-33.9045308\CCSD=-33.9055122\CCSD(T)=-33.
 Normal termination of Gaussian 16 at Sun Dec 10 06:42:57 2023.
