 Gaussian 16, Revision A.03,
 Gaussian 16:  ES64L-G16RevA.03 25-Dec-2016

 ------------------
 #p CCSD(T)/CEP-31G
 ------------------

 ------------
 H2O_H2O_1569
 ------------
 Symbolic Z-matrix:
 Charge =  0 Multiplicity = 1

                         Standard orientation:
 ---------------------------------------------------------------------
 Center     Atomic      Atomic             Coordinates (Angstroms)
 Number     Number       Type             X           Y           Z
 ---------------------------------------------------------------------
      1          8           0        0.030269    1.728372    0.000000
      2          1           0        0.027022    0.745776    0.000000
      3          1           0       -0.898166    2.050108   -0.000000
      4          8           0        0.030269   -1.552820    0.000000
      5          1           0        0.959675   -1.871740    0.000000
      6          1           0       -0.572829   -2.328564   -0.000000
 ---------------------------------------------------------------------

 SCF Done:  E(RHF) =  -33.6611132416     A.U. after   11 cycles
 E2 =    -0.2287413324D+00 EUMP2 =    -0.33889854573987D+02
 CCSD(T)
 CCSD(T)= -0.33906649301D+02

 The electronic state is 1-A'.
 Alpha  occ. eigenvalues --   -1.37839  -1.32496  -0.73502  -0.68324  -0.58316
 Alpha  occ. eigenvalues --   -0.52535  -0.52317  -0.47180
 Alpha virt. eigenvalues --    0.17945   0.25047   0.28696   0.38366   0.77318
 Alpha virt. eigenvalues --    0.80756   0.84056   0.86443   0.89780   0.98195
 Alpha virt. eigenvalues --    1.15379   1.19157   1.21417   1.34795   2.50192

 Mulliken charges:
               1
     1  O   -0.780363
     2  H    0.417846
     3  H    0.360268
     4  O   -0.779721
     5  H    0.389402
     6  H    0.392567
 Sum of Mulliken charges =  -0.00000

 Dipole moment (field-independent basis, Debye):
    X=             -1.3556    Y=             -4.4158    Z=             -0.0000  Tot=              4.6192
 Quadrupole moment (field-independent basis, Debye-Ang):
   XX=             -9.4460   YY=             -8.0681   ZZ=            -15.0081
   XY=             -5.3597   XZ=              0.0000   YZ=             -0.0000

 1583\MP4DQ=-33.9008866\MP4SDQ=-33.9029774\CCSD=-33.9039845\CCSD(T)=-33
 Normal termination of Gaussian 16 at Sun Dec 10 06:48:28 2023.
