 Gaussian 16, Revision A.03,
 Gaussian 16:  ES64L-G16RevA.03 25-Dec-2016

 ------------------
 #p CCSD(T)/CEP-31G
 ------------------

 -----------
 H2O_H2O_200
 -----------
 Symbolic Z-matrix:
 Charge =  0 Multiplicity = 1

                         Standard orientation:
 ---------------------------------------------------------------------
 Center     Atomic      Atomic             Coordinates (Angstroms)
 Number     Number       Type             X           Y           Z
 ---------------------------------------------------------------------
      1          8           0        0.092949   -1.166647    0.000000
      2          1           0        0.092949   -0.184046    0.000000
      3          1           0       -0.836544   -1.485314    0.000000
      4          8           0        0.092949    1.033860    0.000000
      5          1           0        0.092950    2.016462    0.000000
      6          1           0       -0.836544    0.715193    0.000000
 ---------------------------------------------------------------------

 SCF Done:  E(RHF) =  -33.5908424653     A.U. after   11 cycles
 E2 =    -0.2289371755D+00 EUMP2 =    -0.33819779640798D+02
 CCSD(T)
 CCSD(T)= -0.33835511883D+02

 The electronic state is 1-A'.
 Alpha  occ. eigenvalues --   -1.45531  -1.30534  -0.84038  -0.69850  -0.57825
 Alpha  occ. eigenvalues --   -0.57792  -0.48821  -0.44658
 Alpha virt. eigenvalues --    0.16111   0.23232   0.29384   0.57852   0.72932
 Alpha virt. eigenvalues --    0.76578   0.88550   0.89362   0.95127   1.11192
 Alpha virt. eigenvalues --    1.11909   1.23222   1.26187   1.48853   2.83983

 Mulliken charges:
               1
     1  O   -0.660770
     2  H    0.221486
     3  H    0.312837
     4  O   -0.722851
     5  H    0.477053
     6  H    0.372245
 Sum of Mulliken charges =   0.00000

 Dipole moment (field-independent basis, Debye):
    X=             -3.9075    Y=              4.3580    Z=              0.0000  Tot=              5.8532
 Quadrupole moment (field-independent basis, Debye-Ang):
   XX=            -11.3491   YY=            -10.4241   ZZ=            -14.9057
   XY=              2.0883   XZ=              0.0000   YZ=              0.0000

 854\MP4DQ=-33.8290424\MP4SDQ=-33.8316188\CCSD=-33.8322813\CCSD(T)=-33.
 Normal termination of Gaussian 16 at Sun Dec 10 06:21:59 2023.
