 Gaussian 16, Revision A.03,
 Gaussian 16:  ES64L-G16RevA.03 25-Dec-2016

 ------------------
 #p CCSD(T)/CEP-31G
 ------------------

 ------------
 H2O_H2O_3361
 ------------
 Symbolic Z-matrix:
 Charge =  0 Multiplicity = 1

                         Standard orientation:
 ---------------------------------------------------------------------
 Center     Atomic      Atomic             Coordinates (Angstroms)
 Number     Number       Type             X           Y           Z
 ---------------------------------------------------------------------
      1          8           0        0.059636    2.447373    0.000000
      2          1           0        0.058437    1.464772    0.000000
      3          1           0       -0.869467    2.767173    0.000000
      4          8           0        0.059636   -2.269922   -0.000000
      5          1           0        0.706609   -3.009471   -0.000000
      6          1           0       -0.849760   -2.642084   -0.000000
 ---------------------------------------------------------------------

 SCF Done:  E(RHF) =  -33.6542550232     A.U. after   11 cycles
 E2 =    -0.2283140769D+00 EUMP2 =    -0.33882569100089D+02
 CCSD(T)
 CCSD(T)= -0.33899500271D+02

 The electronic state is 1-A'.
 Alpha  occ. eigenvalues --   -1.36577  -1.34271  -0.72224  -0.69888  -0.56457
 Alpha  occ. eigenvalues --   -0.54069  -0.51184  -0.48876
 Alpha virt. eigenvalues --    0.19071   0.21861   0.29555   0.32044   0.79385
 Alpha virt. eigenvalues --    0.81619   0.82260   0.84675   0.85341   0.87843
 Alpha virt. eigenvalues --    1.16427   1.18869   1.20834   1.24206   2.56374

 Mulliken charges:
               1
     1  O   -0.750758
     2  H    0.384875
     3  H    0.365508
     4  O   -0.749626
     5  H    0.377565
     6  H    0.372436
 Sum of Mulliken charges =  -0.00000

 Dipole moment (field-independent basis, Debye):
    X=             -2.7267    Y=             -4.2131    Z=             -0.0000  Tot=              5.0185
 Quadrupole moment (field-independent basis, Debye-Ang):
   XX=             -9.6724   YY=             -6.3335   ZZ=            -14.9935
   XY=             -5.4222   XZ=             -0.0000   YZ=              0.0000

 34\MP4DQ=-33.8938641\MP4SDQ=-33.8958938\CCSD=-33.8969389\CCSD(T)=-33.8
 Normal termination of Gaussian 16 at Sun Dec 10 06:33:33 2023.
