 Gaussian 16, Revision A.03,
 Gaussian 16:  ES64L-G16RevA.03 25-Dec-2016

 ------------------
 #p CCSD(T)/CEP-31G
 ------------------

 ------------
 H2O_H2O_2790
 ------------
 Symbolic Z-matrix:
 Charge =  0 Multiplicity = 1

                         Standard orientation:
 ---------------------------------------------------------------------
 Center     Atomic      Atomic             Coordinates (Angstroms)
 Number     Number       Type             X           Y           Z
 ---------------------------------------------------------------------
      1          8           0        0.044869    2.219618    0.000000
      2          1           0        0.042951    1.237018    0.000000
      3          1           0       -0.884001    2.540097    0.000000
      4          8           0        0.044869   -2.039228   -0.000000
      5          1           0        0.860805   -2.586726   -0.000000
      6          1           0       -0.737654   -2.633506   -0.000000
 ---------------------------------------------------------------------

 SCF Done:  E(RHF) =  -33.6558533436     A.U. after   11 cycles
 E2 =    -0.2283569968D+00 EUMP2 =    -0.33884210340426D+02
 CCSD(T)
 CCSD(T)= -0.33901108483D+02

 The electronic state is 1-A'.
 Alpha  occ. eigenvalues --   -1.36825  -1.33841  -0.72472  -0.69462  -0.56805
 Alpha  occ. eigenvalues --   -0.53676  -0.51455  -0.48469
 Alpha virt. eigenvalues --    0.18680   0.22581   0.29417   0.32706   0.79107
 Alpha virt. eigenvalues --    0.82014   0.83208   0.84579   0.85441   0.88150
 Alpha virt. eigenvalues --    1.16238   1.19538   1.20664   1.26864   2.55405

 Mulliken charges:
               1
     1  O   -0.757348
     2  H    0.391300
     3  H    0.364841
     4  O   -0.753970
     5  H    0.379568
     6  H    0.375608
 Sum of Mulliken charges =   0.00000

 Dipole moment (field-independent basis, Debye):
    X=             -2.0411    Y=             -4.3320    Z=             -0.0000  Tot=              4.7887
 Quadrupole moment (field-independent basis, Debye-Ang):
   XX=             -9.4233   YY=             -6.6601   ZZ=            -14.9967
   XY=             -5.9463   XZ=             -0.0000   YZ=              0.0000

 7039\MP4DQ=-33.8954589\MP4SDQ=-33.8975024\CCSD=-33.8985378\CCSD(T)=-33
 Normal termination of Gaussian 16 at Sun Dec 10 06:23:13 2023.
