 Gaussian 16, Revision A.03,
 Gaussian 16:  ES64L-G16RevA.03 25-Dec-2016

 ------------------
 #p CCSD(T)/CEP-31G
 ------------------

 ------------
 H2O_H2O_3234
 ------------
 Symbolic Z-matrix:
 Charge =  0 Multiplicity = 1

                         Standard orientation:
 ---------------------------------------------------------------------
 Center     Atomic      Atomic             Coordinates (Angstroms)
 Number     Number       Type             X           Y           Z
 ---------------------------------------------------------------------
      1          8           0        0.066759    2.395153   -0.000000
      2          1           0        0.065796    1.412552   -0.000000
      3          1           0       -0.862422    2.714730   -0.000000
      4          8           0        0.066759   -2.222046    0.000000
      5          1           0        0.611862   -3.039584    0.000000
      6          1           0       -0.883375   -2.472552    0.000000
 ---------------------------------------------------------------------

 SCF Done:  E(RHF) =  -33.6541555890     A.U. after   11 cycles
 E2 =    -0.2283336215D+00 EUMP2 =    -0.33882489210503D+02
 CCSD(T)
 CCSD(T)= -0.33899424806D+02

 The electronic state is 1-A'.
 Alpha  occ. eigenvalues --   -1.36636  -1.34287  -0.72287  -0.69898  -0.56511
 Alpha  occ. eigenvalues --   -0.54077  -0.51240  -0.48888
 Alpha virt. eigenvalues --    0.18900   0.21910   0.29467   0.32063   0.79332
 Alpha virt. eigenvalues --    0.81610   0.82325   0.84671   0.85282   0.87891
 Alpha virt. eigenvalues --    1.16353   1.18896   1.20745   1.24667   2.56290

 Mulliken charges:
               1
     1  O   -0.750425
     2  H    0.385142
     3  H    0.364815
     4  O   -0.749439
     5  H    0.378186
     6  H    0.371721
 Sum of Mulliken charges =  -0.00000

 Dipole moment (field-independent basis, Debye):
    X=             -3.0514    Y=             -4.1195    Z=              0.0000  Tot=              5.1266
 Quadrupole moment (field-independent basis, Debye-Ang):
   XX=             -9.8957   YY=             -6.7188   ZZ=            -14.9932
   XY=             -4.8239   XZ=              0.0000   YZ=             -0.0000

 5\MP4DQ=-33.8937843\MP4SDQ=-33.8958168\CCSD=-33.8968609\CCSD(T)=-33.89
 Normal termination of Gaussian 16 at Sun Dec 10 06:31:17 2023.
