 Gaussian 16, Revision A.03,
 Gaussian 16:  ES64L-G16RevA.03 25-Dec-2016

 ------------------
 #p CCSD(T)/CEP-31G
 ------------------

 ------------
 H2O_H2O_4860
 ------------
 Symbolic Z-matrix:
 Charge =  0 Multiplicity = 1

                         Standard orientation:
 ---------------------------------------------------------------------
 Center     Atomic      Atomic             Coordinates (Angstroms)
 Number     Number       Type             X           Y           Z
 ---------------------------------------------------------------------
      1          8           0        0.063213    3.044650   -0.000000
      2          1           0        0.062360    2.062049   -0.000000
      3          1           0       -0.866003    3.364123    0.000000
      4          8           0        0.063213   -2.869108   -0.000000
      5          1           0        0.660706   -3.649178   -0.000000
      6          1           0       -0.868467   -3.181324    0.000000
 ---------------------------------------------------------------------

 SCF Done:  E(RHF) =  -33.6528436951     A.U. after   11 cycles
 E2 =    -0.2283203130D+00 EUMP2 =    -0.33881164008143D+02
 CCSD(T)
 CCSD(T)= -0.33898134385D+02

 The electronic state is 1-A'.
 Alpha  occ. eigenvalues --   -1.36203  -1.34813  -0.71843  -0.70440  -0.55998
 Alpha  occ. eigenvalues --   -0.54580  -0.50790  -0.49401
 Alpha virt. eigenvalues --    0.19620   0.21056   0.29874   0.31327   0.79764
 Alpha virt. eigenvalues --    0.81126   0.82673   0.84124   0.85817   0.87256
 Alpha virt. eigenvalues --    1.16746   1.18132   1.21192   1.22625   2.56733

 Mulliken charges:
               1
     1  O   -0.745247
     2  H    0.377262
     3  H    0.367982
     4  O   -0.745005
     5  H    0.374077
     6  H    0.370930
 Sum of Mulliken charges =   0.00000

 Dipole moment (field-independent basis, Debye):
    X=             -2.9074    Y=             -4.1103    Z=              0.0000  Tot=              5.0346
 Quadrupole moment (field-independent basis, Debye-Ang):
   XX=             -9.7748   YY=             -5.2479   ZZ=            -14.9907
   XY=             -5.9837   XZ=             -0.0000   YZ=              0.0000

 526\MP4DQ=-33.8924978\MP4SDQ=-33.8945227\CCSD=-33.895576\CCSD(T)=-33.8
 Normal termination of Gaussian 16 at Sun Dec 10 07:00:43 2023.
