 Gaussian 16, Revision A.03,
 Gaussian 16:  ES64L-G16RevA.03 25-Dec-2016

 ------------------
 #p CCSD(T)/CEP-31G
 ------------------

 -----------
 H2O_H2O_545
 -----------
 Symbolic Z-matrix:
 Charge =  0 Multiplicity = 1

                         Standard orientation:
 ---------------------------------------------------------------------
 Center     Atomic      Atomic             Coordinates (Angstroms)
 Number     Number       Type             X           Y           Z
 ---------------------------------------------------------------------
      1          8           0        0.026840    1.318204   -0.000000
      2          1           0        0.022272    0.335613   -0.000000
      3          1           0       -0.901161    1.641188   -0.000000
      4          8           0        0.026840   -1.145092    0.000000
      5          1           0        0.974767   -1.403818    0.000000
      6          1           0       -0.525324   -1.957879    0.000000
 ---------------------------------------------------------------------

 SCF Done:  E(RHF) =  -33.6544022657     A.U. after   11 cycles
 E2 =    -0.2284845811D+00 EUMP2 =    -0.33882886846764D+02
 CCSD(T)
 CCSD(T)= -0.33898626779D+02

 The electronic state is 1-A'.
 Alpha  occ. eigenvalues --   -1.40951  -1.29468  -0.76726  -0.70467  -0.58726
 Alpha  occ. eigenvalues --   -0.55474  -0.48317  -0.43985
 Alpha virt. eigenvalues --    0.17256   0.26739   0.28256   0.53988   0.74044
 Alpha virt. eigenvalues --    0.75120   0.86615   0.89056   0.94784   1.01670
 Alpha virt. eigenvalues --    1.15757   1.20076   1.25501   1.37437   2.68656

 Mulliken charges:
               1
     1  O   -0.773723
     2  H    0.406138
     3  H    0.341408
     4  O   -0.837824
     5  H    0.417871
     6  H    0.446130
 Sum of Mulliken charges =  -0.00000

 Dipole moment (field-independent basis, Debye):
    X=             -1.1799    Y=             -4.9198    Z=              0.0000  Tot=              5.0593
 Quadrupole moment (field-independent basis, Debye-Ang):
   XX=             -9.4415   YY=             -9.5914   ZZ=            -15.0097
   XY=             -4.1031   XZ=              0.0000   YZ=             -0.0000

 84\MP4DQ=-33.8926664\MP4SDQ=-33.8948477\CCSD=-33.895665\CCSD(T)=-33.89
 Normal termination of Gaussian 16 at Sun Dec 10 06:28:47 2023.
