 Gaussian 16, Revision A.03,
 Gaussian 16:  ES64L-G16RevA.03 25-Dec-2016

 ------------------
 #p CCSD(T)/CEP-31G
 ------------------

 ------------
 H2O_H2O_1602
 ------------
 Symbolic Z-matrix:
 Charge =  0 Multiplicity = 1

                         Standard orientation:
 ---------------------------------------------------------------------
 Center     Atomic      Atomic             Coordinates (Angstroms)
 Number     Number       Type             X           Y           Z
 ---------------------------------------------------------------------
      1          8           0        0.088236   -1.731334    0.000000
      2          1           0        0.087995   -0.748732    0.000000
      3          1           0       -0.841178   -2.050228    0.000000
      4          8           0        0.088236    1.587026    0.000000
      5          1           0        0.216253    2.561253    0.000000
      6          1           0       -0.874851    1.392172    0.000000
 ---------------------------------------------------------------------

 SCF Done:  E(RHF) =  -33.6544110174     A.U. after   11 cycles
 E2 =    -0.2289756528D+00 EUMP2 =    -0.33883386670222D+02
 CCSD(T)
 CCSD(T)= -0.33900422785D+02

 The electronic state is 1-A'.
 Alpha  occ. eigenvalues --   -1.37961  -1.33846  -0.73843  -0.69359  -0.57934
 Alpha  occ. eigenvalues --   -0.53520  -0.52529  -0.48405
 Alpha virt. eigenvalues --    0.16845   0.24290   0.28313   0.36595   0.77254
 Alpha virt. eigenvalues --    0.81580   0.83071   0.84806   0.89002   1.02473
 Alpha virt. eigenvalues --    1.15272   1.17727   1.21417   1.39478   2.51556

 Mulliken charges:
               1
     1  O   -0.755158
     2  H    0.396866
     3  H    0.354286
     4  O   -0.759550
     5  H    0.396587
     6  H    0.366970
 Sum of Mulliken charges =  -0.00000

 Dipole moment (field-independent basis, Debye):
    X=             -3.9717    Y=              3.6441    Z=              0.0000  Tot=              5.3902
 Quadrupole moment (field-independent basis, Debye-Ang):
   XX=            -11.0090   YY=             -9.0745   ZZ=            -14.9913
   XY=              2.7056   XZ=              0.0000   YZ=              0.0000

 8\MP4DQ=-33.8945953\MP4SDQ=-33.8967374\CCSD=-33.8977505\CCSD(T)=-33.90
 Normal termination of Gaussian 16 at Sun Dec 10 06:49:07 2023.
