 Gaussian 16, Revision A.03,
 Gaussian 16:  ES64L-G16RevA.03 25-Dec-2016

 ------------------
 #p CCSD(T)/CEP-31G
 ------------------

 ------------
 H2O_H2O_2868
 ------------
 Symbolic Z-matrix:
 Charge =  0 Multiplicity = 1

                         Standard orientation:
 ---------------------------------------------------------------------
 Center     Atomic      Atomic             Coordinates (Angstroms)
 Number     Number       Type             X           Y           Z
 ---------------------------------------------------------------------
      1          8           0        0.033800    2.247974    0.000000
      2          1           0        0.031474    1.265376    0.000000
      3          1           0       -0.894936    2.568840    0.000000
      4          8           0        0.033800   -2.070459    0.000000
      5          1           0        0.940713   -2.448631    0.000000
      6          1           0       -0.618053   -2.805710    0.000000
 ---------------------------------------------------------------------

 SCF Done:  E(RHF) =  -33.6558088922     A.U. after   11 cycles
 E2 =    -0.2283328346D+00 EUMP2 =    -0.33884141726818D+02
 CCSD(T)
 CCSD(T)= -0.33901039802D+02

 The electronic state is 1-A'.
 Alpha  occ. eigenvalues --   -1.36774  -1.33931  -0.72421  -0.69561  -0.56747
 Alpha  occ. eigenvalues --   -0.53773  -0.51403  -0.48562
 Alpha virt. eigenvalues --    0.18717   0.22471   0.29450   0.32585   0.79160
 Alpha virt. eigenvalues --    0.81919   0.82882   0.84547   0.85579   0.88012
 Alpha virt. eigenvalues --    1.16282   1.19449   1.20696   1.26531   2.55683

 Mulliken charges:
               1
     1  O   -0.757109
     2  H    0.389732
     3  H    0.366337
     4  O   -0.754044
     5  H    0.378535
     6  H    0.376548
 Sum of Mulliken charges =  -0.00000

 Dipole moment (field-independent basis, Debye):
    X=             -1.5375    Y=             -4.2525    Z=              0.0000  Tot=              4.5220
 Quadrupole moment (field-independent basis, Debye-Ang):
   XX=             -9.4298   YY=             -6.7400   ZZ=            -14.9966
   XY=             -6.6806   XZ=              0.0000   YZ=              0.0000

 6388\MP4DQ=-33.8953944\MP4SDQ=-33.8974349\CCSD=-33.8984714\CCSD(T)=-33
 Normal termination of Gaussian 16 at Sun Dec 10 06:24:37 2023.
