 Gaussian 16, Revision A.03,
 Gaussian 16:  ES64L-G16RevA.03 25-Dec-2016

 ------------------
 #p CCSD(T)/CEP-31G
 ------------------

 ------------
 H2O_H2O_4147
 ------------
 Symbolic Z-matrix:
 Charge =  0 Multiplicity = 1

                         Standard orientation:
 ---------------------------------------------------------------------
 Center     Atomic      Atomic             Coordinates (Angstroms)
 Number     Number       Type             X           Y           Z
 ---------------------------------------------------------------------
      1          8           0       -0.019826    2.750896    0.000000
      2          1           0       -0.017501    1.768298    0.000000
      3          1           0        0.908910    3.071762    0.000000
      4          8           0       -0.019826   -2.583776    0.000000
      5          1           0       -0.993715   -2.714336    0.000000
      6          1           0        0.419519   -3.462686    0.000000
 ---------------------------------------------------------------------

 SCF Done:  E(RHF) =  -33.6537123003     A.U. after   11 cycles
 E2 =    -0.2282799950D+00 EUMP2 =    -0.33881992295301D+02
 CCSD(T)
 CCSD(T)= -0.33898939607D+02

 The electronic state is 1-A'.
 Alpha  occ. eigenvalues --   -1.36322  -1.34673  -0.71964  -0.70311  -0.56165
 Alpha  occ. eigenvalues --   -0.54474  -0.50921  -0.49277
 Alpha virt. eigenvalues --    0.19496   0.21279   0.29797   0.31546   0.79632
 Alpha virt. eigenvalues --    0.81234   0.82435   0.84216   0.85637   0.87325
 Alpha virt. eigenvalues --    1.16661   1.18332   1.21085   1.22913   2.56601

 Mulliken charges:
               1
     1  O   -0.748621
     2  H    0.379010
     3  H    0.369576
     4  O   -0.748064
     5  H    0.373981
     6  H    0.374118
 Sum of Mulliken charges =  -0.00000

 Dipole moment (field-independent basis, Debye):
    X=              0.9091    Y=             -3.9263    Z=              0.0000  Tot=              4.0302
 Quadrupole moment (field-independent basis, Debye-Ang):
   XX=             -9.6793   YY=             -6.5006   ZZ=            -14.9924
   XY=              9.3244   XZ=              0.0000   YZ=              0.0000

 5589\MP4DQ=-33.8933079\MP4SDQ=-33.8953314\CCSD=-33.8963825\CCSD(T)=-33
 Normal termination of Gaussian 16 at Sun Dec 10 06:47:38 2023.
