 Gaussian 16, Revision A.03,
 Gaussian 16:  ES64L-G16RevA.03 25-Dec-2016

 ------------------
 #p CCSD(T)/CEP-31G
 ------------------

 ------------
 H2O_H2O_1578
 ------------
 Symbolic Z-matrix:
 Charge =  0 Multiplicity = 1

                         Standard orientation:
 ---------------------------------------------------------------------
 Center     Atomic      Atomic             Coordinates (Angstroms)
 Number     Number       Type             X           Y           Z
 ---------------------------------------------------------------------
      1          8           0        0.085609   -1.724225    0.000000
      2          1           0        0.085231   -0.741624    0.000000
      3          1           0       -0.843762   -2.043249    0.000000
      4          8           0        0.085609    1.574646    0.000000
      5          1           0        0.276934    2.538441    0.000000
      6          1           0       -0.888143    1.443063    0.000000
 ---------------------------------------------------------------------

 SCF Done:  E(RHF) =  -33.6551976598     A.U. after   11 cycles
 E2 =    -0.2289448650D+00 EUMP2 =    -0.33884142524786D+02
 CCSD(T)
 CCSD(T)= -0.33901154975D+02

 The electronic state is 1-A'.
 Alpha  occ. eigenvalues --   -1.37979  -1.33629  -0.73832  -0.69182  -0.58007
 Alpha  occ. eigenvalues --   -0.53310  -0.52560  -0.48198
 Alpha virt. eigenvalues --    0.16995   0.24398   0.28310   0.36943   0.77214
 Alpha virt. eigenvalues --    0.81437   0.83273   0.84940   0.89344   1.02790
 Alpha virt. eigenvalues --    1.15171   1.17891   1.21372   1.39208   2.51181

 Mulliken charges:
               1
     1  O   -0.758004
     2  H    0.400496
     3  H    0.353680
     4  O   -0.763185
     5  H    0.398101
     6  H    0.368913
 Sum of Mulliken charges =   0.00000

 Dipole moment (field-independent basis, Debye):
    X=             -3.8486    Y=              3.7832    Z=              0.0000  Tot=              5.3967
 Quadrupole moment (field-independent basis, Debye-Ang):
   XX=            -10.8417   YY=             -8.8773   ZZ=            -14.9934
   XY=              2.9150   XZ=              0.0000   YZ=              0.0000

 6134\MP4DQ=-33.89533\MP4SDQ=-33.8974691\CCSD=-33.8984824\CCSD(T)=-33.9
 Normal termination of Gaussian 16 at Sun Dec 10 06:48:39 2023.
