 Gaussian 16, Revision A.03,
 Gaussian 16:  ES64L-G16RevA.03 25-Dec-2016

 ------------------
 #p CCSD(T)/CEP-31G
 ------------------

 ----------
 H2O_H2O_80
 ----------
 Symbolic Z-matrix:
 Charge =  0 Multiplicity = 1

                         Standard orientation:
 ---------------------------------------------------------------------
 Center     Atomic      Atomic             Coordinates (Angstroms)
 Number     Number       Type             X           Y           Z
 ---------------------------------------------------------------------
      1          8           0        0.079898   -1.131013    0.000000
      2          1           0        0.078841   -0.148413    0.000000
      3          1           0       -0.849252   -1.450679    0.000000
      4          8           0        0.079898    0.972044    0.000000
      5          1           0        0.394744    1.902838    0.000000
      6          1           0       -0.902695    0.968009    0.000000
 ---------------------------------------------------------------------

 SCF Done:  E(RHF) =  -33.5859488668     A.U. after   11 cycles
 E2 =    -0.2278726334D+00 EUMP2 =    -0.33813821500215D+02
 CCSD(T)
 CCSD(T)= -0.33828860889D+02

 The electronic state is 1-A'.
 Alpha  occ. eigenvalues --   -1.46579  -1.28149  -0.83964  -0.74041  -0.58982
 Alpha  occ. eigenvalues --   -0.55294  -0.45537  -0.42108
 Alpha virt. eigenvalues --    0.15910   0.23383   0.30222   0.61190   0.73085
 Alpha virt. eigenvalues --    0.74641   0.89606   0.91023   0.96487   1.08304
 Alpha virt. eigenvalues --    1.10362   1.21071   1.27888   1.43209   3.06822

 Mulliken charges:
               1
     1  O   -0.693429
     2  H    0.250844
     3  H    0.299062
     4  O   -0.764153
     5  H    0.503440
     6  H    0.404235
 Sum of Mulliken charges =   0.00000

 Dipole moment (field-independent basis, Debye):
    X=             -3.2329    Y=              5.2414    Z=              0.0000  Tot=              6.1582
 Quadrupole moment (field-independent basis, Debye-Ang):
   XX=            -10.4580   YY=            -10.5023   ZZ=            -14.8995
   XY=              2.8128   XZ=              0.0000   YZ=              0.0000

 3\MP4DQ=-33.8224744\MP4SDQ=-33.8249901\CCSD=-33.825627\CCSD(T)=-33.828
 Normal termination of Gaussian 16 at Sun Dec 10 06:19:36 2023.
