 Gaussian 16, Revision A.03,
 Gaussian 16:  ES64L-G16RevA.03 25-Dec-2016

 ------------------
 #p CCSD(T)/CEP-31G
 ------------------

 ------------
 H2O_H2O_2060
 ------------
 Symbolic Z-matrix:
 Charge =  0 Multiplicity = 1

                         Standard orientation:
 ---------------------------------------------------------------------
 Center     Atomic      Atomic             Coordinates (Angstroms)
 Number     Number       Type             X           Y           Z
 ---------------------------------------------------------------------
      1          8           0        0.063259    1.927761    0.000000
      2          1           0        0.061888    0.945160    0.000000
      3          1           0       -0.865789    2.247723    0.000000
      4          8           0        0.063259   -1.752286   -0.000000
      5          1           0        0.660341   -2.532669   -0.000000
      6          1           0       -0.868585   -2.064010   -0.000000
 ---------------------------------------------------------------------

 SCF Done:  E(RHF) =  -33.6572923040     A.U. after   11 cycles
 E2 =    -0.2286016928D+00 EUMP2 =    -0.33885893996774D+02
 CCSD(T)
 CCSD(T)= -0.33902798323D+02

 The electronic state is 1-A'.
 Alpha  occ. eigenvalues --   -1.37353  -1.33327  -0.73020  -0.68945  -0.57482
 Alpha  occ. eigenvalues --   -0.53134  -0.51995  -0.47957
 Alpha virt. eigenvalues --    0.18005   0.23725   0.28957   0.34738   0.78363
 Alpha virt. eigenvalues --    0.82746   0.83060   0.85482   0.89058   0.89855
 Alpha virt. eigenvalues --    1.15667   1.20047   1.20310   1.32912   2.52270

 Mulliken charges:
               1
     1  O   -0.764643
     2  H    0.403410
     3  H    0.359028
     4  O   -0.760565
     5  H    0.387084
     6  H    0.375686
 Sum of Mulliken charges =   0.00000

 Dipole moment (field-independent basis, Debye):
    X=             -2.8569    Y=             -4.3158    Z=             -0.0000  Tot=              5.1757
 Quadrupole moment (field-independent basis, Debye-Ang):
   XX=             -9.7774   YY=             -7.5730   ZZ=            -14.9992
   XY=             -4.4350   XZ=             -0.0000   YZ=              0.0000

 403\MP4DQ=-33.8970836\MP4SDQ=-33.8991608\CCSD=-33.9001861\CCSD(T)=-33.
 Normal termination of Gaussian 16 at Sun Dec 10 06:57:47 2023.
