 Gaussian 16, Revision A.03,
 Gaussian 16:  ES64L-G16RevA.03 25-Dec-2016

 ------------------
 #p CCSD(T)/CEP-31G
 ------------------

 ------------
 H2O_H2O_4654
 ------------
 Symbolic Z-matrix:
 Charge =  0 Multiplicity = 1

                         Standard orientation:
 ---------------------------------------------------------------------
 Center     Atomic      Atomic             Coordinates (Angstroms)
 Number     Number       Type             X           Y           Z
 ---------------------------------------------------------------------
      1          8           0        0.082797    2.953461    0.000000
      2          1           0        0.082498    1.970860    0.000000
      3          1           0       -0.846598    3.272411    0.000000
      4          8           0        0.082797   -2.798930   -0.000000
      5          1           0        0.336824   -3.748128   -0.000000
      6          1           0       -0.897481   -2.731394   -0.000000
 ---------------------------------------------------------------------

 SCF Done:  E(RHF) =  -33.6523994138     A.U. after   11 cycles
 E2 =    -0.2283412522D+00 EUMP2 =    -0.33880740666080D+02
 CCSD(T)
 CCSD(T)= -0.33897724417D+02

 The electronic state is 1-A'.
 Alpha  occ. eigenvalues --   -1.36259  -1.34989  -0.71903  -0.70610  -0.56031
 Alpha  occ. eigenvalues --   -0.54737  -0.50838  -0.49567
 Alpha virt. eigenvalues --    0.19517   0.20869   0.29792   0.31117   0.79721
 Alpha virt. eigenvalues --    0.80968   0.82663   0.83979   0.85757   0.87138
 Alpha virt. eigenvalues --    1.16670   1.17940   1.21120   1.22442   2.56647

 Mulliken charges:
               1
     1  O   -0.743556
     2  H    0.376096
     3  H    0.367456
     4  O   -0.743679
     5  H    0.374389
     6  H    0.369294
 Sum of Mulliken charges =  -0.00000

 Dipole moment (field-independent basis, Debye):
    X=             -3.8089    Y=             -3.6237    Z=              0.0000  Tot=              5.2572
 Quadrupole moment (field-independent basis, Debye-Ang):
   XX=            -10.6363   YY=             -7.4163   ZZ=            -14.9895
   XY=             -3.7218   XZ=             -0.0000   YZ=              0.0000

 409\MP4DQ=-33.892084\MP4SDQ=-33.8941101\CCSD=-33.8951643\CCSD(T)=-33.8
 Normal termination of Gaussian 16 at Sun Dec 10 06:56:46 2023.
