 Gaussian 16, Revision A.03,
 Gaussian 16:  ES64L-G16RevA.03 25-Dec-2016

 ------------------
 #p CCSD(T)/CEP-31G
 ------------------

 ------------
 H2O_H2O_1894
 ------------
 Symbolic Z-matrix:
 Charge =  0 Multiplicity = 1

                         Standard orientation:
 ---------------------------------------------------------------------
 Center     Atomic      Atomic             Coordinates (Angstroms)
 Number     Number       Type             X           Y           Z
 ---------------------------------------------------------------------
      1          8           0        0.030247    1.858014   -0.000000
      2          1           0        0.027238    0.875417   -0.000000
      3          1           0       -0.898265    2.179526   -0.000000
      4          8           0        0.030247   -1.682447    0.000000
      5          1           0        0.959730   -2.001143    0.000000
      6          1           0       -0.572663   -2.458337    0.000000
 ---------------------------------------------------------------------

 SCF Done:  E(RHF) =  -33.6593549879     A.U. after   11 cycles
 E2 =    -0.2285983748D+00 EUMP2 =    -0.33887953362633D+02
 CCSD(T)
 CCSD(T)= -0.33904810196D+02

 The electronic state is 1-A'.
 Alpha  occ. eigenvalues --   -1.37460  -1.33004  -0.73118  -0.68698  -0.57750
 Alpha  occ. eigenvalues --   -0.52863  -0.52133  -0.47676
 Alpha virt. eigenvalues --    0.18068   0.24254   0.28974   0.35837   0.78083
 Alpha virt. eigenvalues --    0.82192   0.83147   0.86334   0.88473   0.92783
 Alpha virt. eigenvalues --    1.15659   1.19800   1.20817   1.33826   2.51475

 Mulliken charges:
               1
     1  O   -0.773276
     2  H    0.408058
     3  H    0.362817
     4  O   -0.768145
     5  H    0.385083
     6  H    0.385462
 Sum of Mulliken charges =   0.00000

 Dipole moment (field-independent basis, Debye):
    X=             -1.3602    Y=             -4.3417    Z=              0.0000  Tot=              4.5498
 Quadrupole moment (field-independent basis, Debye-Ang):
   XX=             -9.4548   YY=             -7.7227   ZZ=            -15.0036
   XY=             -5.7560   XZ=              0.0000   YZ=             -0.0000

 2\MP4DQ=-33.8990868\MP4SDQ=-33.9011661\CCSD=-33.902186\CCSD(T)=-33.904
 Normal termination of Gaussian 16 at Sun Dec 10 06:54:38 2023.
