 Gaussian 16, Revision A.03,
 Gaussian 16:  ES64L-G16RevA.03 25-Dec-2016

 ------------------
 #p CCSD(T)/CEP-31G
 ------------------

 ------------
 H2O_H2O_3814
 ------------
 Symbolic Z-matrix:
 Charge =  0 Multiplicity = 1

                         Standard orientation:
 ---------------------------------------------------------------------
 Center     Atomic      Atomic             Coordinates (Angstroms)
 Number     Number       Type             X           Y           Z
 ---------------------------------------------------------------------
      1          8           0        0.048566    2.628474   -0.000000
      2          1           0        0.047082    1.645874   -0.000000
      3          1           0       -0.880445    2.948544   -0.000000
      4          8           0        0.048566   -2.448068    0.000000
      5          1           0        0.827212   -3.047414    0.000000
      6          1           0       -0.770909   -2.990255    0.000000
 ---------------------------------------------------------------------

 SCF Done:  E(RHF) =  -33.6539278508     A.U. after   11 cycles
 E2 =    -0.2282905405D+00 EUMP2 =    -0.33882218391229D+02
 CCSD(T)
 CCSD(T)= -0.33899157765D+02

 The electronic state is 1-A'.
 Alpha  occ. eigenvalues --   -1.36418  -1.34420  -0.72059  -0.70046  -0.56277
 Alpha  occ. eigenvalues --   -0.54218  -0.51020  -0.49024
 Alpha virt. eigenvalues --    0.19377   0.21582   0.29719   0.31832   0.79539
 Alpha virt. eigenvalues --    0.81479   0.82300   0.84497   0.85547   0.87618
 Alpha virt. eigenvalues --    1.16575   1.18614   1.21011   1.23313   2.56536

 Mulliken charges:
               1
     1  O   -0.749458
     2  H    0.382227
     3  H    0.367112
     4  O   -0.748557
     5  H    0.375870
     6  H    0.372805
 Sum of Mulliken charges =  -0.00000

 Dipole moment (field-independent basis, Debye):
    X=             -2.2247    Y=             -4.2558    Z=              0.0000  Tot=              4.8022
 Quadrupole moment (field-independent basis, Debye-Ang):
   XX=             -9.4615   YY=             -5.7294   ZZ=            -14.9929
   XY=             -6.5747   XZ=              0.0000   YZ=             -0.0000

 765\MP4DQ=-33.8935262\MP4SDQ=-33.895551\CCSD=-33.8966\CCSD(T)=-33.8991
 Normal termination of Gaussian 16 at Sun Dec 10 06:41:38 2023.
