 Gaussian 16, Revision A.03,
 Gaussian 16:  ES64L-G16RevA.03 25-Dec-2016

 ------------------
 #p CCSD(T)/CEP-31G
 ------------------

 ------------
 H2O_H2O_3818
 ------------
 Symbolic Z-matrix:
 Charge =  0 Multiplicity = 1

                         Standard orientation:
 ---------------------------------------------------------------------
 Center     Atomic      Atomic             Coordinates (Angstroms)
 Number     Number       Type             X           Y           Z
 ---------------------------------------------------------------------
      1          8           0        0.033769    2.626919    0.000000
      2          1           0        0.031790    1.644319    0.000000
      3          1           0       -0.895081    2.947456    0.000000
      4          8           0        0.033769   -2.449379   -0.000000
      5          1           0        0.940816   -2.827232   -0.000000
      6          1           0       -0.617824   -3.184860   -0.000000
 ---------------------------------------------------------------------

 SCF Done:  E(RHF) =  -33.6540922378     A.U. after   11 cycles
 E2 =    -0.2282798057D+00 EUMP2 =    -0.33882372043516D+02
 CCSD(T)
 CCSD(T)= -0.33899307496D+02

 The electronic state is 1-A'.
 Alpha  occ. eigenvalues --   -1.36408  -1.34442  -0.72049  -0.70074  -0.56276
 Alpha  occ. eigenvalues --   -0.54249  -0.51013  -0.49050
 Alpha virt. eigenvalues --    0.19389   0.21568   0.29731   0.31822   0.79544
 Alpha virt. eigenvalues --    0.81451   0.82295   0.84448   0.85559   0.87566
 Alpha virt. eigenvalues --    1.16591   1.18603   1.21012   1.23321   2.56546

 Mulliken charges:
               1
     1  O   -0.750094
     2  H    0.381855
     3  H    0.368125
     4  O   -0.749123
     5  H    0.375342
     6  H    0.373894
 Sum of Mulliken charges =  -0.00000

 Dipole moment (field-independent basis, Debye):
    X=             -1.5462    Y=             -4.1861    Z=             -0.0000  Tot=              4.4626
 Quadrupole moment (field-independent basis, Debye-Ang):
   XX=             -9.4351   YY=             -5.9305   ZZ=            -14.9933
   XY=             -7.7236   XZ=             -0.0000   YZ=              0.0000

 265\MP4DQ=-33.893677\MP4SDQ=-33.8957013\CCSD=-33.8967502\CCSD(T)=-33.8
 Normal termination of Gaussian 16 at Sun Dec 10 06:41:42 2023.
