 Gaussian 16, Revision A.03,
 Gaussian 16:  ES64L-G16RevA.03 25-Dec-2016

 ------------------
 #p CCSD(T)/CEP-31G
 ------------------

 ------------
 H2O_H2O_2586
 ------------
 Symbolic Z-matrix:
 Charge =  0 Multiplicity = 1

                         Standard orientation:
 ---------------------------------------------------------------------
 Center     Atomic      Atomic             Coordinates (Angstroms)
 Number     Number       Type             X           Y           Z
 ---------------------------------------------------------------------
      1          8           0        0.059653    2.138233    0.000000
      2          1           0        0.058273    1.155632    0.000000
      3          1           0       -0.869392    2.458204    0.000000
      4          8           0        0.059653   -1.960803   -0.000000
      5          1           0        0.706489   -2.700471   -0.000000
      6          1           0       -0.849812   -2.332798   -0.000000
 ---------------------------------------------------------------------

 SCF Done:  E(RHF) =  -33.6558368993     A.U. after   11 cycles
 E2 =    -0.2284213661D+00 EUMP2 =    -0.33884258265407D+02
 CCSD(T)
 CCSD(T)= -0.33901166836D+02

 The electronic state is 1-A'.
 Alpha  occ. eigenvalues --   -1.36960  -1.33774  -0.72614  -0.69382  -0.56948
 Alpha  occ. eigenvalues --   -0.53591  -0.51587  -0.48396
 Alpha virt. eigenvalues --    0.18413   0.22796   0.29257   0.33000   0.78960
 Alpha virt. eigenvalues --    0.82114   0.83763   0.84837   0.85452   0.88340
 Alpha virt. eigenvalues --    1.16081   1.19640   1.20527   1.28489   2.54761

 Mulliken charges:
               1
     1  O   -0.757643
     2  H    0.393457
     3  H    0.362661
     4  O   -0.754152
     5  H    0.381465
     6  H    0.374214
 Sum of Mulliken charges =  -0.00000

 Dipole moment (field-independent basis, Debye):
    X=             -2.7115    Y=             -4.2863    Z=             -0.0000  Tot=              5.0720
 Quadrupole moment (field-independent basis, Debye-Ang):
   XX=             -9.6724   YY=             -7.0020   ZZ=            -14.9965
   XY=             -4.9404   XZ=             -0.0000   YZ=              0.0000

 7494\MP4DQ=-33.8955015\MP4SDQ=-33.8975542\CCSD=-33.8985872\CCSD(T)=-33
 Normal termination of Gaussian 16 at Sun Dec 10 06:19:33 2023.
