 Gaussian 16, Revision A.03,
 Gaussian 16:  ES64L-G16RevA.03 25-Dec-2016

 ------------------
 #p CCSD(T)/CEP-31G
 ------------------

 ------------
 H2O_H2O_3259
 ------------
 Symbolic Z-matrix:
 Charge =  0 Multiplicity = 1

                         Standard orientation:
 ---------------------------------------------------------------------
 Center     Atomic      Atomic             Coordinates (Angstroms)
 Number     Number       Type             X           Y           Z
 ---------------------------------------------------------------------
      1          8           0        0.066758    2.405125    0.000000
      2          1           0        0.065799    1.422524    0.000000
      3          1           0       -0.862423    2.724698    0.000000
      4          8           0        0.066758   -2.232018   -0.000000
      5          1           0        0.611865   -3.049554   -0.000000
      6          1           0       -0.883374   -2.482528   -0.000000
 ---------------------------------------------------------------------

 SCF Done:  E(RHF) =  -33.6541184540     A.U. after   11 cycles
 E2 =    -0.2283315765D+00 EUMP2 =    -0.33882450030473D+02
 CCSD(T)
 CCSD(T)= -0.33899386387D+02

 The electronic state is 1-A'.
 Alpha  occ. eigenvalues --   -1.36626  -1.34300  -0.72277  -0.69911  -0.56498
 Alpha  occ. eigenvalues --   -0.54089  -0.51229  -0.48900
 Alpha virt. eigenvalues --    0.18923   0.21885   0.29476   0.32044   0.79342
 Alpha virt. eigenvalues --    0.81598   0.82310   0.84658   0.85293   0.87877
 Alpha virt. eigenvalues --    1.16363   1.18874   1.20755   1.24570   2.56310

 Mulliken charges:
               1
     1  O   -0.750273
     2  H    0.384939
     3  H    0.364891
     4  O   -0.749329
     5  H    0.378084
     6  H    0.371688
 Sum of Mulliken charges =  -0.00000

 Dipole moment (field-independent basis, Debye):
    X=             -3.0518    Y=             -4.1177    Z=             -0.0000  Tot=              5.1253
 Quadrupole moment (field-independent basis, Debye-Ang):
   XX=             -9.8957   YY=             -6.6998   ZZ=            -14.9931
   XY=             -4.8361   XZ=             -0.0000   YZ=              0.0000

 6\MP4DQ=-33.8937463\MP4SDQ=-33.8957784\CCSD=-33.8968229\CCSD(T)=-33.89
 Normal termination of Gaussian 16 at Sun Dec 10 06:31:44 2023.
