 Gaussian 16, Revision A.03,
 Gaussian 16:  ES64L-G16RevA.03 25-Dec-2016

 ------------------
 #p CCSD(T)/CEP-31G
 ------------------

 ------------
 H2O_H2O_4481
 ------------
 Symbolic Z-matrix:
 Charge =  0 Multiplicity = 1

                         Standard orientation:
 ---------------------------------------------------------------------
 Center     Atomic      Atomic             Coordinates (Angstroms)
 Number     Number       Type             X           Y           Z
 ---------------------------------------------------------------------
      1          8           0        0.076748    2.888381   -0.000000
      2          1           0        0.076259    1.905780   -0.000000
      3          1           0       -0.852586    3.207511   -0.000000
      4          8           0        0.076748   -2.725155    0.000000
      5          1           0        0.452322   -3.633147    0.000000
      6          1           0       -0.903970   -2.785958    0.000000
 ---------------------------------------------------------------------

 SCF Done:  E(RHF) =  -33.6526725830     A.U. after   11 cycles
 E2 =    -0.2283295950D+00 EUMP2 =    -0.33881002178095D+02
 CCSD(T)
 CCSD(T)= -0.33897977819D+02

 The electronic state is 1-A'.
 Alpha  occ. eigenvalues --   -1.36284  -1.34859  -0.71929  -0.70480  -0.56072
 Alpha  occ. eigenvalues --   -0.54616  -0.50868  -0.49442
 Alpha virt. eigenvalues --    0.19504   0.21021   0.29779   0.31280   0.79690
 Alpha virt. eigenvalues --    0.81087   0.82599   0.84094   0.85718   0.87253
 Alpha virt. eigenvalues --    1.16656   1.18082   1.21098   1.22606   2.56631

 Mulliken charges:
               1
     1  O   -0.744618
     2  H    0.377363
     3  H    0.367245
     4  O   -0.744614
     5  H    0.374728
     6  H    0.369896
 Sum of Mulliken charges =   0.00000

 Dipole moment (field-independent basis, Debye):
    X=             -3.5281    Y=             -3.8312    Z=              0.0000  Tot=              5.2082
 Quadrupole moment (field-independent basis, Debye-Ang):
   XX=            -10.3169   YY=             -6.6692   ZZ=            -14.9902
   XY=             -4.3898   XZ=              0.0000   YZ=             -0.0000

 5951\MP4DQ=-33.8923394\MP4SDQ=-33.8943649\CCSD=-33.8954183\CCSD(T)=-33
 Normal termination of Gaussian 16 at Sun Dec 10 06:53:39 2023.
