 Gaussian 16, Revision A.03,
 Gaussian 16:  ES64L-G16RevA.03 25-Dec-2016

 ------------------
 #p CCSD(T)/CEP-31G
 ------------------

 -----------
 H2O_H2O_657
 -----------
 Symbolic Z-matrix:
 Charge =  0 Multiplicity = 1

                         Standard orientation:
 ---------------------------------------------------------------------
 Center     Atomic      Atomic             Coordinates (Angstroms)
 Number     Number       Type             X           Y           Z
 ---------------------------------------------------------------------
      1          8           0        0.073583    1.364653    0.000000
      2          1           0        0.072297    0.382053    0.000000
      3          1           0       -0.855492    1.684536   -0.000000
      4          8           0        0.073583   -1.197795    0.000000
      5          1           0        0.507024   -2.079631    0.000000
      6          1           0       -0.901159   -1.321821   -0.000000
 ---------------------------------------------------------------------

 SCF Done:  E(RHF) =  -33.6532748398     A.U. after   11 cycles
 E2 =    -0.2289370725D+00 EUMP2 =    -0.33882211912289D+02
 CCSD(T)
 CCSD(T)= -0.33898425968D+02

 The electronic state is 1-A'.
 Alpha  occ. eigenvalues --   -1.40461  -1.30725  -0.76539  -0.69422  -0.58963
 Alpha  occ. eigenvalues --   -0.54944  -0.49832  -0.45185
 Alpha virt. eigenvalues --    0.16870   0.26212   0.27735   0.50598   0.74235
 Alpha virt. eigenvalues --    0.76310   0.85377   0.87970   0.95879   1.07873
 Alpha virt. eigenvalues --    1.15989   1.21837   1.23426   1.36282   2.63740

 Mulliken charges:
               1
     1  O   -0.755318
     2  H    0.408318
     3  H    0.332124
     4  O   -0.825357
     5  H    0.450303
     6  H    0.389930
 Sum of Mulliken charges =  -0.00000

 Dipole moment (field-independent basis, Debye):
    X=             -3.1419    Y=             -4.6655    Z=             -0.0000  Tot=              5.6249
 Quadrupole moment (field-independent basis, Debye-Ang):
   XX=            -10.1786   YY=             -9.3620   ZZ=            -15.0024
   XY=             -3.3530   XZ=              0.0000   YZ=             -0.0000

 77\MP4DQ=-33.8924143\MP4SDQ=-33.8946452\CCSD=-33.8955191\CCSD(T)=-33.8
 Normal termination of Gaussian 16 at Sun Dec 10 06:30:53 2023.
