 Gaussian 16, Revision A.03,
 Gaussian 16:  ES64L-G16RevA.03 25-Dec-2016

 ------------------
 #p CCSD(T)/CEP-31G
 ------------------

 ------------
 H2O_H2O_1887
 ------------
 Symbolic Z-matrix:
 Charge =  0 Multiplicity = 1

                         Standard orientation:
 ---------------------------------------------------------------------
 Center     Atomic      Atomic             Coordinates (Angstroms)
 Number     Number       Type             X           Y           Z
 ---------------------------------------------------------------------
      1          8           0        0.056025    1.859800   -0.000000
      2          1           0        0.054253    0.877200   -0.000000
      3          1           0       -0.872892    2.180142   -0.000000
      4          8           0        0.056025   -1.680936    0.000000
      5          1           0        0.749575   -2.376992    0.000000
      6          1           0       -0.827335   -2.111262    0.000000
 ---------------------------------------------------------------------

 SCF Done:  E(RHF) =  -33.6586089492     A.U. after   11 cycles
 E2 =    -0.2286644248D+00 EUMP2 =    -0.33887273373958D+02
 CCSD(T)
 CCSD(T)= -0.33904142170D+02

 The electronic state is 1-A'.
 Alpha  occ. eigenvalues --   -1.37503  -1.32995  -0.73159  -0.68655  -0.57751
 Alpha  occ. eigenvalues --   -0.52812  -0.52165  -0.47641
 Alpha virt. eigenvalues --    0.18037   0.24181   0.28881   0.35871   0.78065
 Alpha virt. eigenvalues --    0.82504   0.83184   0.85789   0.89581   0.91668
 Alpha virt. eigenvalues --    1.15564   1.20106   1.20433   1.33328   2.51124

 Mulliken charges:
               1
     1  O   -0.770068
     2  H    0.409621
     3  H    0.358261
     4  O   -0.765732
     5  H    0.389110
     6  H    0.378810
 Sum of Mulliken charges =   0.00000

 Dipole moment (field-independent basis, Debye):
    X=             -2.5198    Y=             -4.4286    Z=              0.0000  Tot=              5.0953
 Quadrupole moment (field-independent basis, Debye-Ang):
   XX=             -9.5782   YY=             -7.6313   ZZ=            -15.0022
   XY=             -4.6690   XZ=              0.0000   YZ=             -0.0000

 6752\MP4DQ=-33.8984142\MP4SDQ=-33.9004942\CCSD=-33.9015149\CCSD(T)=-33
 Normal termination of Gaussian 16 at Sun Dec 10 06:54:30 2023.
