 Gaussian 16, Revision A.03,
 Gaussian 16:  ES64L-G16RevA.03 25-Dec-2016

 ------------------
 #p CCSD(T)/CEP-31G
 ------------------

 -----------
 H2O_H2O_759
 -----------
 Symbolic Z-matrix:
 Charge =  0 Multiplicity = 1

                         Standard orientation:
 ---------------------------------------------------------------------
 Center     Atomic      Atomic             Coordinates (Angstroms)
 Number     Number       Type             X           Y           Z
 ---------------------------------------------------------------------
      1          8           0        0.066822    1.407884    0.000000
      2          1           0        0.065140    0.425284    0.000000
      3          1           0       -0.862124    1.728141    0.000000
      4          8           0        0.066822   -1.234875   -0.000000
      5          1           0        0.611327   -2.052811   -0.000000
      6          1           0       -0.883494   -1.484686   -0.000000
 ---------------------------------------------------------------------

 SCF Done:  E(RHF) =  -33.6579364649     A.U. after   11 cycles
 E2 =    -0.2290656094D+00 EUMP2 =    -0.33887002074314D+02
 CCSD(T)
 CCSD(T)= -0.33903256822D+02

 The electronic state is 1-A'.
 Alpha  occ. eigenvalues --   -1.39913  -1.30759  -0.75671  -0.69114  -0.59115
 Alpha  occ. eigenvalues --   -0.54531  -0.50002  -0.45282
 Alpha virt. eigenvalues --    0.17109   0.26683   0.27545   0.49114   0.74603
 Alpha virt. eigenvalues --    0.76316   0.85229   0.87595   0.95877   1.05915
 Alpha virt. eigenvalues --    1.16114   1.18662   1.22768   1.36544   2.59633

 Mulliken charges:
               1
     1  O   -0.768873
     2  H    0.425146
     3  H    0.336097
     4  O   -0.823365
     5  H    0.438142
     6  H    0.392854
 Sum of Mulliken charges =   0.00000

 Dipole moment (field-independent basis, Debye):
    X=             -2.8660    Y=             -4.7261    Z=             -0.0000  Tot=              5.5273
 Quadrupole moment (field-independent basis, Debye-Ang):
   XX=             -9.8805   YY=             -9.1965   ZZ=            -15.0105
   XY=             -3.6231   XZ=              0.0000   YZ=              0.0000

 MP4DQ=-33.8973055\MP4SDQ=-33.8994896\CCSD=-33.9003803\CCSD(T)=-33.9032
 Normal termination of Gaussian 16 at Sun Dec 10 06:32:47 2023.
