 Gaussian 16, Revision A.03,
 Gaussian 16:  ES64L-G16RevA.03 25-Dec-2016

 ------------------
 #p CCSD(T)/CEP-31G
 ------------------

 ------------
 H2O_H2O_4211
 ------------
 Symbolic Z-matrix:
 Charge =  0 Multiplicity = 1

                         Standard orientation:
 ---------------------------------------------------------------------
 Center     Atomic      Atomic             Coordinates (Angstroms)
 Number     Number       Type             X           Y           Z
 ---------------------------------------------------------------------
      1          8           0        0.059623    2.786428    0.000000
      2          1           0        0.058575    1.803827    0.000000
      3          1           0       -0.869530    3.106085    0.000000
      4          8           0        0.059623   -2.608958   -0.000000
      5          1           0        0.706709   -3.348408   -0.000000
      6          1           0       -0.849717   -2.981260   -0.000000
 ---------------------------------------------------------------------

 SCF Done:  E(RHF) =  -33.6533137695     A.U. after   11 cycles
 E2 =    -0.2283047931D+00 EUMP2 =    -0.33881618562595D+02
 CCSD(T)
 CCSD(T)= -0.33898575435D+02

 The electronic state is 1-A'.
 Alpha  occ. eigenvalues --   -1.36325  -1.34613  -0.71967  -0.70237  -0.56149
 Alpha  occ. eigenvalues --   -0.54392  -0.50919  -0.49207
 Alpha virt. eigenvalues --    0.19492   0.21314   0.29774   0.31589   0.79638
 Alpha virt. eigenvalues --    0.81309   0.82469   0.84313   0.85662   0.87450
 Alpha virt. eigenvalues --    1.16643   1.18362   1.21079   1.22924   2.56608

 Mulliken charges:
               1
     1  O   -0.747091
     2  H    0.379814
     3  H    0.367246
     4  O   -0.746631
     5  H    0.375162
     6  H    0.371500
 Sum of Mulliken charges =   0.00000

 Dipole moment (field-independent basis, Debye):
    X=             -2.7366    Y=             -4.1722    Z=             -0.0000  Tot=              4.9896
 Quadrupole moment (field-independent basis, Debye-Ang):
   XX=             -9.6722   YY=             -5.6135   ZZ=            -14.9916
   XY=             -5.9483   XZ=             -0.0000   YZ=              0.0000

 1943\MP4DQ=-33.8929415\MP4SDQ=-33.8949658\CCSD=-33.8960175\CCSD(T)=-33
 Normal termination of Gaussian 16 at Sun Dec 10 06:48:48 2023.
