 Gaussian 16, Revision A.03,
 Gaussian 16:  ES64L-G16RevA.03 25-Dec-2016

 ------------------
 #p CCSD(T)/CEP-31G
 ------------------

 ------------
 H2O_H2O_4080
 ------------
 Symbolic Z-matrix:
 Charge =  0 Multiplicity = 1

                         Standard orientation:
 ---------------------------------------------------------------------
 Center     Atomic      Atomic             Coordinates (Angstroms)
 Number     Number       Type             X           Y           Z
 ---------------------------------------------------------------------
      1          8           0        0.079846    2.726574    0.000000
      2          1           0        0.079426    1.743973    0.000000
      3          1           0       -0.849511    3.045638   -0.000000
      4          8           0        0.079846   -2.567501    0.000000
      5          1           0        0.395295   -3.498092    0.000000
      6          1           0       -0.902750   -2.564102   -0.000000
 ---------------------------------------------------------------------

 SCF Done:  E(RHF) =  -33.6527449968     A.U. after   11 cycles
 E2 =    -0.2283315114D+00 EUMP2 =    -0.33881076508109D+02
 CCSD(T)
 CCSD(T)= -0.33898050409D+02

 The electronic state is 1-A'.
 Alpha  occ. eigenvalues --   -1.36379  -1.34811  -0.72027  -0.70428  -0.56172
 Alpha  occ. eigenvalues --   -0.54567  -0.50963  -0.49393
 Alpha virt. eigenvalues --    0.19340   0.21130   0.29682   0.31353   0.79600
 Alpha virt. eigenvalues --    0.81133   0.82474   0.84146   0.85593   0.87346
 Alpha virt. eigenvalues --    1.16557   1.18154   1.20993   1.22777   2.56496

 Mulliken charges:
               1
     1  O   -0.744918
     2  H    0.378315
     3  H    0.366567
     4  O   -0.745015
     5  H    0.375547
     6  H    0.369503
 Sum of Mulliken charges =  -0.00000

 Dipole moment (field-independent basis, Debye):
    X=             -3.6665    Y=             -3.7452    Z=             -0.0000  Tot=              5.2411
 Quadrupole moment (field-independent basis, Debye-Ang):
   XX=            -10.4767   YY=             -7.2523   ZZ=            -14.9902
   XY=             -3.9409   XZ=              0.0000   YZ=             -0.0000

 67\MP4DQ=-33.8924113\MP4SDQ=-33.8944375\CCSD=-33.8954901\CCSD(T)=-33.8
 Normal termination of Gaussian 16 at Sun Dec 10 06:46:26 2023.
