 Gaussian 16, Revision A.03,
 Gaussian 16:  ES64L-G16RevA.03 25-Dec-2016

 ------------------
 #p CCSD(T)/CEP-31G
 ------------------

 ------------
 H2O_H2O_4933
 ------------
 Symbolic Z-matrix:
 Charge =  0 Multiplicity = 1

                         Standard orientation:
 ---------------------------------------------------------------------
 Center     Atomic      Atomic             Coordinates (Angstroms)
 Number     Number       Type             X           Y           Z
 ---------------------------------------------------------------------
      1          8           0        0.070181    3.071704    0.000000
      2          1           0        0.069534    2.089103    0.000000
      3          1           0       -0.859103    3.390982    0.000000
      4          8           0        0.070181   -2.901430   -0.000000
      5          1           0        0.560922   -3.752711   -0.000000
      6          1           0       -0.894241   -3.089568   -0.000000
 ---------------------------------------------------------------------

 SCF Done:  E(RHF) =  -33.6526675688     A.U. after   11 cycles
 E2 =    -0.2283280837D+00 EUMP2 =    -0.33880995652483D+02
 CCSD(T)
 CCSD(T)= -0.33897971151D+02

 The electronic state is 1-A'.
 Alpha  occ. eigenvalues --   -1.36196  -1.34883  -0.71837  -0.70509  -0.55982
 Alpha  occ. eigenvalues --   -0.54643  -0.50781  -0.49468
 Alpha virt. eigenvalues --    0.19616   0.20974   0.29870   0.31240   0.79774
 Alpha virt. eigenvalues --    0.81062   0.82701   0.84065   0.85828   0.87202
 Alpha virt. eigenvalues --    1.16745   1.18054   1.21192   1.22545   2.56737

 Mulliken charges:
               1
     1  O   -0.744567
     2  H    0.376652
     3  H    0.367913
     4  O   -0.744448
     5  H    0.374010
     6  H    0.370440
 Sum of Mulliken charges =   0.00000

 Dipole moment (field-independent basis, Debye):
    X=             -3.2291    Y=             -3.9860    Z=             -0.0000  Tot=              5.1298
 Quadrupole moment (field-independent basis, Debye-Ang):
   XX=            -10.0229   YY=             -5.7057   ZZ=            -14.9902
   XY=             -5.2776   XZ=             -0.0000   YZ=              0.0000

 5888\MP4DQ=-33.8923332\MP4SDQ=-33.8943585\CCSD=-33.8954123\CCSD(T)=-33
 Normal termination of Gaussian 16 at Sun Dec 10 07:03:02 2023.
