 Gaussian 16, Revision A.03,
 Gaussian 16:  ES64L-G16RevA.03 25-Dec-2016

 ------------------
 #p CCSD(T)/CEP-31G
 ------------------

 ------------
 H2O_H2O_1070
 ------------
 Symbolic Z-matrix:
 Charge =  0 Multiplicity = 1

                         Standard orientation:
 ---------------------------------------------------------------------
 Center     Atomic      Atomic             Coordinates (Angstroms)
 Number     Number       Type             X           Y           Z
 ---------------------------------------------------------------------
      1          8           0        0.026782    1.527631    0.000000
      2          1           0        0.022878    0.545037    0.000000
      3          1           0       -0.901438    1.849988    0.000000
      4          8           0        0.026782   -1.354483   -0.000000
      5          1           0        0.974884   -1.612568   -0.000000
      6          1           0       -0.524833   -2.167642   -0.000000
 ---------------------------------------------------------------------

 SCF Done:  E(RHF) =  -33.6629050064     A.U. after   11 cycles
 E2 =    -0.2288429835D+00 EUMP2 =    -0.33891747989921D+02
 CCSD(T)
 CCSD(T)= -0.33908287997D+02

 The electronic state is 1-A'.
 Alpha  occ. eigenvalues --   -1.38780  -1.31437  -0.74492  -0.68108  -0.59282
 Alpha  occ. eigenvalues --   -0.53498  -0.51047  -0.46110
 Alpha virt. eigenvalues --    0.17684   0.26407   0.28027   0.44264   0.75700
 Alpha virt. eigenvalues --    0.77940   0.86107   0.86312   0.92371   1.04997
 Alpha virt. eigenvalues --    1.16028   1.18000   1.22913   1.36076   2.52396

 Mulliken charges:
               1
     1  O   -0.785988
     2  H    0.426656
     3  H    0.355120
     4  O   -0.808141
     5  H    0.398792
     6  H    0.413561
 Sum of Mulliken charges =  -0.00000

 Dipole moment (field-independent basis, Debye):
    X=             -1.1937    Y=             -4.5398    Z=             -0.0000  Tot=              4.6941
 Quadrupole moment (field-independent basis, Debye-Ang):
   XX=             -9.4811   YY=             -8.7200   ZZ=            -15.0164
   XY=             -4.8359   XZ=             -0.0000   YZ=              0.0000

 53\MP4DQ=-33.9024481\MP4SDQ=-33.9045671\CCSD=-33.9055233\CCSD(T)=-33.9
 Normal termination of Gaussian 16 at Sun Dec 10 06:38:38 2023.
