 Gaussian 16, Revision A.03,
 Gaussian 16:  ES64L-G16RevA.03 25-Dec-2016

 ------------------
 #p CCSD(T)/CEP-31G
 ------------------

 ------------
 H2O_H2O_1522
 ------------
 Symbolic Z-matrix:
 Charge =  0 Multiplicity = 1

                         Standard orientation:
 ---------------------------------------------------------------------
 Center     Atomic      Atomic             Coordinates (Angstroms)
 Number     Number       Type             X           Y           Z
 ---------------------------------------------------------------------
      1          8           0       -0.019954    1.703818    0.000000
      2          1           0       -0.016126    0.721224    0.000000
      3          1           0        0.908291    2.026103    0.000000
      4          8           0       -0.019954   -1.536758    0.000000
      5          1           0       -0.993642   -1.668808    0.000000
      6          1           0        0.420735   -2.414996    0.000000
 ---------------------------------------------------------------------

 SCF Done:  E(RHF) =  -33.6608396914     A.U. after   11 cycles
 E2 =    -0.2286975928D+00 EUMP2 =    -0.33889537284214D+02
 CCSD(T)
 CCSD(T)= -0.33906362681D+02

 The electronic state is 1-A'.
 Alpha  occ. eigenvalues --   -1.37901  -1.32647  -0.73626  -0.68468  -0.58357
 Alpha  occ. eigenvalues --   -0.52583  -0.52464  -0.47335
 Alpha virt. eigenvalues --    0.17802   0.25115   0.28632   0.38497   0.77158
 Alpha virt. eigenvalues --    0.80591   0.84045   0.86409   0.89174   1.01850
 Alpha virt. eigenvalues --    1.15555   1.18572   1.21546   1.36498   2.50824

 Mulliken charges:
               1
     1  O   -0.779856
     2  H    0.413510
     3  H    0.363201
     4  O   -0.781956
     5  H    0.387752
     6  H    0.397349
 Sum of Mulliken charges =   0.00000

 Dipole moment (field-independent basis, Debye):
    X=              0.8943    Y=             -4.2209    Z=              0.0000  Tot=              4.3146
 Quadrupole moment (field-independent basis, Debye-Ang):
   XX=             -9.6518   YY=             -8.3239   ZZ=            -15.0072
   XY=              5.7401   XZ=              0.0000   YZ=              0.0000

 8534\MP4DQ=-33.9005825\MP4SDQ=-33.9026875\CCSD=-33.9036942\CCSD(T)=-33
 Normal termination of Gaussian 16 at Sun Dec 10 06:47:31 2023.
