 Gaussian 16, Revision A.03,
 Gaussian 16:  ES64L-G16RevA.03 25-Dec-2016

 ------------------
 #p CCSD(T)/CEP-31G
 ------------------

 ------------
 H2O_H2O_2833
 ------------
 Symbolic Z-matrix:
 Charge =  0 Multiplicity = 1

                         Standard orientation:
 ---------------------------------------------------------------------
 Center     Atomic      Atomic             Coordinates (Angstroms)
 Number     Number       Type             X           Y           Z
 ---------------------------------------------------------------------
      1          8           0        0.070202    2.234044    0.000000
      2          1           0        0.069304    1.251443    0.000000
      3          1           0       -0.858999    2.553560    0.000000
      4          8           0        0.070202   -2.063806   -0.000000
      5          1           0        0.560725   -2.915213   -0.000000
      6          1           0       -0.894267   -2.251697   -0.000000
 ---------------------------------------------------------------------

 SCF Done:  E(RHF) =  -33.6546387764     A.U. after   11 cycles
 E2 =    -0.2283921163D+00 EUMP2 =    -0.33883030892693D+02
 CCSD(T)
 CCSD(T)= -0.33899962896D+02

 The electronic state is 1-A'.
 Alpha  occ. eigenvalues --   -1.36831  -1.34118  -0.72490  -0.69719  -0.56739
 Alpha  occ. eigenvalues --   -0.53909  -0.51440  -0.48722
 Alpha virt. eigenvalues --    0.18448   0.22333   0.29287   0.32412   0.79129
 Alpha virt. eigenvalues --    0.81783   0.82885   0.84835   0.85257   0.88113
 Alpha virt. eigenvalues --    1.16141   1.19241   1.20579   1.26914   2.55714

 Mulliken charges:
               1
     1  O   -0.752626
     2  H    0.388424
     3  H    0.363225
     4  O   -0.750948
     5  H    0.380143
     6  H    0.371782
 Sum of Mulliken charges =  -0.00000

 Dipole moment (field-independent basis, Debye):
    X=             -3.2012    Y=             -4.0861    Z=             -0.0000  Tot=              5.1907
 Quadrupole moment (field-independent basis, Debye-Ang):
   XX=            -10.0295   YY=             -7.1896   ZZ=            -14.9939
   XY=             -4.3862   XZ=             -0.0000   YZ=              0.0000

 574\MP4DQ=-33.8943072\MP4SDQ=-33.8963515\CCSD=-33.8973898\CCSD(T)=-33.
 Normal termination of Gaussian 16 at Sun Dec 10 06:23:59 2023.
