 Gaussian 16, Revision A.03,
 Gaussian 16:  ES64L-G16RevA.03 25-Dec-2016

 ------------------
 #p CCSD(T)/CEP-31G
 ------------------

 ------------
 H2O_H2O_1030
 ------------
 Symbolic Z-matrix:
 Charge =  0 Multiplicity = 1

                         Standard orientation:
 ---------------------------------------------------------------------
 Center     Atomic      Atomic             Coordinates (Angstroms)
 Number     Number       Type             X           Y           Z
 ---------------------------------------------------------------------
      1          8           0        0.079875   -1.509970    0.000000
      2          1           0        0.079098   -0.527369    0.000000
      3          1           0       -0.849366   -1.829371    0.000000
      4          8           0        0.079875    1.350955    0.000000
      5          1           0        0.394986    2.281659    0.000000
      6          1           0       -0.902720    1.347199    0.000000
 ---------------------------------------------------------------------

 SCF Done:  E(RHF) =  -33.6564915706     A.U. after   11 cycles
 E2 =    -0.2290313396D+00 EUMP2 =    -0.33885522910248D+02
 CCSD(T)
 CCSD(T)= -0.33902301354D+02

 The electronic state is 1-A'.
 Alpha  occ. eigenvalues --   -1.39066  -1.32286  -0.75101  -0.68461  -0.59053
 Alpha  occ. eigenvalues --   -0.53636  -0.51785  -0.46827
 Alpha virt. eigenvalues --    0.17020   0.25723   0.27640   0.43568   0.75425
 Alpha virt. eigenvalues --    0.78740   0.85121   0.85737   0.92736   1.10902
 Alpha virt. eigenvalues --    1.16394   1.20389   1.22312   1.37321   2.52118

 Mulliken charges:
               1
     1  O   -0.760547
     2  H    0.409382
     3  H    0.343666
     4  O   -0.794592
     5  H    0.425078
     6  H    0.377014
 Sum of Mulliken charges =  -0.00000

 Dipole moment (field-independent basis, Debye):
    X=             -3.5135    Y=              4.2285    Z=              0.0000  Tot=              5.4977
 Quadrupole moment (field-independent basis, Debye-Ang):
   XX=            -10.5163   YY=             -8.9617   ZZ=            -15.0015
   XY=              3.1839   XZ=              0.0000   YZ=              0.0000

 6917\MP4DQ=-33.8963727\MP4SDQ=-33.8985624\CCSD=-33.8995287\CCSD(T)=-33
 Normal termination of Gaussian 16 at Sun Dec 10 06:37:53 2023.
