 Gaussian 16, Revision A.03,
 Gaussian 16:  ES64L-G16RevA.03 25-Dec-2016

 ------------------
 #p CCSD(T)/CEP-31G
 ------------------

 -----------
 H2O_H2O_840
 -----------
 Symbolic Z-matrix:
 Charge =  0 Multiplicity = 1

                         Standard orientation:
 ---------------------------------------------------------------------
 Center     Atomic      Atomic             Coordinates (Angstroms)
 Number     Number       Type             X           Y           Z
 ---------------------------------------------------------------------
      1          8           0        0.044970    1.441759    0.000000
      2          1           0        0.041950    0.459163    0.000000
      3          1           0       -0.883539    1.763281    0.000000
      4          8           0        0.044970   -1.261471    0.000000
      5          1           0        0.860292   -1.809882    0.000000
      6          1           0       -0.738219   -1.854869    0.000000
 ---------------------------------------------------------------------

 SCF Done:  E(RHF) =  -33.6622838582     A.U. after   11 cycles
 E2 =    -0.2291003589D+00 EUMP2 =    -0.33891384217110D+02
 CCSD(T)
 CCSD(T)= -0.33907587619D+02

 The electronic state is 1-A'.
 Alpha  occ. eigenvalues --   -1.39508  -1.30542  -0.74982  -0.68855  -0.59262
 Alpha  occ. eigenvalues --   -0.54243  -0.49902  -0.45145
 Alpha virt. eigenvalues --    0.17454   0.27125   0.27642   0.48435   0.74930
 Alpha virt. eigenvalues --    0.76009   0.85487   0.87437   0.97139   0.98775
 Alpha virt. eigenvalues --    1.14982   1.18636   1.23196   1.36508   2.56717

 Mulliken charges:
               1
     1  O   -0.784527
     2  H    0.436517
     3  H    0.343057
     4  O   -0.820511
     5  H    0.416481
     6  H    0.408983
 Sum of Mulliken charges =   0.00000

 Dipole moment (field-independent basis, Debye):
    X=             -1.9538    Y=             -4.8329    Z=              0.0000  Tot=              5.2128
 Quadrupole moment (field-independent basis, Debye-Ang):
   XX=             -9.3667   YY=             -9.0799   ZZ=            -15.0194
   XY=             -4.1364   XZ=              0.0000   YZ=              0.0000

 18\MP4DQ=-33.9017031\MP4SDQ=-33.9038342\CCSD=-33.904728\CCSD(T)=-33.90
 Normal termination of Gaussian 16 at Sun Dec 10 06:34:19 2023.
