 Gaussian 16, Revision A.03,
 Gaussian 16:  ES64L-G16RevA.03 25-Dec-2016

 ------------------
 #p CCSD(T)/CEP-31G
 ------------------

 ------------
 H2O_H2O_1048
 ------------
 Symbolic Z-matrix:
 Charge =  0 Multiplicity = 1

                         Standard orientation:
 ---------------------------------------------------------------------
 Center     Atomic      Atomic             Coordinates (Angstroms)
 Number     Number       Type             X           Y           Z
 ---------------------------------------------------------------------
      1          8           0       -0.016765    1.512331    0.000000
      2          1           0       -0.012238    0.529740    0.000000
      3          1           0        0.911250    1.835276    0.000000
      4          8           0       -0.016765   -1.348997    0.000000
      5          1           0       -0.996957   -1.417779    0.000000
      6          1           0        0.366184   -2.253904    0.000000
 ---------------------------------------------------------------------

 SCF Done:  E(RHF) =  -33.6615819695     A.U. after   11 cycles
 E2 =    -0.2286758553D+00 EUMP2 =    -0.33890257824736D+02
 CCSD(T)
 CCSD(T)= -0.33906876682D+02

 The electronic state is 1-A'.
 Alpha  occ. eigenvalues --   -1.38852  -1.31708  -0.74783  -0.68134  -0.59334
 Alpha  occ. eigenvalues --   -0.53520  -0.51310  -0.46386
 Alpha virt. eigenvalues --    0.17617   0.26345   0.27955   0.44117   0.75568
 Alpha virt. eigenvalues --    0.78367   0.86009   0.86408   0.91039   1.09544
 Alpha virt. eigenvalues --    1.16291   1.19429   1.23310   1.36836   2.53218

 Mulliken charges:
               1
     1  O   -0.781618
     2  H    0.413967
     3  H    0.359722
     4  O   -0.808342
     5  H    0.395853
     6  H    0.420419
 Sum of Mulliken charges =   0.00000

 Dipole moment (field-independent basis, Debye):
    X=              0.7513    Y=             -4.3156    Z=              0.0000  Tot=              4.3805
 Quadrupole moment (field-independent basis, Debye-Ang):
   XX=             -9.7323   YY=             -8.8591   ZZ=            -15.0134
   XY=              5.1875   XZ=              0.0000   YZ=              0.0000

 147\MP4DQ=-33.9010136\MP4SDQ=-33.9031574\CCSD=-33.9041197\CCSD(T)=-33.
 Normal termination of Gaussian 16 at Sun Dec 10 06:38:13 2023.
