 Gaussian 16, Revision A.03,
 Gaussian 16:  ES64L-G16RevA.03 25-Dec-2016

 ------------------
 #p CCSD(T)/CEP-31G
 ------------------

 ------------
 H2O_H2O_4315
 ------------
 Symbolic Z-matrix:
 Charge =  0 Multiplicity = 1

                         Standard orientation:
 ---------------------------------------------------------------------
 Center     Atomic      Atomic             Coordinates (Angstroms)
 Number     Number       Type             X           Y           Z
 ---------------------------------------------------------------------
      1          8           0        0.044830    2.827924    0.000000
      2          1           0        0.043338    1.845324    0.000000
      3          1           0       -0.884179    3.148001    0.000000
      4          8           0        0.044830   -2.647496   -0.000000
      5          1           0        0.861003   -3.194640   -0.000000
      6          1           0       -0.737435   -3.242113   -0.000000
 ---------------------------------------------------------------------

 SCF Done:  E(RHF) =  -33.6534842273     A.U. after   11 cycles
 E2 =    -0.2282947259D+00 EUMP2 =    -0.33881778953199D+02
 CCSD(T)
 CCSD(T)= -0.33898731177D+02

 The electronic state is 1-A'.
 Alpha  occ. eigenvalues --   -1.36293  -1.34598  -0.71932  -0.70228  -0.56125
 Alpha  occ. eigenvalues --   -0.54387  -0.50889  -0.49197
 Alpha virt. eigenvalues --    0.19548   0.21326   0.29821   0.31606   0.79665
 Alpha virt. eigenvalues --    0.81317   0.82489   0.84312   0.85700   0.87426
 Alpha virt. eigenvalues --    1.16682   1.18382   1.21124   1.22911   2.56644

 Mulliken charges:
               1
     1  O   -0.747738
     2  H    0.379674
     3  H    0.368040
     4  O   -0.747099
     5  H    0.374675
     6  H    0.372447
 Sum of Mulliken charges =   0.00000

 Dipole moment (field-independent basis, Debye):
    X=             -2.0575    Y=             -4.2370    Z=             -0.0000  Tot=              4.7101
 Quadrupole moment (field-independent basis, Debye-Ang):
   XX=             -9.4283   YY=             -5.2725   ZZ=            -14.9920
   XY=             -7.3085   XZ=             -0.0000   YZ=              0.0000

 508\MP4DQ=-33.8930988\MP4SDQ=-33.8951225\CCSD=-33.8961741\CCSD(T)=-33.
 Normal termination of Gaussian 16 at Sun Dec 10 06:50:40 2023.
