 Gaussian 16, Revision A.03,
 Gaussian 16:  ES64L-G16RevA.03 25-Dec-2016

 ------------------
 #p CCSD(T)/CEP-31G
 ------------------

 ------------
 H2O_H2O_3839
 ------------
 Symbolic Z-matrix:
 Charge =  0 Multiplicity = 1

                         Standard orientation:
 ---------------------------------------------------------------------
 Center     Atomic      Atomic             Coordinates (Angstroms)
 Number     Number       Type             X           Y           Z
 ---------------------------------------------------------------------
      1          8           0        0.048566    2.638446   -0.000000
      2          1           0        0.047088    1.655846   -0.000000
      3          1           0       -0.880447    2.958510   -0.000000
      4          8           0        0.048566   -2.458039    0.000000
      5          1           0        0.827215   -3.057381    0.000000
      6          1           0       -0.770906   -3.000232    0.000000
 ---------------------------------------------------------------------

 SCF Done:  E(RHF) =  -33.6538985424     A.U. after   11 cycles
 E2 =    -0.2282905717D+00 EUMP2 =    -0.33882189114094D+02
 CCSD(T)
 CCSD(T)= -0.33899129320D+02

 The electronic state is 1-A'.
 Alpha  occ. eigenvalues --   -1.36411  -1.34430  -0.72052  -0.70056  -0.56269
 Alpha  occ. eigenvalues --   -0.54228  -0.51013  -0.49034
 Alpha virt. eigenvalues --    0.19388   0.21567   0.29725   0.31819   0.79546
 Alpha virt. eigenvalues --    0.81469   0.82309   0.84487   0.85556   0.87607
 Alpha virt. eigenvalues --    1.16581   1.18599   1.21018   1.23283   2.56542

 Mulliken charges:
               1
     1  O   -0.749345
     2  H    0.382080
     3  H    0.367155
     4  O   -0.748464
     5  H    0.375805
     6  H    0.372769
 Sum of Mulliken charges =   0.00000

 Dipole moment (field-independent basis, Debye):
    X=             -2.2249    Y=             -4.2547    Z=              0.0000  Tot=              4.8013
 Quadrupole moment (field-independent basis, Debye-Ang):
   XX=             -9.4615   YY=             -5.7067   ZZ=            -14.9929
   XY=             -6.5952   XZ=              0.0000   YZ=             -0.0000

 7481\MP4DQ=-33.8934978\MP4SDQ=-33.8955224\CCSD=-33.8965717\CCSD(T)=-33
 Normal termination of Gaussian 16 at Sun Dec 10 06:42:05 2023.
