 Gaussian 16, Revision A.03,
 Gaussian 16:  ES64L-G16RevA.03 25-Dec-2016

 ------------------
 #p CCSD(T)/CEP-31G
 ------------------

 ------------
 H2O_H2O_4244
 ------------
 Symbolic Z-matrix:
 Charge =  0 Multiplicity = 1

                         Standard orientation:
 ---------------------------------------------------------------------
 Center     Atomic      Atomic             Coordinates (Angstroms)
 Number     Number       Type             X           Y           Z
 ---------------------------------------------------------------------
      1          8           0        0.030154    2.795405    0.000000
      2          1           0        0.028187    1.812805    0.000000
      3          1           0       -0.898699    3.115932   -0.000000
      4          8           0        0.030154   -2.619774    0.000000
      5          1           0        0.959975   -2.937483    0.000000
      6          1           0       -0.571933   -3.396303   -0.000000
 ---------------------------------------------------------------------

 SCF Done:  E(RHF) =  -33.6536502299     A.U. after   11 cycles
 E2 =    -0.2282853152D+00 EUMP2 =    -0.33881935545052D+02
 CCSD(T)
 CCSD(T)= -0.33898883711D+02

 The electronic state is 1-A'.
 Alpha  occ. eigenvalues --   -1.36302  -1.34615  -0.71942  -0.70250  -0.56143
 Alpha  occ. eigenvalues --   -0.54412  -0.50901  -0.49218
 Alpha virt. eigenvalues --    0.19539   0.21320   0.29817   0.31600   0.79652
 Alpha virt. eigenvalues --    0.81294   0.82461   0.84282   0.85677   0.87386
 Alpha virt. eigenvalues --    1.16680   1.18378   1.21112   1.22925   2.56634

 Mulliken charges:
               1
     1  O   -0.748378
     2  H    0.379504
     3  H    0.368845
     4  O   -0.747705
     5  H    0.374334
     6  H    0.373400
 Sum of Mulliken charges =   0.00000

 Dipole moment (field-independent basis, Debye):
    X=             -1.3832    Y=             -4.1248    Z=             -0.0000  Tot=              4.3506
 Quadrupole moment (field-independent basis, Debye-Ang):
   XX=             -9.4746   YY=             -5.7250   ZZ=            -14.9924
   XY=             -8.5061   XZ=              0.0000   YZ=             -0.0000

 034\MP4DQ=-33.8932522\MP4SDQ=-33.8952756\CCSD=-33.8963268\CCSD(T)=-33.
 Normal termination of Gaussian 16 at Sun Dec 10 06:49:23 2023.
