 Gaussian 16, Revision A.03,
 Gaussian 16:  ES64L-G16RevA.03 25-Dec-2016

 ------------------
 #p CCSD(T)/CEP-31G
 ------------------

 ------------
 H2O_H2O_1712
 ------------
 Symbolic Z-matrix:
 Charge =  0 Multiplicity = 1

                         Standard orientation:
 ---------------------------------------------------------------------
 Center     Atomic      Atomic             Coordinates (Angstroms)
 Number     Number       Type             X           Y           Z
 ---------------------------------------------------------------------
      1          8           0        0.056032    1.789992    0.000000
      2          1           0        0.054187    0.807393    0.000000
      3          1           0       -0.872862    2.110403   -0.000000
      4          8           0        0.056032   -1.611137    0.000000
      5          1           0        0.749531   -2.307244    0.000000
      6          1           0       -0.827360   -2.041399   -0.000000
 ---------------------------------------------------------------------

 SCF Done:  E(RHF) =  -33.6594794591     A.U. after   11 cycles
 E2 =    -0.2287569511D+00 EUMP2 =    -0.33888236410282D+02
 CCSD(T)
 CCSD(T)= -0.33905077496D+02

 The electronic state is 1-A'.
 Alpha  occ. eigenvalues --   -1.37695  -1.32743  -0.73350  -0.68457  -0.58034
 Alpha  occ. eigenvalues --   -0.52542  -0.52368  -0.47392
 Alpha virt. eigenvalues --    0.17954   0.24588   0.28741   0.37125   0.77686
 Alpha virt. eigenvalues --    0.81725   0.83628   0.85825   0.90306   0.94325
 Alpha virt. eigenvalues --    1.15370   1.19942   1.20661   1.33938   2.50285

 Mulliken charges:
               1
     1  O   -0.773622
     2  H    0.415158
     3  H    0.356510
     4  O   -0.771176
     5  H    0.392537
     6  H    0.380593
 Sum of Mulliken charges =   0.00000

 Dipole moment (field-independent basis, Debye):
    X=             -2.5101    Y=             -4.4653    Z=             -0.0000  Tot=              5.1224
 Quadrupole moment (field-independent basis, Debye-Ang):
   XX=             -9.5752   YY=             -7.8290   ZZ=            -15.0043
   XY=             -4.5487   XZ=              0.0000   YZ=             -0.0000

 5974\MP4DQ=-33.8993283\MP4SDQ=-33.9014146\CCSD=-33.9024293\CCSD(T)=-33
 Normal termination of Gaussian 16 at Sun Dec 10 06:51:13 2023.
