 Gaussian 16, Revision A.03,
 Gaussian 16:  ES64L-G16RevA.03 25-Dec-2016

 ------------------
 #p CCSD(T)/CEP-31G
 ------------------

 ------------
 H2O_H2O_1745
 ------------
 Symbolic Z-matrix:
 Charge =  0 Multiplicity = 1

                         Standard orientation:
 ---------------------------------------------------------------------
 Center     Atomic      Atomic             Coordinates (Angstroms)
 Number     Number       Type             X           Y           Z
 ---------------------------------------------------------------------
      1          8           0        0.026728    1.796888    0.000000
      2          1           0        0.023438    0.814292    0.000000
      3          1           0       -0.901693    2.118665    0.000000
      4          8           0        0.026728   -1.623707   -0.000000
      5          1           0        0.974992   -1.881199   -0.000000
      6          1           0       -0.524378   -2.437211   -0.000000
 ---------------------------------------------------------------------

 SCF Done:  E(RHF) =  -33.6600540322     A.U. after   11 cycles
 E2 =    -0.2286496645D+00 EUMP2 =    -0.33888703696640D+02
 CCSD(T)
 CCSD(T)= -0.33905547772D+02

 The electronic state is 1-A'.
 Alpha  occ. eigenvalues --   -1.37616  -1.32846  -0.73286  -0.68582  -0.57979
 Alpha  occ. eigenvalues --   -0.52696  -0.52296  -0.47526
 Alpha virt. eigenvalues --    0.17972   0.24597   0.28859   0.36803   0.77760
 Alpha virt. eigenvalues --    0.81557   0.83475   0.86412   0.88798   0.95796
 Alpha virt. eigenvalues --    1.15542   1.19453   1.21088   1.34872   2.50979

 Mulliken charges:
               1
     1  O   -0.776376
     2  H    0.411197
     3  H    0.362695
     4  O   -0.773004
     5  H    0.386214
     6  H    0.389274
 Sum of Mulliken charges =   0.00000

 Dipole moment (field-independent basis, Debye):
    X=             -1.1999    Y=             -4.3143    Z=             -0.0000  Tot=              4.4781
 Quadrupole moment (field-independent basis, Debye-Ang):
   XX=             -9.5052   YY=             -7.9445   ZZ=            -15.0052
   XY=             -5.7293   XZ=             -0.0000   YZ=              0.0000

 663\MP4DQ=-33.8998046\MP4SDQ=-33.9018918\CCSD=-33.9029075\CCSD(T)=-33.
 Normal termination of Gaussian 16 at Sun Dec 10 06:51:50 2023.
