 Gaussian 16, Revision A.03,
 Gaussian 16:  ES64L-G16RevA.03 25-Dec-2016

 ------------------
 #p CCSD(T)/CEP-31G
 ------------------

 ------------
 H2O_H2O_2691
 ------------
 Symbolic Z-matrix:
 Charge =  0 Multiplicity = 1

                         Standard orientation:
 ---------------------------------------------------------------------
 Center     Atomic      Atomic             Coordinates (Angstroms)
 Number     Number       Type             X           Y           Z
 ---------------------------------------------------------------------
      1          8           0        0.041156    2.179471    0.000000
      2          1           0        0.039051    1.196872    0.000000
      3          1           0       -0.887653    2.500128   -0.000000
      4          8           0        0.041156   -1.999560    0.000000
      5          1           0        0.891059   -2.492682    0.000000
      6          1           0       -0.700946   -2.643604   -0.000000
 ---------------------------------------------------------------------

 SCF Done:  E(RHF) =  -33.6561970341     A.U. after   11 cycles
 E2 =    -0.2283700334D+00 EUMP2 =    -0.33884567067483D+02
 CCSD(T)
 CCSD(T)= -0.33901460267D+02

 The electronic state is 1-A'.
 Alpha  occ. eigenvalues --   -1.36877  -1.33766  -0.72524  -0.69391  -0.56880
 Alpha  occ. eigenvalues --   -0.53608  -0.51511  -0.48399
 Alpha virt. eigenvalues --    0.18601   0.22729   0.29383   0.32881   0.79043
 Alpha virt. eigenvalues --    0.82089   0.83557   0.84478   0.85577   0.88186
 Alpha virt. eigenvalues --    1.16195   1.19651   1.20622   1.27576   2.55093

 Mulliken charges:
               1
     1  O   -0.758851
     2  H    0.392571
     3  H    0.364890
     4  O   -0.754963
     5  H    0.379895
     6  H    0.376458
 Sum of Mulliken charges =   0.00000

 Dipole moment (field-independent basis, Debye):
    X=             -1.8699    Y=             -4.3309    Z=             -0.0000  Tot=              4.7173
 Quadrupole moment (field-independent basis, Debye-Ang):
   XX=             -9.4062   YY=             -6.7761   ZZ=            -14.9974
   XY=             -6.0663   XZ=              0.0000   YZ=             -0.0000

 507\MP4DQ=-33.895806\MP4SDQ=-33.897853\CCSD=-33.8988865\CCSD(T)=-33.90
 Normal termination of Gaussian 16 at Sun Dec 10 06:21:26 2023.
