 Gaussian 16, Revision A.03,
 Gaussian 16:  ES64L-G16RevA.03 25-Dec-2016

 ------------------
 #p CCSD(T)/CEP-31G
 ------------------

 -----------
 H2O_H2O_571
 -----------
 Symbolic Z-matrix:
 Charge =  0 Multiplicity = 1

                         Standard orientation:
 ---------------------------------------------------------------------
 Center     Atomic      Atomic             Coordinates (Angstroms)
 Number     Number       Type             X           Y           Z
 ---------------------------------------------------------------------
      1          8           0       -0.023396    1.326641    0.000000
      2          1           0       -0.018629    0.344051    0.000000
      3          1           0        0.904540    1.649813    0.000000
      4          8           0       -0.023396   -1.156357    0.000000
      5          1           0       -0.986175   -1.352726    0.000000
      6          1           0        0.474598   -2.003415    0.000000
 ---------------------------------------------------------------------

 SCF Done:  E(RHF) =  -33.6548835840     A.U. after   11 cycles
 E2 =    -0.2284150916D+00 EUMP2 =    -0.33883298675677D+02
 CCSD(T)
 CCSD(T)= -0.33899142152D+02

 The electronic state is 1-A'.
 Alpha  occ. eigenvalues --   -1.40802  -1.29694  -0.76768  -0.69962  -0.58963
 Alpha  occ. eigenvalues --   -0.55318  -0.48612  -0.44235
 Alpha virt. eigenvalues --    0.17310   0.26741   0.28152   0.53266   0.74099
 Alpha virt. eigenvalues --    0.75525   0.86760   0.88836   0.94264   1.03019
 Alpha virt. eigenvalues --    1.15695   1.20982   1.25778   1.37672   2.67672

 Mulliken charges:
               1
     1  O   -0.772590
     2  H    0.402444
     3  H    0.344614
     4  O   -0.837750
     5  H    0.414848
     6  H    0.448434
 Sum of Mulliken charges =  -0.00000

 Dipole moment (field-independent basis, Debye):
    X=              1.0363    Y=             -4.8285    Z=              0.0000  Tot=              4.9384
 Quadrupole moment (field-independent basis, Debye-Ang):
   XX=             -9.5167   YY=             -9.5218   ZZ=            -15.0101
   XY=              4.2262   XZ=              0.0000   YZ=              0.0000

 31\MP4DQ=-33.8931848\MP4SDQ=-33.8953686\CCSD=-33.896203\CCSD(T)=-33.89
 Normal termination of Gaussian 16 at Sun Dec 10 06:29:16 2023.
