 Gaussian 16, Revision A.03,
 Gaussian 16:  ES64L-G16RevA.03 25-Dec-2016

 ------------------
 #p CCSD(T)/CEP-31G
 ------------------

 ------------
 H2O_H2O_1309
 ------------
 Symbolic Z-matrix:
 Charge =  0 Multiplicity = 1

                         Standard orientation:
 ---------------------------------------------------------------------
 Center     Atomic      Atomic             Coordinates (Angstroms)
 Number     Number       Type             X           Y           Z
 ---------------------------------------------------------------------
      1          8           0        0.066801    1.627282   -0.000000
      2          1           0        0.065358    0.644682   -0.000000
      3          1           0       -0.862223    1.947313   -0.000000
      4          8           0        0.066801   -1.454241    0.000000
      5          1           0        0.611506   -2.272044    0.000000
      6          1           0       -0.883454   -1.704282    0.000000
 ---------------------------------------------------------------------

 SCF Done:  E(RHF) =  -33.6600288991     A.U. after   11 cycles
 E2 =    -0.2289792376D+00 EUMP2 =    -0.33889008136693D+02
 CCSD(T)
 CCSD(T)= -0.33905780902D+02

 The electronic state is 1-A'.
 Alpha  occ. eigenvalues --   -1.38331  -1.32270  -0.74043  -0.68259  -0.58714
 Alpha  occ. eigenvalues --   -0.53001  -0.51942  -0.46890
 Alpha virt. eigenvalues --    0.17554   0.25436   0.28203   0.40713   0.76502
 Alpha virt. eigenvalues --    0.79670   0.84864   0.85461   0.92184   1.03418
 Alpha virt. eigenvalues --    1.14947   1.18645   1.21434   1.35805   2.50088

 Mulliken charges:
               1
     1  O   -0.775060
     2  H    0.423644
     3  H    0.349660
     4  O   -0.787424
     5  H    0.407917
     6  H    0.381263
 Sum of Mulliken charges =  -0.00000

 Dipole moment (field-independent basis, Debye):
    X=             -2.9576    Y=             -4.4439    Z=              0.0000  Tot=              5.3381
 Quadrupole moment (field-independent basis, Debye-Ang):
   XX=             -9.8945   YY=             -8.4236   ZZ=            -15.0069
   XY=             -3.8938   XZ=              0.0000   YZ=             -0.0000

 2509\MP4DQ=-33.8999546\MP4SDQ=-33.9020751\CCSD=-33.9030661\CCSD(T)=-33
 Normal termination of Gaussian 16 at Sun Dec 10 06:43:17 2023.
