 Gaussian 16, Revision A.03,
 Gaussian 16:  ES64L-G16RevA.03 25-Dec-2016

 ------------------
 #p CCSD(T)/CEP-31G
 ------------------

 ------------
 H2O_H2O_3162
 ------------
 Symbolic Z-matrix:
 Charge =  0 Multiplicity = 1

                         Standard orientation:
 ---------------------------------------------------------------------
 Center     Atomic      Atomic             Coordinates (Angstroms)
 Number     Number       Type             X           Y           Z
 ---------------------------------------------------------------------
      1          8           0        0.055989    2.368390   -0.000000
      2          1           0        0.054612    1.385790   -0.000000
      3          1           0       -0.873057    2.688359    0.000000
      4          8           0        0.055989   -2.189481   -0.000000
      5          1           0        0.749819   -2.885258   -0.000000
      6          1           0       -0.827198   -2.620164    0.000000
 ---------------------------------------------------------------------

 SCF Done:  E(RHF) =  -33.6547129483     A.U. after   11 cycles
 E2 =    -0.2283239567D+00 EUMP2 =    -0.33883036904975D+02
 CCSD(T)
 CCSD(T)= -0.33899957193D+02

 The electronic state is 1-A'.
 Alpha  occ. eigenvalues --   -1.36655  -1.34135  -0.72302  -0.69751  -0.56562
 Alpha  occ. eigenvalues --   -0.53943  -0.51268  -0.48746
 Alpha virt. eigenvalues --    0.18940   0.22080   0.29509   0.32225   0.79302
 Alpha virt. eigenvalues --    0.81743   0.82385   0.84782   0.85260   0.87961
 Alpha virt. eigenvalues --    1.16367   1.19086   1.20782   1.24903   2.56193

 Mulliken charges:
               1
     1  O   -0.752588
     2  H    0.386839
     3  H    0.365152
     4  O   -0.750892
     5  H    0.378257
     6  H    0.373231
 Sum of Mulliken charges =  -0.00000

 Dipole moment (field-independent basis, Debye):
    X=             -2.5562    Y=             -4.2625    Z=              0.0000  Tot=              4.9702
 Quadrupole moment (field-independent basis, Debye-Ang):
   XX=             -9.5841   YY=             -6.4117   ZZ=            -14.9944
   XY=             -5.5478   XZ=             -0.0000   YZ=              0.0000

 566\MP4DQ=-33.8943182\MP4SDQ=-33.8963516\CCSD=-33.8973937\CCSD(T)=-33.
 Normal termination of Gaussian 16 at Sun Dec 10 06:29:59 2023.
