 Gaussian 16, Revision A.03,
 Gaussian 16:  ES64L-G16RevA.03 25-Dec-2016

 ------------------
 #p CCSD(T)/CEP-31G
 ------------------

 -----------
 H2O_H2O_477
 -----------
 Symbolic Z-matrix:
 Charge =  0 Multiplicity = 1

                         Standard orientation:
 ---------------------------------------------------------------------
 Center     Atomic      Atomic             Coordinates (Angstroms)
 Number     Number       Type             X           Y           Z
 ---------------------------------------------------------------------
      1          8           0        0.088243   -1.282589    0.000000
      2          1           0        0.087912   -0.299987    0.000000
      3          1           0       -0.841143   -1.601568    0.000000
      4          8           0        0.088243    1.138296    0.000000
      5          1           0        0.216171    2.112535    0.000000
      6          1           0       -0.874827    0.943355    0.000000
 ---------------------------------------------------------------------

 SCF Done:  E(RHF) =  -33.6341671228     A.U. after   11 cycles
 E2 =    -0.2288588972D+00 EUMP2 =    -0.33863026020060D+02
 CCSD(T)
 CCSD(T)= -0.33879313256D+02

 The electronic state is 1-A'.
 Alpha  occ. eigenvalues --   -1.41988  -1.31275  -0.79448  -0.69109  -0.58908
 Alpha  occ. eigenvalues --   -0.55841  -0.50180  -0.45581
 Alpha virt. eigenvalues --    0.16373   0.24723   0.28307   0.52892   0.73516
 Alpha virt. eigenvalues --    0.77028   0.86052   0.88251   0.94991   1.10528
 Alpha virt. eigenvalues --    1.13669   1.23895   1.29672   1.42466   2.69882

 Mulliken charges:
               1
     1  O   -0.707085
     2  H    0.329425
     3  H    0.326569
     4  O   -0.789132
     5  H    0.463438
     6  H    0.376785
 Sum of Mulliken charges =   0.00000

 Dipole moment (field-independent basis, Debye):
    X=             -3.7773    Y=              4.2870    Z=              0.0000  Tot=              5.7137
 Quadrupole moment (field-independent basis, Debye-Ang):
   XX=            -11.0443   YY=             -9.8039   ZZ=            -14.9698
   XY=              2.5275   XZ=              0.0000   YZ=              0.0000

 61\MP4DQ=-33.8731131\MP4SDQ=-33.8754936\CCSD=-33.8763185\CCSD(T)=-33.8
 Normal termination of Gaussian 16 at Sun Dec 10 06:27:30 2023.
