 Gaussian 16, Revision A.03,
 Gaussian 16:  ES64L-G16RevA.03 25-Dec-2016

 ------------------
 #p CCSD(T)/CEP-31G
 ------------------

 ------------
 H2O_H2O_1407
 ------------
 Symbolic Z-matrix:
 Charge =  0 Multiplicity = 1

                         Standard orientation:
 ---------------------------------------------------------------------
 Center     Atomic      Atomic             Coordinates (Angstroms)
 Number     Number       Type             X           Y           Z
 ---------------------------------------------------------------------
      1          8           0        0.073562    1.663829    0.000000
      2          1           0        0.072520    0.681228    0.000000
      3          1           0       -0.855592    1.983481   -0.000000
      4          8           0        0.073562   -1.496935    0.000000
      5          1           0        0.507221   -2.378664    0.000000
      6          1           0       -0.901149   -1.621202   -0.000000
 ---------------------------------------------------------------------

 SCF Done:  E(RHF) =  -33.6584442358     A.U. after   11 cycles
 E2 =    -0.2289335374D+00 EUMP2 =    -0.33887377773216D+02
 CCSD(T)
 CCSD(T)= -0.33904250459D+02

 The electronic state is 1-A'.
 Alpha  occ. eigenvalues --   -1.38183  -1.32716  -0.73948  -0.68503  -0.58459
 Alpha  occ. eigenvalues --   -0.52821  -0.52401  -0.47321
 Alpha virt. eigenvalues --    0.17433   0.25052   0.28245   0.39264   0.76787
 Alpha virt. eigenvalues --    0.80400   0.84305   0.85347   0.91116   1.04024
 Alpha virt. eigenvalues --    1.14975   1.18334   1.21368   1.36998   2.50101

 Mulliken charges:
               1
     1  O   -0.769571
     2  H    0.416076
     3  H    0.350895
     4  O   -0.779387
     5  H    0.405262
     6  H    0.376726
 Sum of Mulliken charges =   0.00000

 Dipole moment (field-independent basis, Debye):
    X=             -3.2764    Y=             -4.2635    Z=             -0.0000  Tot=              5.3770
 Quadrupole moment (field-independent basis, Debye-Ang):
   XX=            -10.1840   YY=             -8.4481   ZZ=            -15.0024
   XY=             -3.6287   XZ=              0.0000   YZ=             -0.0000

 7145\MP4DQ=-33.8984252\MP4SDQ=-33.9005529\CCSD=-33.9015561\CCSD(T)=-33
 Normal termination of Gaussian 16 at Sun Dec 10 06:45:14 2023.
