 Gaussian 16, Revision A.03,
 Gaussian 16:  ES64L-G16RevA.03 25-Dec-2016

 ------------------
 #p CCSD(T)/CEP-31G
 ------------------

 ------------
 H2O_H2O_3352
 ------------
 Symbolic Z-matrix:
 Charge =  0 Multiplicity = 1

                         Standard orientation:
 ---------------------------------------------------------------------
 Center     Atomic      Atomic             Coordinates (Angstroms)
 Number     Number       Type             X           Y           Z
 ---------------------------------------------------------------------
      1          8           0        0.088231   -2.429375    0.000000
      2          1           0        0.088061   -1.446774    0.000000
      3          1           0       -0.841207   -2.748202    0.000000
      4          8           0        0.088231    2.285054    0.000000
      5          1           0        0.216318    3.259272    0.000000
      6          1           0       -0.874871    2.090271    0.000000
 ---------------------------------------------------------------------

 SCF Done:  E(RHF) =  -33.6526330361     A.U. after   11 cycles
 E2 =    -0.2283742402D+00 EUMP2 =    -0.33881007276345D+02
 CCSD(T)
 CCSD(T)= -0.33897987922D+02

 The electronic state is 1-A'.
 Alpha  occ. eigenvalues --   -1.36625  -1.34823  -0.72288  -0.70425  -0.56417
 Alpha  occ. eigenvalues --   -0.54565  -0.51204  -0.49398
 Alpha virt. eigenvalues --    0.18462   0.21569   0.29442   0.31397   0.79374
 Alpha virt. eigenvalues --    0.81132   0.82315   0.84127   0.85376   0.87552
 Alpha virt. eigenvalues --    1.16126   1.18403   1.20760   1.23970   2.56041

 Mulliken charges:
               1
     1  O   -0.744555
     2  H    0.379337
     3  H    0.365000
     4  O   -0.745030
     5  H    0.377580
     6  H    0.367668
 Sum of Mulliken charges =  -0.00000

 Dipole moment (field-independent basis, Debye):
    X=             -4.0420    Y=              3.4273    Z=              0.0000  Tot=              5.2995
 Quadrupole moment (field-independent basis, Debye-Ang):
   XX=            -10.9738   YY=             -8.6987   ZZ=            -14.9894
   XY=              2.8854   XZ=              0.0000   YZ=              0.0000

 971\MP4DQ=-33.8923398\MP4SDQ=-33.8943721\CCSD=-33.8954211\CCSD(T)=-33.
 Normal termination of Gaussian 16 at Sun Dec 10 06:33:23 2023.
