 Gaussian 16, Revision A.03,
 Gaussian 16:  ES64L-G16RevA.03 25-Dec-2016

 ------------------
 #p CCSD(T)/CEP-31G
 ------------------

 ------------
 H2O_H2O_2333
 ------------
 Symbolic Z-matrix:
 Charge =  0 Multiplicity = 1

                         Standard orientation:
 ---------------------------------------------------------------------
 Center     Atomic      Atomic             Coordinates (Angstroms)
 Number     Number       Type             X           Y           Z
 ---------------------------------------------------------------------
      1          8           0        0.070210    2.034599   -0.000000
      2          1           0        0.069220    1.051998   -0.000000
      3          1           0       -0.858961    2.354202   -0.000000
      4          8           0        0.070210   -1.864374    0.000000
      5          1           0        0.560653   -2.715826    0.000000
      6          1           0       -0.894278   -2.052175    0.000000
 ---------------------------------------------------------------------

 SCF Done:  E(RHF) =  -33.6557814055     A.U. after   11 cycles
 E2 =    -0.2285190492D+00 EUMP2 =    -0.33884300454649D+02
 CCSD(T)
 CCSD(T)= -0.33901230949D+02

 The electronic state is 1-A'.
 Alpha  occ. eigenvalues --   -1.37146  -1.33750  -0.72817  -0.69345  -0.57146
 Alpha  occ. eigenvalues --   -0.53544  -0.51767  -0.48363
 Alpha virt. eigenvalues --    0.17999   0.23114   0.29066   0.33464   0.78720
 Alpha virt. eigenvalues --    0.82224   0.83423   0.85112   0.87352   0.88536
 Alpha virt. eigenvalues --    1.15816   1.19720   1.20389   1.31221   2.53956

 Mulliken charges:
               1
     1  O   -0.758097
     2  H    0.395670
     3  H    0.360585
     4  O   -0.755008
     5  H    0.383957
     6  H    0.372892
 Sum of Mulliken charges =   0.00000

 Dipole moment (field-independent basis, Debye):
    X=             -3.1864    Y=             -4.1457    Z=              0.0000  Tot=              5.2288
 Quadrupole moment (field-independent basis, Debye-Ang):
   XX=            -10.0321   YY=             -7.5616   ZZ=            -14.9959
   XY=             -4.1725   XZ=             -0.0000   YZ=             -0.0000

 2\MP4DQ=-33.8955388\MP4SDQ=-33.8976059\CCSD=-33.8986363\CCSD(T)=-33.90
 Normal termination of Gaussian 16 at Sun Dec 10 07:04:22 2023.
