 Gaussian 16, Revision A.03,
 Gaussian 16:  ES64L-G16RevA.03 25-Dec-2016

 ------------------
 #p CCSD(T)/CEP-31G
 ------------------

 ------------
 H2O_H2O_3408
 ------------
 Symbolic Z-matrix:
 Charge =  0 Multiplicity = 1

                         Standard orientation:
 ---------------------------------------------------------------------
 Center     Atomic      Atomic             Coordinates (Angstroms)
 Number     Number       Type             X           Y           Z
 ---------------------------------------------------------------------
      1          8           0        0.070195    2.463405   -0.000000
      2          1           0        0.069383    1.480804   -0.000000
      3          1           0       -0.859035    2.782839   -0.000000
      4          8           0        0.070195   -2.293154    0.000000
      5          1           0        0.560793   -3.144518    0.000000
      6          1           0       -0.894258   -2.481130    0.000000
 ---------------------------------------------------------------------

 SCF Done:  E(RHF) =  -33.6537552644     A.U. after   11 cycles
 E2 =    -0.2283272796D+00 EUMP2 =    -0.33882082544057D+02
 CCSD(T)
 CCSD(T)= -0.33899028161D+02

 The electronic state is 1-A'.
 Alpha  occ. eigenvalues --   -1.36572  -1.34420  -0.72222  -0.70031  -0.56423
 Alpha  occ. eigenvalues --   -0.54200  -0.51170  -0.49015
 Alpha virt. eigenvalues --    0.19007   0.21710   0.29510   0.31885   0.79400
 Alpha virt. eigenvalues --    0.81490   0.82266   0.84536   0.85360   0.87769
 Alpha virt. eigenvalues --    1.16401   1.18698   1.20791   1.24060   2.56396

 Mulliken charges:
               1
     1  O   -0.748841
     2  H    0.383337
     3  H    0.365206
     4  O   -0.748290
     5  H    0.377548
     6  H    0.371041
 Sum of Mulliken charges =  -0.00000

 Dipole moment (field-independent basis, Debye):
    X=             -3.2123    Y=             -4.0398    Z=             -0.0000  Tot=              5.1613
 Quadrupole moment (field-independent basis, Debye-Ang):
   XX=            -10.0271   YY=             -6.7830   ZZ=            -14.9923
   XY=             -4.6317   XZ=              0.0000   YZ=             -0.0000

 641\MP4DQ=-33.8933894\MP4SDQ=-33.8954191\CCSD=-33.8964659\CCSD(T)=-33.
 Normal termination of Gaussian 16 at Sun Dec 10 06:34:22 2023.
