 Gaussian 16, Revision A.03,
 Gaussian 16:  ES64L-G16RevA.03 25-Dec-2016

 ------------------
 #p CCSD(T)/CEP-31G
 ------------------

 ------------
 H2O_H2O_2454
 ------------
 Symbolic Z-matrix:
 Charge =  0 Multiplicity = 1

                         Standard orientation:
 ---------------------------------------------------------------------
 Center     Atomic      Atomic             Coordinates (Angstroms)
 Number     Number       Type             X           Y           Z
 ---------------------------------------------------------------------
      1          8           0        0.082808   -2.075920    0.000000
      2          1           0        0.082377   -1.093319    0.000000
      3          1           0       -0.846546   -2.394994    0.000000
      4          8           0        0.082808    1.921411    0.000000
      5          1           0        0.336707    2.870643    0.000000
      6          1           0       -0.897461    1.853743    0.000000
 ---------------------------------------------------------------------

 SCF Done:  E(RHF) =  -33.6541600337     A.U. after   11 cycles
 E2 =    -0.2285267693D+00 EUMP2 =    -0.33882686802962D+02
 CCSD(T)
 CCSD(T)= -0.33899657326D+02

 The electronic state is 1-A'.
 Alpha  occ. eigenvalues --   -1.37087  -1.34235  -0.72775  -0.69814  -0.56978
 Alpha  occ. eigenvalues --   -0.53991  -0.51681  -0.48823
 Alpha virt. eigenvalues --    0.17575   0.22792   0.29056   0.32690   0.78836
 Alpha virt. eigenvalues --    0.81770   0.83048   0.84723   0.87139   0.88218
 Alpha virt. eigenvalues --    1.15688   1.19239   1.20446   1.30858   2.55178

 Mulliken charges:
               1
     1  O   -0.751590
     2  H    0.389017
     3  H    0.361181
     4  O   -0.750419
     5  H    0.382689
     6  H    0.369121
 Sum of Mulliken charges =  -0.00000

 Dipole moment (field-independent basis, Debye):
    X=             -3.7691    Y=              3.7468    Z=              0.0000  Tot=              5.3146
 Quadrupole moment (field-independent basis, Debye-Ang):
   XX=            -10.6543   YY=             -8.2920   ZZ=            -14.9920
   XY=              3.2939   XZ=              0.0000   YZ=              0.0000

 \MP4DQ=-33.8939669\MP4SDQ=-33.8960312\CCSD=-33.8970653\CCSD(T)=-33.899
 Normal termination of Gaussian 16 at Sun Dec 10 07:06:38 2023.
