 Gaussian 16, Revision A.03,
 Gaussian 16:  ES64L-G16RevA.03 25-Dec-2016

 ------------------
 #p CCSD(T)/CEP-31G
 ------------------

 -----------
 H2O_H2O_953
 -----------
 Symbolic Z-matrix:
 Charge =  0 Multiplicity = 1

                         Standard orientation:
 ---------------------------------------------------------------------
 Center     Atomic      Atomic             Coordinates (Angstroms)
 Number     Number       Type             X           Y           Z
 ---------------------------------------------------------------------
      1          8           0        0.085614   -1.474921    0.000000
      2          1           0        0.085168   -0.492319    0.000000
      3          1           0       -0.843735   -1.794008    0.000000
      4          8           0        0.085614    1.325353    0.000000
      5          1           0        0.276874    2.289162    0.000000
      6          1           0       -0.888129    1.193704    0.000000
 ---------------------------------------------------------------------

 SCF Done:  E(RHF) =  -33.6532273095     A.U. after   11 cycles
 E2 =    -0.2290899752D+00 EUMP2 =    -0.33882317284678D+02
 CCSD(T)
 CCSD(T)= -0.33899146718D+02

 The electronic state is 1-A'.
 Alpha  occ. eigenvalues --   -1.39376  -1.32554  -0.75704  -0.68543  -0.59113
 Alpha  occ. eigenvalues --   -0.53856  -0.51998  -0.47051
 Alpha virt. eigenvalues --    0.16773   0.25532   0.27579   0.44242   0.75056
 Alpha virt. eigenvalues --    0.78813   0.84990   0.85851   0.92400   1.11565
 Alpha virt. eigenvalues --    1.15400   1.22769   1.26036   1.37352   2.52613

 Mulliken charges:
               1
     1  O   -0.748694
     2  H    0.392801
     3  H    0.342429
     4  O   -0.787621
     5  H    0.428262
     6  H    0.372823
 Sum of Mulliken charges =  -0.00000

 Dipole moment (field-independent basis, Debye):
    X=             -3.7682    Y=              4.0348    Z=              0.0000  Tot=              5.5208
 Quadrupole moment (field-independent basis, Debye-Ang):
   XX=            -10.8651   YY=             -9.2197   ZZ=            -14.9955
   XY=              2.8111   XZ=              0.0000   YZ=              0.0000

 947\MP4DQ=-33.8931656\MP4SDQ=-33.8953955\CCSD=-33.8963503\CCSD(T)=-33.
 Normal termination of Gaussian 16 at Sun Dec 10 06:36:26 2023.
