 Gaussian 16, Revision A.03,
 Gaussian 16:  ES64L-G16RevA.03 25-Dec-2016

 ------------------
 #p CCSD(T)/CEP-31G
 ------------------

 ------------
 H2O_H2O_1201
 ------------
 Symbolic Z-matrix:
 Charge =  0 Multiplicity = 1

                         Standard orientation:
 ---------------------------------------------------------------------
 Center     Atomic      Atomic             Coordinates (Angstroms)
 Number     Number       Type             X           Y           Z
 ---------------------------------------------------------------------
      1          8           0        0.090688   -1.568737    0.000000
      2          1           0        0.090559   -0.586135    0.000000
      3          1           0       -0.838764   -1.887524    0.000000
      4          8           0        0.090688    1.430036    0.000000
      5          1           0        0.154826    2.410542    0.000000
      6          1           0       -0.857623    1.172719    0.000000
 ---------------------------------------------------------------------

 SCF Done:  E(RHF) =  -33.6526359409     A.U. after   11 cycles
 E2 =    -0.2292258902D+00 EUMP2 =    -0.33881861831018D+02
 CCSD(T)
 CCSD(T)= -0.33898883954D+02

 The electronic state is 1-A'.
 Alpha  occ. eigenvalues --   -1.38737  -1.33545  -0.74985  -0.68990  -0.58611
 Alpha  occ. eigenvalues --   -0.53235  -0.53108  -0.48055
 Alpha virt. eigenvalues --    0.16640   0.24922   0.27847   0.40384   0.75869
 Alpha virt. eigenvalues --    0.80286   0.84395   0.84722   0.90164   1.11466
 Alpha virt. eigenvalues --    1.15582   1.20050   1.22536   1.39408   2.50366

 Mulliken charges:
               1
     1  O   -0.748205
     2  H    0.389381
     3  H    0.348787
     4  O   -0.765655
     5  H    0.410231
     6  H    0.365462
 Sum of Mulliken charges =   0.00000

 Dipole moment (field-independent basis, Debye):
    X=             -4.0429    Y=              3.6333    Z=              0.0000  Tot=              5.4356
 Quadrupole moment (field-independent basis, Debye-Ang):
   XX=            -11.1920   YY=             -9.3990   ZZ=            -14.9897
   XY=              2.4517   XZ=              0.0000   YZ=              0.0000

 616\MP4DQ=-33.8929466\MP4SDQ=-33.895155\CCSD=-33.8961365\CCSD(T)=-33.8
 Normal termination of Gaussian 16 at Sun Dec 10 06:41:09 2023.
