 Gaussian 16, Revision A.03,
 Gaussian 16:  ES64L-G16RevA.03 25-Dec-2016

 ------------------
 #p CCSD(T)/CEP-31G
 ------------------

 ------------
 H2O_H2O_4022
 ------------
 Symbolic Z-matrix:
 Charge =  0 Multiplicity = 1

                         Standard orientation:
 ---------------------------------------------------------------------
 Center     Atomic      Atomic             Coordinates (Angstroms)
 Number     Number       Type             X           Y           Z
 ---------------------------------------------------------------------
      1          8           0       -0.019830    2.701036    0.000000
      2          1           0       -0.017460    1.718438    0.000000
      3          1           0        0.908892    3.021943    0.000000
      4          8           0       -0.019830   -2.533918    0.000000
      5          1           0       -0.993714   -2.664521    0.000000
      6          1           0        0.419554   -3.412807    0.000000
 ---------------------------------------------------------------------

 SCF Done:  E(RHF) =  -33.6538350043     A.U. after   11 cycles
 E2 =    -0.2282771382D+00 EUMP2 =    -0.33882112142520D+02
 CCSD(T)
 CCSD(T)= -0.33899056080D+02

 The electronic state is 1-A'.
 Alpha  occ. eigenvalues --   -1.36351  -1.34633  -0.71994  -0.70272  -0.56201
 Alpha  occ. eigenvalues --   -0.54438  -0.50952  -0.49239
 Alpha virt. eigenvalues --    0.19448   0.21344   0.29770   0.31602   0.79602
 Alpha virt. eigenvalues --    0.81269   0.82386   0.84250   0.85601   0.87368
 Alpha virt. eigenvalues --    1.16635   1.18388   1.21052   1.23020   2.56572

 Mulliken charges:
               1
     1  O   -0.749100
     2  H    0.379546
     3  H    0.369502
     4  O   -0.748491
     5  H    0.374189
     6  H    0.374354
 Sum of Mulliken charges =  -0.00000

 Dipole moment (field-independent basis, Debye):
    X=              0.9088    Y=             -3.9303    Z=              0.0000  Tot=              4.0340
 Quadrupole moment (field-independent basis, Debye-Ang):
   XX=             -9.6788   YY=             -6.5814   ZZ=            -14.9926
   XY=              9.1553   XZ=              0.0000   YZ=              0.0000

 752\MP4DQ=-33.8934247\MP4SDQ=-33.8954484\CCSD=-33.8964989\CCSD(T)=-33.
 Normal termination of Gaussian 16 at Sun Dec 10 06:45:23 2023.
