 Gaussian 16, Revision A.03,
 Gaussian 16:  ES64L-G16RevA.03 25-Dec-2016

 ------------------
 #p CCSD(T)/CEP-31G
 ------------------

 ------------
 H2O_H2O_1735
 ------------
 Symbolic Z-matrix:
 Charge =  0 Multiplicity = 1

                         Standard orientation:
 ---------------------------------------------------------------------
 Center     Atomic      Atomic             Coordinates (Angstroms)
 Number     Number       Type             X           Y           Z
 ---------------------------------------------------------------------
      1          8           0        0.063268    1.798119    0.000000
      2          1           0        0.061794    0.815519    0.000000
      3          1           0       -0.865745    2.118180    0.000000
      4          8           0        0.063268   -1.622658   -0.000000
      5          1           0        0.660268   -2.403105   -0.000000
      6          1           0       -0.868609   -1.934284   -0.000000
 ---------------------------------------------------------------------

 SCF Done:  E(RHF) =  -33.6586819449     A.U. after   11 cycles
 E2 =    -0.2287573244D+00 EUMP2 =    -0.33887439269360D+02
 CCSD(T)
 CCSD(T)= -0.33904313255D+02

 The electronic state is 1-A'.
 Alpha  occ. eigenvalues --   -1.37684  -1.32911  -0.73358  -0.68591  -0.57958
 Alpha  occ. eigenvalues --   -0.52694  -0.52342  -0.47547
 Alpha virt. eigenvalues --    0.17849   0.24445   0.28712   0.36761   0.77731
 Alpha virt. eigenvalues --    0.81858   0.83470   0.85622   0.90084   0.94907
 Alpha virt. eigenvalues --    1.15329   1.19751   1.20655   1.34621   2.50581

 Mulliken charges:
               1
     1  O   -0.770609
     2  H    0.412587
     3  H    0.355944
     4  O   -0.769154
     5  H    0.393284
     6  H    0.377950
 Sum of Mulliken charges =   0.00000

 Dipole moment (field-independent basis, Debye):
    X=             -2.8382    Y=             -4.3797    Z=             -0.0000  Tot=              5.2189
 Quadrupole moment (field-independent basis, Debye-Ang):
   XX=             -9.7753   YY=             -7.8979   ZZ=            -15.0023
   XY=             -4.2579   XZ=             -0.0000   YZ=              0.0000

 277\MP4DQ=-33.8985587\MP4SDQ=-33.9006504\CCSD=-33.9016675\CCSD(T)=-33.
 Normal termination of Gaussian 16 at Sun Dec 10 06:51:39 2023.
