 Gaussian 16, Revision A.03,
 Gaussian 16:  ES64L-G16RevA.03 25-Dec-2016

 ------------------
 #p CCSD(T)/CEP-31G
 ------------------

 ----------
 H2O_H2O_65
 ----------
 Symbolic Z-matrix:
 Charge =  0 Multiplicity = 1

                         Standard orientation:
 ---------------------------------------------------------------------
 Center     Atomic      Atomic             Coordinates (Angstroms)
 Number     Number       Type             X           Y           Z
 ---------------------------------------------------------------------
      1          8           0        0.045052    1.132590   -0.000000
      2          1           0        0.041136    0.149996   -0.000000
      3          1           0       -0.883164    1.454958   -0.000000
      4          8           0        0.045052   -0.952383    0.000000
      5          1           0        0.859873   -1.501539    0.000000
      6          1           0       -0.738678   -1.545068    0.000000
 ---------------------------------------------------------------------

 SCF Done:  E(RHF) =  -33.5961862299     A.U. after   11 cycles
 E2 =    -0.2273920781D+00 EUMP2 =    -0.33823578308049D+02
 CCSD(T)
 CCSD(T)= -0.33838019021D+02

 The electronic state is 1-A'.
 Alpha  occ. eigenvalues --   -1.46193  -1.26422  -0.80311  -0.79176  -0.59273
 Alpha  occ. eigenvalues --   -0.54181  -0.43124  -0.40293
 Alpha virt. eigenvalues --    0.16172   0.24922   0.30531   0.62395   0.73213
 Alpha virt. eigenvalues --    0.73515   0.85121   0.91890   0.92182   1.07073
 Alpha virt. eigenvalues --    1.13278   1.15943   1.30478   1.36012   2.96505

 Mulliken charges:
               1
     1  O   -0.746738
     2  H    0.294744
     3  H    0.302818
     4  O   -0.762440
     5  H    0.459896
     6  H    0.451720
 Sum of Mulliken charges =   0.00000

 Dipole moment (field-independent basis, Debye):
    X=             -1.8181    Y=             -5.8135    Z=              0.0000  Tot=              6.0912
 Quadrupole moment (field-independent basis, Debye-Ang):
   XX=             -9.2769   YY=            -10.8121   ZZ=            -14.9224
   XY=             -3.2849   XZ=              0.0000   YZ=             -0.0000

 26\MP4DQ=-33.8318136\MP4SDQ=-33.8341792\CCSD=-33.8347483\CCSD(T)=-33.8
 Normal termination of Gaussian 16 at Sun Dec 10 06:19:18 2023.
