 Gaussian 16, Revision A.03,
 Gaussian 16:  ES64L-G16RevA.03 25-Dec-2016

 ------------------
 #p CCSD(T)/CEP-31G
 ------------------

 ------------
 H2O_H2O_4549
 ------------
 Symbolic Z-matrix:
 Charge =  0 Multiplicity = 1

                         Standard orientation:
 ---------------------------------------------------------------------
 Center     Atomic      Atomic             Coordinates (Angstroms)
 Number     Number       Type             X           Y           Z
 ---------------------------------------------------------------------
      1          8           0       -0.013471    2.906188    0.000000
      2          1           0       -0.011087    1.923590    0.000000
      3          1           0        0.915246    3.227109    0.000000
      4          8           0       -0.013471   -2.746911    0.000000
      5          1           0       -0.996070   -2.749294    0.000000
      6          1           0        0.307450   -3.675628    0.000000
 ---------------------------------------------------------------------

 SCF Done:  E(RHF) =  -33.6533278245     A.U. after   11 cycles
 E2 =    -0.2282909596D+00 EUMP2 =    -0.33881618784173D+02
 CCSD(T)
 CCSD(T)= -0.33898577308D+02

 The electronic state is 1-A'.
 Alpha  occ. eigenvalues --   -1.36240  -1.34861  -0.71882  -0.70502  -0.56060
 Alpha  occ. eigenvalues --   -0.54652  -0.50834  -0.49460
 Alpha virt. eigenvalues --    0.19593   0.21036   0.29868   0.31302   0.79717
 Alpha virt. eigenvalues --    0.81060   0.82581   0.84044   0.85734   0.87136
 Alpha virt. eigenvalues --    1.16728   1.18115   1.21170   1.22608   2.56679

 Mulliken charges:
               1
     1  O   -0.747109
     2  H    0.376833
     3  H    0.370270
     4  O   -0.746804
     5  H    0.373047
     6  H    0.373764
 Sum of Mulliken charges =   0.00000

 Dipole moment (field-independent basis, Debye):
    X=              0.6188    Y=             -3.7309    Z=              0.0000  Tot=              3.7819
 Quadrupole moment (field-independent basis, Debye-Ang):
   XX=             -9.8769   YY=             -6.9664   ZZ=            -14.9916
   XY=             10.5382   XZ=              0.0000   YZ=              0.0000

 1961\MP4DQ=-33.8929435\MP4SDQ=-33.8949673\CCSD=-33.8960199\CCSD(T)=-33
 Normal termination of Gaussian 16 at Sun Dec 10 06:54:53 2023.
