 Gaussian 16, Revision A.03,
 Gaussian 16:  ES64L-G16RevA.03 25-Dec-2016

 ------------------
 #p CCSD(T)/CEP-31G
 ------------------

 -----------
 H2O_H2O_111
 -----------
 Symbolic Z-matrix:
 Charge =  0 Multiplicity = 1

                         Standard orientation:
 ---------------------------------------------------------------------
 Center     Atomic      Atomic             Coordinates (Angstroms)
 Number     Number       Type             X           Y           Z
 ---------------------------------------------------------------------
      1          8           0        0.059768    1.150935    0.000000
      2          1           0        0.057107    0.168337    0.000000
      3          1           0       -0.868858    1.472118    0.000000
      4          8           0        0.059768   -0.973662   -0.000000
      5          1           0        0.705639   -1.714173   -0.000000
      6          1           0       -0.850181   -1.344470   -0.000000
 ---------------------------------------------------------------------

 SCF Done:  E(RHF) =  -33.6053441869     A.U. after   11 cycles
 E2 =    -0.2279302401D+00 EUMP2 =    -0.33833274427032D+02
 CCSD(T)
 CCSD(T)= -0.33847926981D+02

 The electronic state is 1-A'.
 Alpha  occ. eigenvalues --   -1.45495  -1.27112  -0.80712  -0.77136  -0.58770
 Alpha  occ. eigenvalues --   -0.54770  -0.44260  -0.41068
 Alpha virt. eigenvalues --    0.16138   0.24834   0.30213   0.61724   0.73231
 Alpha virt. eigenvalues --    0.73638   0.87007   0.91650   0.92663   1.08245
 Alpha virt. eigenvalues --    1.11416   1.17604   1.28659   1.34885   2.97359

 Mulliken charges:
               1
     1  O   -0.738760
     2  H    0.319714
     3  H    0.301486
     4  O   -0.786592
     5  H    0.475071
     6  H    0.429082
 Sum of Mulliken charges =   0.00000

 Dipole moment (field-independent basis, Debye):
    X=             -2.3973    Y=             -5.6328    Z=             -0.0000  Tot=              6.1217
 Quadrupole moment (field-independent basis, Debye-Ang):
   XX=             -9.5663   YY=            -10.6422   ZZ=            -14.9315
   XY=             -3.2624   XZ=             -0.0000   YZ=              0.0000

 019\MP4DQ=-33.8416953\MP4SDQ=-33.8440781\CCSD=-33.8446813\CCSD(T)=-33.
 Normal termination of Gaussian 16 at Sun Dec 10 06:20:14 2023.
