 Gaussian 16, Revision A.03,
 Gaussian 16:  ES64L-G16RevA.03 25-Dec-2016

 ------------------
 #p CCSD(T)/CEP-31G
 ------------------

 -----------
 H2O_H2O_990
 -----------
 Symbolic Z-matrix:
 Charge =  0 Multiplicity = 1

                         Standard orientation:
 ---------------------------------------------------------------------
 Center     Atomic      Atomic             Coordinates (Angstroms)
 Number     Number       Type             X           Y           Z
 ---------------------------------------------------------------------
      1          8           0        0.044958    1.501596    0.000000
      2          1           0        0.042066    0.518999    0.000000
      3          1           0       -0.883593    1.822997    0.000000
      4          8           0        0.044958   -1.321296    0.000000
      5          1           0        0.860351   -1.869603    0.000000
      6          1           0       -0.738152   -1.914797    0.000000
 ---------------------------------------------------------------------

 SCF Done:  E(RHF) =  -33.6630818302     A.U. after   11 cycles
 E2 =    -0.2290930503D+00 EUMP2 =    -0.33892174880459D+02
 CCSD(T)
 CCSD(T)= -0.33908573781D+02

 The electronic state is 1-A'.
 Alpha  occ. eigenvalues --   -1.39016  -1.31039  -0.74562  -0.68295  -0.59295
 Alpha  occ. eigenvalues --   -0.53760  -0.50560  -0.45676
 Alpha virt. eigenvalues --    0.17593   0.26645   0.27920   0.45837   0.75446
 Alpha virt. eigenvalues --    0.77042   0.85648   0.86625   0.95562   0.99648
 Alpha virt. eigenvalues --    1.14988   1.18939   1.22645   1.35653   2.53242

 Mulliken charges:
               1
     1  O   -0.786019
     2  H    0.436700
     3  H    0.347005
     4  O   -0.810899
     5  H    0.410226
     6  H    0.402987
 Sum of Mulliken charges =   0.00000

 Dipole moment (field-independent basis, Debye):
    X=             -1.9683    Y=             -4.7455    Z=              0.0000  Tot=              5.1375
 Quadrupole moment (field-independent basis, Debye-Ang):
   XX=             -9.3768   YY=             -8.8144   ZZ=            -15.0184
   XY=             -4.2858   XZ=              0.0000   YZ=              0.0000

 463\MP4DQ=-33.9027221\MP4SDQ=-33.9048376\CCSD=-33.9057679\CCSD(T)=-33.
 Normal termination of Gaussian 16 at Sun Dec 10 06:37:08 2023.
