 Gaussian 16, Revision A.03,
 Gaussian 16:  ES64L-G16RevA.03 25-Dec-2016

 ------------------
 #p CCSD(T)/CEP-31G
 ------------------

 ------------
 H2O_H2O_1063
 ------------
 Symbolic Z-matrix:
 Charge =  0 Multiplicity = 1

                         Standard orientation:
 ---------------------------------------------------------------------
 Center     Atomic      Atomic             Coordinates (Angstroms)
 Number     Number       Type             X           Y           Z
 ---------------------------------------------------------------------
      1          8           0        0.052378    1.531237    0.000000
      2          1           0        0.049984    0.548639    0.000000
      3          1           0       -0.876336    1.852167    0.000000
      4          8           0        0.052378   -1.351439   -0.000000
      5          1           0        0.789556   -2.001111   -0.000000
      6          1           0       -0.801255   -1.838079   -0.000000
 ---------------------------------------------------------------------

 SCF Done:  E(RHF) =  -33.6625690560     A.U. after   11 cycles
 E2 =    -0.2291053562D+00 EUMP2 =    -0.33891674412283D+02
 CCSD(T)
 CCSD(T)= -0.33908171370D+02

 The electronic state is 1-A'.
 Alpha  occ. eigenvalues --   -1.38831  -1.31327  -0.74417  -0.68176  -0.59204
 Alpha  occ. eigenvalues --   -0.53562  -0.50895  -0.45959
 Alpha virt. eigenvalues --    0.17595   0.26349   0.28000   0.44575   0.75695
 Alpha virt. eigenvalues --    0.77653   0.85533   0.86210   0.94970   1.00504
 Alpha virt. eigenvalues --    1.14900   1.19156   1.22114   1.35258   2.52053

 Mulliken charges:
               1
     1  O   -0.783820
     2  H    0.435583
     3  H    0.346873
     4  O   -0.805319
     5  H    0.411687
     6  H    0.394995
 Sum of Mulliken charges =   0.00000

 Dipole moment (field-independent basis, Debye):
    X=             -2.2924    Y=             -4.6988    Z=             -0.0000  Tot=              5.2282
 Quadrupole moment (field-independent basis, Debye-Ang):
   XX=             -9.4769   YY=             -8.6948   ZZ=            -15.0159
   XY=             -4.1870   XZ=             -0.0000   YZ=              0.0000

 6446\MP4DQ=-33.9023262\MP4SDQ=-33.9044417\CCSD=-33.9053882\CCSD(T)=-33
 Normal termination of Gaussian 16 at Sun Dec 10 06:38:30 2023.
