 Gaussian 16, Revision A.03,
 Gaussian 16:  ES64L-G16RevA.03 25-Dec-2016

 ------------------
 #p CCSD(T)/CEP-31G
 ------------------

 -----------
 H2O_H2O_100
 -----------
 Symbolic Z-matrix:
 Charge =  0 Multiplicity = 1

                         Standard orientation:
 ---------------------------------------------------------------------
 Center     Atomic      Atomic             Coordinates (Angstroms)
 Number     Number       Type             X           Y           Z
 ---------------------------------------------------------------------
      1          8           0        0.092949   -1.126759    0.000000
      2          1           0        0.092949   -0.144158    0.000000
      3          1           0       -0.836544   -1.445426    0.000000
      4          8           0        0.092949    0.993973    0.000000
      5          1           0        0.092949    1.976574    0.000000
      6          1           0       -0.836544    0.675305    0.000000
 ---------------------------------------------------------------------

 SCF Done:  E(RHF) =  -33.5675696911     A.U. after   11 cycles
 E2 =    -0.2287870411D+00 EUMP2 =    -0.33796356732210D+02
 CCSD(T)
 CCSD(T)= -0.33811799864D+02

 The electronic state is 1-A'.
 Alpha  occ. eigenvalues --   -1.47313  -1.29895  -0.85771  -0.70744  -0.58711
 Alpha  occ. eigenvalues --   -0.56923  -0.47798  -0.43948
 Alpha virt. eigenvalues --    0.16005   0.22652   0.29876   0.59365   0.72863
 Alpha virt. eigenvalues --    0.76254   0.89813   0.89889   0.95517   1.10327
 Alpha virt. eigenvalues --    1.11466   1.21712   1.26886   1.50764   2.91445

 Mulliken charges:
               1
     1  O   -0.648838
     2  H    0.173258
     3  H    0.305624
     4  O   -0.690902
     5  H    0.485716
     6  H    0.375142
 Sum of Mulliken charges =   0.00000

 Dipole moment (field-independent basis, Debye):
    X=             -3.8646    Y=              4.5305    Z=              0.0000  Tot=              5.9549
 Quadrupole moment (field-independent basis, Debye-Ang):
   XX=            -11.3272   YY=            -10.6144   ZZ=            -14.8745
   XY=              2.0557   XZ=              0.0000   YZ=              0.0000

 889\MP4DQ=-33.8052279\MP4SDQ=-33.8078812\CCSD=-33.8084815\CCSD(T)=-33.
 Normal termination of Gaussian 16 at Sun Dec 10 06:20:00 2023.
