 Gaussian 16, Revision A.03,
 Gaussian 16:  ES64L-G16RevA.03 25-Dec-2016

 ------------------
 #p CCSD(T)/CEP-31G
 ------------------

 ------------
 H2O_H2O_1413
 ------------
 Symbolic Z-matrix:
 Charge =  0 Multiplicity = 1

                         Standard orientation:
 ---------------------------------------------------------------------
 Center     Atomic      Atomic             Coordinates (Angstroms)
 Number     Number       Type             X           Y           Z
 ---------------------------------------------------------------------
      1          8           0        0.052359    1.670855   -0.000000
      2          1           0        0.050176    0.688256   -0.000000
      3          1           0       -0.876424    1.991585   -0.000000
      4          8           0        0.052359   -1.491034    0.000000
      5          1           0        0.789677   -2.140548    0.000000
      6          1           0       -0.801168   -1.977858    0.000000
 ---------------------------------------------------------------------

 SCF Done:  E(RHF) =  -33.6613732166     A.U. after   11 cycles
 E2 =    -0.2289256173D+00 EUMP2 =    -0.33890298833961D+02
 CCSD(T)
 CCSD(T)= -0.33907033540D+02

 The electronic state is 1-A'.
 Alpha  occ. eigenvalues --   -1.38105  -1.32164  -0.73741  -0.68125  -0.58613
 Alpha  occ. eigenvalues --   -0.52809  -0.51908  -0.46821
 Alpha virt. eigenvalues --    0.17838   0.25376   0.28470   0.40013   0.76869
 Alpha virt. eigenvalues --    0.80015   0.84655   0.85843   0.92074   0.98262
 Alpha virt. eigenvalues --    1.15052   1.19663   1.21208   1.34161   2.49645

 Mulliken charges:
               1
     1  O   -0.780493
     2  H    0.425989
     3  H    0.353277
     4  O   -0.784597
     5  H    0.399232
     6  H    0.386592
 Sum of Mulliken charges =   0.00000

 Dipole moment (field-independent basis, Debye):
    X=             -2.3251    Y=             -4.5662    Z=              0.0000  Tot=              5.1241
 Quadrupole moment (field-independent basis, Debye-Ang):
   XX=             -9.4921   YY=             -8.1814   ZZ=            -15.0097
   XY=             -4.4624   XZ=              0.0000   YZ=             -0.0000

 352\MP4DQ=-33.9012475\MP4SDQ=-33.9033421\CCSD=-33.9043366\CCSD(T)=-33.
 Normal termination of Gaussian 16 at Sun Dec 10 06:45:21 2023.
