 Gaussian 16, Revision A.03,
 Gaussian 16:  ES64L-G16RevA.03 25-Dec-2016

 ------------------
 #p CCSD(T)/CEP-31G
 ------------------

 ------------
 H2O_H2O_4607
 ------------
 Symbolic Z-matrix:
 Charge =  0 Multiplicity = 1

                         Standard orientation:
 ---------------------------------------------------------------------
 Center     Atomic      Atomic             Coordinates (Angstroms)
 Number     Number       Type             X           Y           Z
 ---------------------------------------------------------------------
      1          8           0        0.073523    2.940271    0.000000
      2          1           0        0.072946    1.957670    0.000000
      3          1           0       -0.855783    3.259483    0.000000
      4          8           0        0.073523   -2.773307   -0.000000
      5          1           0        0.507600   -3.654831   -0.000000
      6          1           0       -0.901130   -2.898036   -0.000000
 ---------------------------------------------------------------------

 SCF Done:  E(RHF) =  -33.6527169285     A.U. after   11 cycles
 E2 =    -0.2283268977D+00 EUMP2 =    -0.33881043826205D+02
 CCSD(T)
 CCSD(T)= -0.33898018042D+02

 The electronic state is 1-A'.
 Alpha  occ. eigenvalues --   -1.36256  -1.34847  -0.71899  -0.70469  -0.56046
 Alpha  occ. eigenvalues --   -0.54606  -0.50841  -0.49431
 Alpha virt. eigenvalues --    0.19547   0.21026   0.29811   0.31292   0.79716
 Alpha virt. eigenvalues --    0.81097   0.82627   0.84102   0.85753   0.87250
 Alpha virt. eigenvalues --    1.16687   1.18094   1.21130   1.22605   2.56669

 Mulliken charges:
               1
     1  O   -0.744779
     2  H    0.377312
     3  H    0.367462
     4  O   -0.744705
     5  H    0.374511
     6  H    0.370200
 Sum of Mulliken charges =   0.00000

 Dipole moment (field-independent basis, Debye):
    X=             -3.3805    Y=             -3.9156    Z=             -0.0000  Tot=              5.1730
 Quadrupole moment (field-independent basis, Debye-Ang):
   XX=            -10.1655   YY=             -6.2447   ZZ=            -14.9903
   XY=             -4.7846   XZ=             -0.0000   YZ=              0.0000

 6356\MP4DQ=-33.8923802\MP4SDQ=-33.8944055\CCSD=-33.8954589\CCSD(T)=-33
 Normal termination of Gaussian 16 at Sun Dec 10 06:55:55 2023.
