 Gaussian 16, Revision A.03,
 Gaussian 16:  ES64L-G16RevA.03 25-Dec-2016

 ------------------
 #p CCSD(T)/CEP-31G
 ------------------

 ------------
 H2O_H2O_1665
 ------------
 Symbolic Z-matrix:
 Charge =  0 Multiplicity = 1

                         Standard orientation:
 ---------------------------------------------------------------------
 Center     Atomic      Atomic             Coordinates (Angstroms)
 Number     Number       Type             X           Y           Z
 ---------------------------------------------------------------------
      1          8           0        0.044916    1.770858   -0.000000
      2          1           0        0.042487    0.788260   -0.000000
      3          1           0       -0.883787    2.091822   -0.000000
      4          8           0        0.044916   -1.590516    0.000000
      5          1           0        0.860567   -2.138438    0.000000
      6          1           0       -0.737915   -2.184386    0.000000
 ---------------------------------------------------------------------

 SCF Done:  E(RHF) =  -33.6604104713     A.U. after   11 cycles
 E2 =    -0.2287568313D+00 EUMP2 =    -0.33889167302654D+02
 CCSD(T)
 CCSD(T)= -0.33905974234D+02

 The electronic state is 1-A'.
 Alpha  occ. eigenvalues --   -1.37732  -1.32574  -0.73373  -0.68338  -0.58149
 Alpha  occ. eigenvalues --   -0.52422  -0.52391  -0.47241
 Alpha virt. eigenvalues --    0.18019   0.24790   0.28755   0.37643   0.77579
 Alpha virt. eigenvalues --    0.81385   0.83825   0.86152   0.90262   0.94699
 Alpha virt. eigenvalues --    1.15389   1.19839   1.20930   1.33653   2.50041

 Mulliken charges:
               1
     1  O   -0.777265
     2  H    0.417565
     3  H    0.357795
     4  O   -0.774296
     5  H    0.391110
     6  H    0.385091
 Sum of Mulliken charges =  -0.00000

 Dipole moment (field-independent basis, Debye):
    X=             -2.0102    Y=             -4.5093    Z=              0.0000  Tot=              4.9371
 Quadrupole moment (field-independent basis, Debye-Ang):
   XX=             -9.4074   YY=             -7.8464   ZZ=            -15.0065
   XY=             -4.9270   XZ=              0.0000   YZ=             -0.0000

 962\MP4DQ=-33.9002265\MP4SDQ=-33.9023094\CCSD=-33.9033206\CCSD(T)=-33.
 Normal termination of Gaussian 16 at Sun Dec 10 06:50:19 2023.
