 Gaussian 16, Revision A.03,
 Gaussian 16:  ES64L-G16RevA.03 25-Dec-2016

 ------------------
 #p CCSD(T)/CEP-31G
 ------------------

 ------------
 H2O_H2O_3779
 ------------
 Symbolic Z-matrix:
 Charge =  0 Multiplicity = 1

                         Standard orientation:
 ---------------------------------------------------------------------
 Center     Atomic      Atomic             Coordinates (Angstroms)
 Number     Number       Type             X           Y           Z
 ---------------------------------------------------------------------
      1          8           0        0.082801    2.604440    0.000000
      2          1           0        0.082460    1.621839    0.000000
      3          1           0       -0.846582    2.923429    0.000000
      4          8           0        0.082801   -2.449916   -0.000000
      5          1           0        0.336787   -3.399124   -0.000000
      6          1           0       -0.897474   -2.382338   -0.000000
 ---------------------------------------------------------------------

 SCF Done:  E(RHF) =  -33.6527641336     A.U. after   11 cycles
 E2 =    -0.2283396963D+00 EUMP2 =    -0.33881103829956D+02
 CCSD(T)
 CCSD(T)= -0.33898077778D+02

 The electronic state is 1-A'.
 Alpha  occ. eigenvalues --   -1.36467  -1.34791  -0.72119  -0.70403  -0.56263
 Alpha  occ. eigenvalues --   -0.54544  -0.51050  -0.49372
 Alpha virt. eigenvalues --    0.19111   0.21256   0.29591   0.31390   0.79518
 Alpha virt. eigenvalues --    0.81154   0.82374   0.84169   0.85485   0.87435
 Alpha virt. eigenvalues --    1.16442   1.18232   1.20900   1.23041   2.56353

 Mulliken charges:
               1
     1  O   -0.745004
     2  H    0.378956
     3  H    0.365964
     4  O   -0.745228
     5  H    0.376304
     6  H    0.369008
 Sum of Mulliken charges =  -0.00000

 Dipole moment (field-independent basis, Debye):
    X=             -3.7986    Y=             -3.6491    Z=             -0.0000  Tot=              5.2674
 Quadrupole moment (field-independent basis, Debye-Ang):
   XX=            -10.6411   YY=             -7.7665   ZZ=            -14.9901
   XY=             -3.5540   XZ=             -0.0000   YZ=              0.0000

 28\MP4DQ=-33.8924369\MP4SDQ=-33.8944644\CCSD=-33.8955159\CCSD(T)=-33.8
 Normal termination of Gaussian 16 at Sun Dec 10 06:41:00 2023.
