 Gaussian 16, Revision A.03,
 Gaussian 16:  ES64L-G16RevA.03 25-Dec-2016

 ------------------
 #p CCSD(T)/CEP-31G
 ------------------

 ------------
 H2O_H2O_3953
 ------------
 Symbolic Z-matrix:
 Charge =  0 Multiplicity = 1

                         Standard orientation:
 ---------------------------------------------------------------------
 Center     Atomic      Atomic             Coordinates (Angstroms)
 Number     Number       Type             X           Y           Z
 ---------------------------------------------------------------------
      1          8           0        0.085598   -2.671571    0.000000
      2          1           0        0.085358   -1.688969    0.000000
      3          1           0       -0.843817   -2.990464    0.000000
      4          8           0        0.085598    2.521968    0.000000
      5          1           0        0.277059    3.485735    0.000000
      6          1           0       -0.888171    2.390521    0.000000
 ---------------------------------------------------------------------

 SCF Done:  E(RHF) =  -33.6525165788     A.U. after   11 cycles
 E2 =    -0.2283444172D+00 EUMP2 =    -0.33880860996089D+02
 CCSD(T)
 CCSD(T)= -0.33897842162D+02

 The electronic state is 1-A'.
 Alpha  occ. eigenvalues --   -1.36422  -1.34901  -0.72074  -0.70515  -0.56204
 Alpha  occ. eigenvalues --   -0.54648  -0.51002  -0.49479
 Alpha virt. eigenvalues --    0.19187   0.21099   0.29632   0.31242   0.79565
 Alpha virt. eigenvalues --    0.81052   0.82450   0.84066   0.85541   0.87311
 Alpha virt. eigenvalues --    1.16478   1.18087   1.20953   1.22751   2.56336

 Mulliken charges:
               1
     1  O   -0.744042
     2  H    0.377649
     3  H    0.366348
     4  O   -0.744348
     5  H    0.375787
     6  H    0.368605
 Sum of Mulliken charges =   0.00000

 Dipole moment (field-independent basis, Debye):
    X=             -3.9302    Y=              3.5267    Z=              0.0000  Tot=              5.2805
 Quadrupole moment (field-independent basis, Debye-Ang):
   XX=            -10.8046   YY=             -8.1206   ZZ=            -14.9895
   XY=              3.2647   XZ=              0.0000   YZ=              0.0000

 75\MP4DQ=-33.8922006\MP4SDQ=-33.8942277\CCSD=-33.8952804\CCSD(T)=-33.8
 Normal termination of Gaussian 16 at Sun Dec 10 06:44:08 2023.
