 Gaussian 16, Revision A.03,
 Gaussian 16:  ES64L-G16RevA.03 25-Dec-2016

 ------------------
 #p CCSD(T)/CEP-31G
 ------------------

 ----------
 H2O_H2O_83
 ----------
 Symbolic Z-matrix:
 Charge =  0 Multiplicity = 1

                         Standard orientation:
 ---------------------------------------------------------------------
 Center     Atomic      Atomic             Coordinates (Angstroms)
 Number     Number       Type             X           Y           Z
 ---------------------------------------------------------------------
      1          8           0        0.070284    1.137065   -0.000000
      2          1           0        0.068448    0.154466   -0.000000
      3          1           0       -0.858613    1.457467   -0.000000
      4          8           0        0.070284   -0.966961    0.000000
      5          1           0        0.559993   -1.818835    0.000000
      6          1           0       -0.894366   -1.153933    0.000000
 ---------------------------------------------------------------------

 SCF Done:  E(RHF) =  -33.5945233490     A.U. after   11 cycles
 E2 =    -0.2278694716D+00 EUMP2 =    -0.33822392820608D+02
 CCSD(T)
 CCSD(T)= -0.33837169656D+02

 The electronic state is 1-A'.
 Alpha  occ. eigenvalues --   -1.46158  -1.27450  -0.82597  -0.75813  -0.59003
 Alpha  occ. eigenvalues --   -0.54781  -0.44600  -0.41377
 Alpha virt. eigenvalues --    0.15986   0.24109   0.30297   0.61668   0.73159
 Alpha virt. eigenvalues --    0.74030   0.88704   0.91478   0.94130   1.08082
 Alpha virt. eigenvalues --    1.10631   1.20304   1.28472   1.37116   3.04087

 Mulliken charges:
               1
     1  O   -0.718599
     2  H    0.289028
     3  H    0.298183
     4  O   -0.778450
     5  H    0.492286
     6  H    0.417551
 Sum of Mulliken charges =  -0.00000

 Dipole moment (field-independent basis, Debye):
    X=             -2.8146    Y=             -5.5074    Z=              0.0000  Tot=              6.1849
 Quadrupole moment (field-independent basis, Debye-Ang):
   XX=             -9.9573   YY=            -10.5975   ZZ=            -14.9135
   XY=             -3.0919   XZ=              0.0000   YZ=             -0.0000

 17\MP4DQ=-33.83086\MP4SDQ=-33.8333106\CCSD=-33.8339244\CCSD(T)=-33.837
 Normal termination of Gaussian 16 at Sun Dec 10 06:19:40 2023.
