 Gaussian 16, Revision A.03,
 Gaussian 16:  ES64L-G16RevA.03 25-Dec-2016

 ------------------
 #p CCSD(T)/CEP-31G
 ------------------

 ------------
 H2O_H2O_1188
 ------------
 Symbolic Z-matrix:
 Charge =  0 Multiplicity = 1

                         Standard orientation:
 ---------------------------------------------------------------------
 Center     Atomic      Atomic             Coordinates (Angstroms)
 Number     Number       Type             X           Y           Z
 ---------------------------------------------------------------------
      1          8           0        0.052371    1.581101   -0.000000
      2          1           0        0.050057    0.598502   -0.000000
      3          1           0       -0.876369    1.901955   -0.000000
      4          8           0        0.052371   -1.401294    0.000000
      5          1           0        0.789602   -2.050906    0.000000
      6          1           0       -0.801221   -1.888004    0.000000
 ---------------------------------------------------------------------

 SCF Done:  E(RHF) =  -33.6623469932     A.U. after   11 cycles
 E2 =    -0.2290509623D+00 EUMP2 =    -0.33891397955526D+02
 CCSD(T)
 CCSD(T)= -0.33908000824D+02

 The electronic state is 1-A'.
 Alpha  occ. eigenvalues --   -1.38532  -1.31658  -0.74144  -0.68064  -0.59033
 Alpha  occ. eigenvalues --   -0.53256  -0.51307  -0.46304
 Alpha virt. eigenvalues --    0.17691   0.25988   0.28187   0.42773   0.76131
 Alpha virt. eigenvalues --    0.78525   0.85608   0.85664   0.93852   1.00200
 Alpha virt. eigenvalues --    1.14905   1.19358   1.21750   1.34702   2.50631

 Mulliken charges:
               1
     1  O   -0.783340
     2  H    0.432882
     3  H    0.349478
     4  O   -0.797351
     5  H    0.406738
     6  H    0.391592
 Sum of Mulliken charges =  -0.00000

 Dipole moment (field-independent basis, Debye):
    X=             -2.3056    Y=             -4.6447    Z=              0.0000  Tot=              5.1854
 Quadrupole moment (field-independent basis, Debye-Ang):
   XX=             -9.4830   YY=             -8.5007   ZZ=            -15.0138
   XY=             -4.2865   XZ=              0.0000   YZ=             -0.0000

 \MP4DQ=-33.9021788\MP4SDQ=-33.9042852\CCSD=-33.9052527\CCSD(T)=-33.908
 Normal termination of Gaussian 16 at Sun Dec 10 06:40:53 2023.
