 Gaussian 16, Revision A.03,
 Gaussian 16:  ES64L-G16RevA.03 25-Dec-2016

 ------------------
 #p CCSD(T)/CEP-31G
 ------------------

 ------------
 H2O_H2O_3179
 ------------
 Symbolic Z-matrix:
 Charge =  0 Multiplicity = 1

                         Standard orientation:
 ---------------------------------------------------------------------
 Center     Atomic      Atomic             Coordinates (Angstroms)
 Number     Number       Type             X           Y           Z
 ---------------------------------------------------------------------
      1          8           0        0.082803    2.365111   -0.000000
      2          1           0        0.082427    1.382510   -0.000000
      3          1           0       -0.846568    2.684133   -0.000000
      4          8           0        0.082803   -2.210593    0.000000
      5          1           0        0.336756   -3.159810    0.000000
      6          1           0       -0.897469   -2.142979    0.000000
 ---------------------------------------------------------------------

 SCF Done:  E(RHF) =  -33.6532251892     A.U. after   11 cycles
 E2 =    -0.2283731265D+00 EUMP2 =    -0.33881598315740D+02
 CCSD(T)
 CCSD(T)= -0.33898563118D+02

 The electronic state is 1-A'.
 Alpha  occ. eigenvalues --   -1.36685  -1.34593  -0.72347  -0.70194  -0.56508
 Alpha  occ. eigenvalues --   -0.54350  -0.51272  -0.49177
 Alpha virt. eigenvalues --    0.18470   0.21796   0.29382   0.31707   0.79305
 Alpha virt. eigenvalues --    0.81343   0.82357   0.84355   0.85352   0.87756
 Alpha virt. eigenvalues --    1.16154   1.18677   1.20684   1.24836   2.56279

 Mulliken charges:
               1
     1  O   -0.746903
     2  H    0.382153
     3  H    0.364356
     4  O   -0.746936
     5  H    0.378404
     6  H    0.368926
 Sum of Mulliken charges =  -0.00000

 Dipole moment (field-independent basis, Debye):
    X=             -3.7883    Y=             -3.6807    Z=              0.0000  Tot=              5.2819
 Quadrupole moment (field-independent basis, Debye-Ang):
   XX=            -10.6458   YY=             -8.0010   ZZ=            -14.9907
   XY=             -3.4374   XZ=              0.0000   YZ=             -0.0000

 92\MP4DQ=-33.8929143\MP4SDQ=-33.8949493\CCSD=-33.8959952\CCSD(T)=-33.8
 Normal termination of Gaussian 16 at Sun Dec 10 06:30:17 2023.
