 Gaussian 16, Revision A.03,
 Gaussian 16:  ES64L-G16RevA.03 25-Dec-2016

 ------------------
 #p CCSD(T)/CEP-31G
 ------------------

 ------------
 H2O_H2O_2946
 ------------
 Symbolic Z-matrix:
 Charge =  0 Multiplicity = 1

                         Standard orientation:
 ---------------------------------------------------------------------
 Center     Atomic      Atomic             Coordinates (Angstroms)
 Number     Number       Type             X           Y           Z
 ---------------------------------------------------------------------
      1          8           0       -0.023217    2.274017    0.000000
      2          1           0       -0.020513    1.291420    0.000000
      3          1           0        0.905396    2.595240    0.000000
      4          8           0       -0.023217   -2.103635    0.000000
      5          1           0       -0.986407   -2.297983    0.000000
      6          1           0        0.472997   -2.951737    0.000000
 ---------------------------------------------------------------------

 SCF Done:  E(RHF) =  -33.6555754037     A.U. after   11 cycles
 E2 =    -0.2283140654D+00 EUMP2 =    -0.33883889469186D+02
 CCSD(T)
 CCSD(T)= -0.33900793864D+02

 The electronic state is 1-A'.
 Alpha  occ. eigenvalues --   -1.36727  -1.34095  -0.72377  -0.69734  -0.56682
 Alpha  occ. eigenvalues --   -0.53939  -0.51352  -0.48726
 Alpha virt. eigenvalues --    0.18673   0.22325   0.29457   0.32401   0.79210
 Alpha virt. eigenvalues --    0.81759   0.82621   0.84460   0.85668   0.87850
 Alpha virt. eigenvalues --    1.16296   1.19293   1.20712   1.26287   2.55996

 Mulliken charges:
               1
     1  O   -0.756167
     2  H    0.387392
     3  H    0.367937
     4  O   -0.753778
     5  H    0.377379
     6  H    0.377237
 Sum of Mulliken charges =   0.00000

 Dipole moment (field-independent basis, Debye):
    X=              1.0562    Y=             -4.0713    Z=              0.0000  Tot=              4.2060
 Quadrupole moment (field-independent basis, Debye-Ang):
   XX=             -9.5905   YY=             -7.0798   ZZ=            -14.9960
   XY=              7.4622   XZ=              0.0000   YZ=              0.0000

 957\MP4DQ=-33.8951508\MP4SDQ=-33.8971887\CCSD=-33.8982269\CCSD(T)=-33.
 Normal termination of Gaussian 16 at Sun Dec 10 06:26:01 2023.
