 Gaussian 16, Revision A.03,
 Gaussian 16:  ES64L-G16RevA.03 25-Dec-2016

 ------------------
 #p CCSD(T)/CEP-31G
 ------------------

 ------------
 H2O_H2O_4923
 ------------
 Symbolic Z-matrix:
 Charge =  0 Multiplicity = 1

                         Standard orientation:
 ---------------------------------------------------------------------
 Center     Atomic      Atomic             Coordinates (Angstroms)
 Number     Number       Type             X           Y           Z
 ---------------------------------------------------------------------
      1          8           0       -0.016570    3.058012    0.000000
      2          1           0       -0.014393    2.075413    0.000000
      3          1           0        0.912216    3.378736    0.000000
      4          8           0       -0.016570   -2.894599    0.000000
      5          1           0       -0.996923   -2.961034    0.000000
      6          1           0        0.364213   -3.800419    0.000000
 ---------------------------------------------------------------------

 SCF Done:  E(RHF) =  -33.6531274893     A.U. after   11 cycles
 E2 =    -0.2283009784D+00 EUMP2 =    -0.33881428467619D+02
 CCSD(T)
 CCSD(T)= -0.33898392084D+02

 The electronic state is 1-A'.
 Alpha  occ. eigenvalues --   -1.36177  -1.34905  -0.71816  -0.70544  -0.55985
 Alpha  occ. eigenvalues --   -0.54689  -0.50768  -0.49501
 Alpha virt. eigenvalues --    0.19665   0.20965   0.29920   0.31237   0.79782
 Alpha virt. eigenvalues --    0.81024   0.82675   0.84010   0.85824   0.87101
 Alpha virt. eigenvalues --    1.16784   1.18057   1.21229   1.22531   2.56760

 Mulliken charges:
               1
     1  O   -0.746315
     2  H    0.376182
     3  H    0.370132
     4  O   -0.746015
     5  H    0.372858
     6  H    0.373158
 Sum of Mulliken charges =  -0.00000

 Dipole moment (field-independent basis, Debye):
    X=              0.7618    Y=             -3.8211    Z=              0.0000  Tot=              3.8963
 Quadrupole moment (field-independent basis, Debye-Ang):
   XX=             -9.7749   YY=             -6.3659   ZZ=            -14.9912
   XY=             10.7314   XZ=              0.0000   YZ=              0.0000

 0107\MP4DQ=-33.8927573\MP4SDQ=-33.8947814\CCSD=-33.8958345\CCSD(T)=-33
 Normal termination of Gaussian 16 at Sun Dec 10 07:02:35 2023.
