 Gaussian 16, Revision A.03,
 Gaussian 16:  ES64L-G16RevA.03 25-Dec-2016

 ------------------
 #p CCSD(T)/CEP-31G
 ------------------

 ------------
 H2O_H2O_4942
 ------------
 Symbolic Z-matrix:
 Charge =  0 Multiplicity = 1

                         Standard orientation:
 ---------------------------------------------------------------------
 Center     Atomic      Atomic             Coordinates (Angstroms)
 Number     Number       Type             X           Y           Z
 ---------------------------------------------------------------------
      1          8           0        0.037400    3.076448    0.000000
      2          1           0        0.035823    2.093848    0.000000
      3          1           0       -0.891580    3.396606   -0.000000
      4          8           0        0.037400   -2.897446    0.000000
      5          1           0        0.917970   -3.333454    0.000000
      6          1           0       -0.660619   -3.589020   -0.000000
 ---------------------------------------------------------------------

 SCF Done:  E(RHF) =  -33.6531174536     A.U. after   11 cycles
 E2 =    -0.2283060577D+00 EUMP2 =    -0.33881423511301D+02
 CCSD(T)
 CCSD(T)= -0.33898386386D+02

 The electronic state is 1-A'.
 Alpha  occ. eigenvalues --   -1.36176  -1.34781  -0.71815  -0.70414  -0.55986
 Alpha  occ. eigenvalues --   -0.54561  -0.50768  -0.49375
 Alpha virt. eigenvalues --    0.19666   0.21096   0.29917   0.31373   0.79782
 Alpha virt. eigenvalues --    0.81148   0.82671   0.84137   0.85840   0.87245
 Alpha virt. eigenvalues --    1.16783   1.18178   1.21229   1.22661   2.56763

 Mulliken charges:
               1
     1  O   -0.746284
     2  H    0.377298
     3  H    0.368984
     4  O   -0.745840
     5  H    0.373570
     6  H    0.372271
 Sum of Mulliken charges =   0.00000

 Dipole moment (field-independent basis, Debye):
    X=             -1.7195    Y=             -4.1876    Z=             -0.0000  Tot=              4.5269
 Quadrupole moment (field-independent basis, Debye-Ang):
   XX=             -9.4172   YY=             -4.8377   ZZ=            -14.9913
   XY=             -8.5937   XZ=              0.0000   YZ=             -0.0000

 053\MP4DQ=-33.8927519\MP4SDQ=-33.894776\CCSD=-33.895829\CCSD(T)=-33.89
 Normal termination of Gaussian 16 at Sun Dec 10 07:03:15 2023.
