 Gaussian 16, Revision A.03,
 Gaussian 16:  ES64L-G16RevA.03 25-Dec-2016

 ------------------
 #p CCSD(T)/CEP-31G
 ------------------

 ------------
 H2O_H2O_1657
 ------------
 Symbolic Z-matrix:
 Charge =  0 Multiplicity = 1

                         Standard orientation:
 ---------------------------------------------------------------------
 Center     Atomic      Atomic             Coordinates (Angstroms)
 Number     Number       Type             X           Y           Z
 ---------------------------------------------------------------------
      1          8           0        0.073557    1.763553    0.000000
      2          1           0        0.072577    0.780952    0.000000
      3          1           0       -0.855617    2.083147   -0.000000
      4          8           0        0.073557   -1.596649    0.000000
      5          1           0        0.507271   -2.478351    0.000000
      6          1           0       -0.901147   -1.720978   -0.000000
 ---------------------------------------------------------------------

 SCF Done:  E(RHF) =  -33.6576090901     A.U. after   11 cycles
 E2 =    -0.2288199755D+00 EUMP2 =    -0.33886429065629D+02
 CCSD(T)
 CCSD(T)= -0.33903351660D+02

 The electronic state is 1-A'.
 Alpha  occ. eigenvalues --   -1.37811  -1.33109  -0.73536  -0.68763  -0.58009
 Alpha  occ. eigenvalues --   -0.52849  -0.52443  -0.47721
 Alpha virt. eigenvalues --    0.17545   0.24465   0.28540   0.36960   0.77510
 Alpha virt. eigenvalues --    0.81557   0.83468   0.85357   0.89958   0.98428
 Alpha virt. eigenvalues --    1.15134   1.19031   1.20930   1.36581   2.50720

 Mulliken charges:
               1
     1  O   -0.766741
     2  H    0.409946
     3  H    0.354367
     4  O   -0.768879
     5  H    0.396537
     6  H    0.374771
 Sum of Mulliken charges =   0.00000

 Dipole moment (field-independent basis, Debye):
    X=             -3.3007    Y=             -4.1917    Z=             -0.0000  Tot=              5.3352
 Quadrupole moment (field-independent basis, Debye-Ang):
   XX=            -10.1824   YY=             -8.2294   ZZ=            -14.9996
   XY=             -3.7152   XZ=              0.0000   YZ=             -0.0000

 435\MP4DQ=-33.8975688\MP4SDQ=-33.8996783\CCSD=-33.9006948\CCSD(T)=-33.
 Normal termination of Gaussian 16 at Sun Dec 10 06:50:11 2023.
