 Gaussian 16, Revision A.03,
 Gaussian 16:  ES64L-G16RevA.03 25-Dec-2016

 ------------------
 #p CCSD(T)/CEP-31G
 ------------------

 ------------
 H2O_H2O_2520
 ------------
 Symbolic Z-matrix:
 Charge =  0 Multiplicity = 1

                         Standard orientation:
 ---------------------------------------------------------------------
 Center     Atomic      Atomic             Coordinates (Angstroms)
 Number     Number       Type             X           Y           Z
 ---------------------------------------------------------------------
      1          8           0        0.026683    2.106030   -0.000000
      2          1           0        0.023897    1.123433   -0.000000
      3          1           0       -0.901902    2.427331   -0.000000
      4          8           0        0.026683   -1.932821    0.000000
      5          1           0        0.975078   -2.189828    0.000000
      6          1           0       -0.524006   -2.746608    0.000000
 ---------------------------------------------------------------------

 SCF Done:  E(RHF) =  -33.6567714655     A.U. after   11 cycles
 E2 =    -0.2283909762D+00 EUMP2 =    -0.33885162441637D+02
 CCSD(T)
 CCSD(T)= -0.33902053318D+02

 The electronic state is 1-A'.
 Alpha  occ. eigenvalues --   -1.36965  -1.33732  -0.72618  -0.69373  -0.57007
 Alpha  occ. eigenvalues --   -0.53592  -0.51606  -0.48378
 Alpha virt. eigenvalues --    0.18352   0.22976   0.29310   0.33171   0.78919
 Alpha virt. eigenvalues --    0.82136   0.83375   0.84902   0.86360   0.88108
 Alpha virt. eigenvalues --    1.16091   1.19785   1.20561   1.29405   2.54692

 Mulliken charges:
               1
     1  O   -0.761552
     2  H    0.393543
     3  H    0.366375
     4  O   -0.757222
     5  H    0.379734
     6  H    0.379121
 Sum of Mulliken charges =  -0.00000

 Dipole moment (field-independent basis, Debye):
    X=             -1.2087    Y=             -4.1858    Z=              0.0000  Tot=              4.3568
 Quadrupole moment (field-independent basis, Debye-Ang):
   XX=             -9.5180   YY=             -7.2538   ZZ=            -14.9983
   XY=             -6.7025   XZ=              0.0000   YZ=             -0.0000

 3\MP4DQ=-33.8963876\MP4SDQ=-33.8984417\CCSD=-33.8994724\CCSD(T)=-33.90
 Normal termination of Gaussian 16 at Sun Dec 10 06:18:22 2023.
