 Gaussian 16, Revision A.03,
 Gaussian 16:  ES64L-G16RevA.03 25-Dec-2016

 ------------------
 #p CCSD(T)/CEP-31G
 ------------------

 ------------
 H2O_H2O_2716
 ------------
 Symbolic Z-matrix:
 Charge =  0 Multiplicity = 1

                         Standard orientation:
 ---------------------------------------------------------------------
 Center     Atomic      Atomic             Coordinates (Angstroms)
 Number     Number       Type             X           Y           Z
 ---------------------------------------------------------------------
      1          8           0        0.041155    2.189443   -0.000000
      2          1           0        0.039060    1.206844   -0.000000
      3          1           0       -0.887657    2.510091   -0.000000
      4          8           0        0.041155   -2.009532    0.000000
      5          1           0        0.891063   -2.502645    0.000000
      6          1           0       -0.700940   -2.653582    0.000000
 ---------------------------------------------------------------------

 SCF Done:  E(RHF) =  -33.6561273803     A.U. after   11 cycles
 E2 =    -0.2283653529D+00 EUMP2 =    -0.33884492733136D+02
 CCSD(T)
 CCSD(T)= -0.33901386729D+02

 The electronic state is 1-A'.
 Alpha  occ. eigenvalues --   -1.36863  -1.33786  -0.72509  -0.69410  -0.56861
 Alpha  occ. eigenvalues --   -0.53627  -0.51496  -0.48418
 Alpha virt. eigenvalues --    0.18620   0.22692   0.29393   0.32835   0.79061
 Alpha virt. eigenvalues --    0.82068   0.83458   0.84495   0.85557   0.88169
 Alpha virt. eigenvalues --    1.16208   1.19624   1.20633   1.27400   2.55179

 Mulliken charges:
               1
     1  O   -0.758537
     2  H    0.392214
     3  H    0.364981
     4  O   -0.754766
     5  H    0.379758
     6  H    0.376351
 Sum of Mulliken charges =  -0.00000

 Dipole moment (field-independent basis, Debye):
    X=             -1.8703    Y=             -4.3280    Z=              0.0000  Tot=              4.7148
 Quadrupole moment (field-independent basis, Debye-Ang):
   XX=             -9.4064   YY=             -6.7527   ZZ=            -14.9972
   XY=             -6.0905   XZ=              0.0000   YZ=             -0.0000

 9785\MP4DQ=-33.8957338\MP4SDQ=-33.8977799\CCSD=-33.8988138\CCSD(T)=-33
 Normal termination of Gaussian 16 at Sun Dec 10 06:21:53 2023.
