 Gaussian 16, Revision A.03,
 Gaussian 16:  ES64L-G16RevA.03 25-Dec-2016

 ------------------
 #p CCSD(T)/CEP-31G
 ------------------

 ------------
 H2O_H2O_4216
 ------------
 Symbolic Z-matrix:
 Charge =  0 Multiplicity = 1

                         Standard orientation:
 ---------------------------------------------------------------------
 Center     Atomic      Atomic             Coordinates (Angstroms)
 Number     Number       Type             X           Y           Z
 ---------------------------------------------------------------------
      1          8           0        0.041112    2.787778    0.000000
      2          1           0        0.039482    1.805178    0.000000
      3          1           0       -0.887851    3.107986   -0.000000
      4          8           0        0.041112   -2.607827    0.000000
      5          1           0        0.891254   -3.100539    0.000000
      6          1           0       -0.700678   -3.252229   -0.000000
 ---------------------------------------------------------------------

 SCF Done:  E(RHF) =  -33.6536110492     A.U. after   11 cycles
 E2 =    -0.2282901359D+00 EUMP2 =    -0.33881901185071D+02
 CCSD(T)
 CCSD(T)= -0.33898849901D+02

 The electronic state is 1-A'.
 Alpha  occ. eigenvalues --   -1.36312  -1.34567  -0.71952  -0.70198  -0.56152
 Alpha  occ. eigenvalues --   -0.54360  -0.50911  -0.49168
 Alpha virt. eigenvalues --    0.19527   0.21370   0.29808   0.31648   0.79643
 Alpha virt. eigenvalues --    0.81343   0.82450   0.84338   0.85674   0.87449
 Alpha virt. eigenvalues --    1.16668   1.18423   1.21107   1.22969   2.56626

 Mulliken charges:
               1
     1  O   -0.748229
     2  H    0.380072
     3  H    0.368124
     4  O   -0.747520
     5  H    0.374761
     6  H    0.372793
 Sum of Mulliken charges =  -0.00000

 Dipole moment (field-independent basis, Debye):
    X=             -1.8860    Y=             -4.2285    Z=             -0.0000  Tot=              4.6300
 Quadrupole moment (field-independent basis, Debye-Ang):
   XX=             -9.4127   YY=             -5.3994   ZZ=            -14.9923
   XY=             -7.5338   XZ=              0.0000   YZ=             -0.0000

 696\MP4DQ=-33.8932182\MP4SDQ=-33.8952418\CCSD=-33.8962929\CCSD(T)=-33.
 Normal termination of Gaussian 16 at Sun Dec 10 06:48:53 2023.
