 Gaussian 16, Revision A.03,
 Gaussian 16:  ES64L-G16RevA.03 25-Dec-2016

 ------------------
 #p CCSD(T)/CEP-31G
 ------------------

 ------------
 H2O_H2O_4057
 ------------
 Symbolic Z-matrix:
 Charge =  0 Multiplicity = 1

                         Standard orientation:
 ---------------------------------------------------------------------
 Center     Atomic      Atomic             Coordinates (Angstroms)
 Number     Number       Type             X           Y           Z
 ---------------------------------------------------------------------
      1          8           0        0.073527    2.720885    0.000000
      2          1           0        0.072902    1.738284    0.000000
      3          1           0       -0.855763    3.040143   -0.000000
      4          8           0        0.073527   -2.553928    0.000000
      5          1           0        0.507561   -3.435473    0.000000
      6          1           0       -0.901132   -2.678609   -0.000000
 ---------------------------------------------------------------------

 SCF Done:  E(RHF) =  -33.6530158290     A.U. after   11 cycles
 E2 =    -0.2283205122D+00 EUMP2 =    -0.33881336341231D+02
 CCSD(T)
 CCSD(T)= -0.33898302075D+02

 The electronic state is 1-A'.
 Alpha  occ. eigenvalues --   -1.36376  -1.34703  -0.72022  -0.70322  -0.56184
 Alpha  occ. eigenvalues --   -0.54469  -0.50964  -0.49291
 Alpha virt. eigenvalues --    0.19380   0.21238   0.29696   0.31489   0.79597
 Alpha virt. eigenvalues --    0.81230   0.82444   0.84243   0.85596   0.87424
 Alpha virt. eigenvalues --    1.16577   1.18269   1.21000   1.22906   2.56537

 Mulliken charges:
               1
     1  O   -0.745958
     2  H    0.379317
     3  H    0.366597
     4  O   -0.745846
     5  H    0.375620
     6  H    0.370270
 Sum of Mulliken charges =   0.00000

 Dipole moment (field-independent basis, Debye):
    X=             -3.3749    Y=             -3.9312    Z=             -0.0000  Tot=              5.1812
 Quadrupole moment (field-independent basis, Debye-Ang):
   XX=            -10.1673   YY=             -6.5988   ZZ=            -14.9909
   XY=             -4.5856   XZ=              0.0000   YZ=             -0.0000

 9195\MP4DQ=-33.8926651\MP4SDQ=-33.8946906\CCSD=-33.8957426\CCSD(T)=-33
 Normal termination of Gaussian 16 at Sun Dec 10 06:46:01 2023.
