 Gaussian 16, Revision A.03,
 Gaussian 16:  ES64L-G16RevA.03 25-Dec-2016

 ------------------
 #p CCSD(T)/CEP-31G
 ------------------

 ------------
 H2O_H2O_2265
 ------------
 Symbolic Z-matrix:
 Charge =  0 Multiplicity = 1

                         Standard orientation:
 ---------------------------------------------------------------------
 Center     Atomic      Atomic             Coordinates (Angstroms)
 Number     Number       Type             X           Y           Z
 ---------------------------------------------------------------------
      1          8           0        0.044888    2.010198   -0.000000
      2          1           0        0.042762    1.027599   -0.000000
      3          1           0       -0.883914    2.330875   -0.000000
      4          8           0        0.044888   -1.829828    0.000000
      5          1           0        0.860709   -2.377498    0.000000
      6          1           0       -0.737760   -2.423940    0.000000
 ---------------------------------------------------------------------

 SCF Done:  E(RHF) =  -33.6575160993     A.U. after   11 cycles
 E2 =    -0.2284847214D+00 EUMP2 =    -0.33886000820667D+02
 CCSD(T)
 CCSD(T)= -0.33902881483D+02

 The electronic state is 1-A'.
 Alpha  occ. eigenvalues --   -1.37159  -1.33371  -0.72808  -0.69003  -0.57278
 Alpha  occ. eigenvalues --   -0.53219  -0.51810  -0.48017
 Alpha virt. eigenvalues --    0.18309   0.23455   0.29170   0.34052   0.78653
 Alpha virt. eigenvalues --    0.82555   0.83670   0.85884   0.86538   0.88745
 Alpha virt. eigenvalues --    1.15938   1.20061   1.20421   1.30751   2.53144

 Mulliken charges:
               1
     1  O   -0.764945
     2  H    0.400361
     3  H    0.362463
     4  O   -0.759287
     5  H    0.383144
     6  H    0.378264
 Sum of Mulliken charges =   0.00000

 Dipole moment (field-independent basis, Debye):
    X=             -2.0300    Y=             -4.3988    Z=              0.0000  Tot=              4.8446
 Quadrupole moment (field-independent basis, Debye-Ang):
   XX=             -9.4193   YY=             -7.1733   ZZ=            -14.9999
   XY=             -5.4743   XZ=              0.0000   YZ=             -0.0000

 445\MP4DQ=-33.8971964\MP4SDQ=-33.89926\CCSD=-33.9002872\CCSD(T)=-33.90
 Normal termination of Gaussian 16 at Sun Dec 10 07:03:04 2023.
