 Gaussian 16, Revision A.03,
 Gaussian 16:  ES64L-G16RevA.03 25-Dec-2016

 ------------------
 #p CCSD(T)/CEP-31G
 ------------------

 ------------
 H2O_H2O_2621
 ------------
 Symbolic Z-matrix:
 Charge =  0 Multiplicity = 1

                         Standard orientation:
 ---------------------------------------------------------------------
 Center     Atomic      Atomic             Coordinates (Angstroms)
 Number     Number       Type             X           Y           Z
 ---------------------------------------------------------------------
      1          8           0       -0.023232    2.144379    0.000000
      2          1           0       -0.020358    1.161782    0.000000
      3          1           0        0.905325    2.465763    0.000000
      4          8           0       -0.023232   -1.974005    0.000000
      5          1           0       -0.986388   -2.168518    0.000000
      6          1           0        0.473130   -2.822021    0.000000
 ---------------------------------------------------------------------

 SCF Done:  E(RHF) =  -33.6564138797     A.U. after   11 cycles
 E2 =    -0.2283665656D+00 EUMP2 =    -0.33884780445248D+02
 CCSD(T)
 CCSD(T)= -0.33901676273D+02

 The electronic state is 1-A'.
 Alpha  occ. eigenvalues --   -1.36901  -1.33867  -0.72555  -0.69509  -0.56914
 Alpha  occ. eigenvalues --   -0.53725  -0.51536  -0.48509
 Alpha virt. eigenvalues --    0.18370   0.22797   0.29345   0.32900   0.79003
 Alpha virt. eigenvalues --    0.81994   0.83187   0.84666   0.86218   0.87970
 Alpha virt. eigenvalues --    1.16133   1.19648   1.20602   1.28722   2.55174

 Mulliken charges:
               1
     1  O   -0.759961
     2  H    0.391307
     3  H    0.367251
     4  O   -0.756297
     5  H    0.378843
     6  H    0.378857
 Sum of Mulliken charges =   0.00000

 Dipole moment (field-independent basis, Debye):
    X=              1.0532    Y=             -4.1041    Z=              0.0000  Tot=              4.2371
 Quadrupole moment (field-independent basis, Debye-Ang):
   XX=             -9.5876   YY=             -7.3170   ZZ=            -14.9975
   XY=              7.0417   XZ=              0.0000   YZ=              0.0000

 2612\MP4DQ=-33.8960168\MP4SDQ=-33.8980667\CCSD=-33.8990993\CCSD(T)=-33
 Normal termination of Gaussian 16 at Sun Dec 10 06:20:11 2023.
