 Gaussian 16, Revision A.03,
 Gaussian 16:  ES64L-G16RevA.03 25-Dec-2016

 ------------------
 #p CCSD(T)/CEP-31G
 ------------------

 ------------
 H2O_H2O_1729
 ------------
 Symbolic Z-matrix:
 Charge =  0 Multiplicity = 1

                         Standard orientation:
 ---------------------------------------------------------------------
 Center     Atomic      Atomic             Coordinates (Angstroms)
 Number     Number       Type             X           Y           Z
 ---------------------------------------------------------------------
      1          8           0        0.082813   -1.786728    0.000000
      2          1           0        0.082310   -0.804127    0.000000
      3          1           0       -0.846516   -2.105871    0.000000
      4          8           0        0.082813    1.632231    0.000000
      5          1           0        0.336643    2.581482    0.000000
      6          1           0       -0.897451    1.564491    0.000000
 ---------------------------------------------------------------------

 SCF Done:  E(RHF) =  -33.6556305634     A.U. after   11 cycles
 E2 =    -0.2288405580D+00 EUMP2 =    -0.33884471121381D+02
 CCSD(T)
 CCSD(T)= -0.33901464821D+02

 The electronic state is 1-A'.
 Alpha  occ. eigenvalues --   -1.37758  -1.33632  -0.73537  -0.69203  -0.57802
 Alpha  occ. eigenvalues --   -0.53347  -0.52356  -0.48216
 Alpha virt. eigenvalues --    0.17183   0.24145   0.28508   0.35939   0.77644
 Alpha virt. eigenvalues --    0.81886   0.82962   0.85032   0.89122   0.98566
 Alpha virt. eigenvalues --    1.15160   1.18532   1.21014   1.38043   2.51703

 Mulliken charges:
               1
     1  O   -0.759380
     2  H    0.401177
     3  H    0.355278
     4  O   -0.761470
     5  H    0.394226
     6  H    0.370169
 Sum of Mulliken charges =  -0.00000

 Dipole moment (field-independent basis, Debye):
    X=             -3.7319    Y=              3.8680    Z=              0.0000  Tot=              5.3748
 Quadrupole moment (field-independent basis, Debye-Ang):
   XX=            -10.6683   YY=             -8.6202   ZZ=            -14.9945
   XY=              3.1503   XZ=              0.0000   YZ=              0.0000

 9499\MP4DQ=-33.8956753\MP4SDQ=-33.8977941\CCSD=-33.8988136\CCSD(T)=-33
 Normal termination of Gaussian 16 at Sun Dec 10 06:51:32 2023.
