 Gaussian 16, Revision A.03,
 Gaussian 16:  ES64L-G16RevA.03 25-Dec-2016

 ------------------
 #p CCSD(T)/CEP-31G
 ------------------

 -----------
 H2O_H2O_166
 -----------
 Symbolic Z-matrix:
 Charge =  0 Multiplicity = 1

                         Standard orientation:
 ---------------------------------------------------------------------
 Center     Atomic      Atomic             Coordinates (Angstroms)
 Number     Number       Type             X           Y           Z
 ---------------------------------------------------------------------
      1          8           0        0.041335    1.172228    0.000000
      2          1           0        0.037272    0.189635    0.000000
      3          1           0       -0.886833    1.494735    0.000000
      4          8           0        0.041335   -0.992482    0.000000
      5          1           0        0.890254   -1.487297    0.000000
      6          1           0       -0.702049   -1.635045    0.000000
 ---------------------------------------------------------------------

 SCF Done:  E(RHF) =  -33.6181834547     A.U. after   11 cycles
 E2 =    -0.2278544341D+00 EUMP2 =    -0.33846037888733D+02
 CCSD(T)
 CCSD(T)= -0.33860710682D+02

 The electronic state is 1-A'.
 Alpha  occ. eigenvalues --   -1.44589  -1.27091  -0.78930  -0.77265  -0.58253
 Alpha  occ. eigenvalues --   -0.55368  -0.44451  -0.41164
 Alpha virt. eigenvalues --    0.16465   0.25440   0.29993   0.61450   0.73347
 Alpha virt. eigenvalues --    0.73416   0.86245   0.91536   0.92325   1.04385
 Alpha virt. eigenvalues --    1.13816   1.16725   1.28706   1.35475   2.89652

 Mulliken charges:
               1
     1  O   -0.756108
     2  H    0.341756
     3  H    0.312479
     4  O   -0.798862
     5  H    0.449940
     6  H    0.450795
 Sum of Mulliken charges =   0.00000

 Dipole moment (field-independent basis, Debye):
    X=             -1.7021    Y=             -5.6057    Z=              0.0000  Tot=              5.8584
 Quadrupole moment (field-independent basis, Debye-Ang):
   XX=             -9.2721   YY=            -10.5510   ZZ=            -14.9535
   XY=             -3.4253   XZ=              0.0000   YZ=              0.0000

 3\MP4DQ=-33.8545804\MP4SDQ=-33.8568781\CCSD=-33.8575002\CCSD(T)=-33.86
 Normal termination of Gaussian 16 at Sun Dec 10 06:21:19 2023.
