 Gaussian 16, Revision A.03,
 Gaussian 16:  ES64L-G16RevA.03 25-Dec-2016

 ------------------
 #p CCSD(T)/CEP-31G
 ------------------

 -----------
 H2O_H2O_368
 -----------
 Symbolic Z-matrix:
 Charge =  0 Multiplicity = 1

                         Standard orientation:
 ---------------------------------------------------------------------
 Center     Atomic      Atomic             Coordinates (Angstroms)
 Number     Number       Type             X           Y           Z
 ---------------------------------------------------------------------
      1          8           0        0.033980    1.250718   -0.000000
      2          1           0        0.029659    0.268126   -0.000000
      3          1           0       -0.894103    1.573468   -0.000000
      4          8           0        0.033980   -1.073340    0.000000
      5          1           0        0.940124   -1.453353    0.000000
      6          1           0       -0.619364   -1.807265    0.000000
 ---------------------------------------------------------------------

 SCF Done:  E(RHF) =  -33.6438850273     A.U. after   11 cycles
 E2 =    -0.2283488018D+00 EUMP2 =    -0.33872233829063D+02
 CCSD(T)
 CCSD(T)= -0.33887468698D+02

 The electronic state is 1-A'.
 Alpha  occ. eigenvalues --   -1.42291  -1.28392  -0.77564  -0.73171  -0.57401
 Alpha  occ. eigenvalues --   -0.56591  -0.46695  -0.42751
 Alpha virt. eigenvalues --    0.16946   0.26246   0.29013   0.57967   0.73668
 Alpha virt. eigenvalues --    0.73983   0.86655   0.90228   0.94188   1.00969
 Alpha virt. eigenvalues --    1.15170   1.18406   1.26421   1.36392   2.77663

 Mulliken charges:
               1
     1  O   -0.768145
     2  H    0.391131
     3  H    0.329102
     4  O   -0.832285
     5  H    0.431665
     6  H    0.448532
 Sum of Mulliken charges =  -0.00000

 Dipole moment (field-independent basis, Debye):
    X=             -1.4530    Y=             -5.2289    Z=              0.0000  Tot=              5.4270
 Quadrupole moment (field-independent basis, Debye-Ang):
   XX=             -9.3228   YY=            -10.0237   ZZ=            -14.9935
   XY=             -3.7418   XZ=              0.0000   YZ=             -0.0000

 P4DQ=-33.8814471\MP4SDQ=-33.8836626\CCSD=-33.8843918\CCSD(T)=-33.88746
 Normal termination of Gaussian 16 at Sun Dec 10 06:25:18 2023.
