 Gaussian 16, Revision A.03,
 Gaussian 16:  ES64L-G16RevA.03 25-Dec-2016

 ------------------
 #p CCSD(T)/CEP-31G
 ------------------

 ------------
 H2O_H2O_4604
 ------------
 Symbolic Z-matrix:
 Charge =  0 Multiplicity = 1

                         Standard orientation:
 ---------------------------------------------------------------------
 Center     Atomic      Atomic             Coordinates (Angstroms)
 Number     Number       Type             X           Y           Z
 ---------------------------------------------------------------------
      1          8           0        0.082797    2.933517    0.000000
      2          1           0        0.082496    1.950916    0.000000
      3          1           0       -0.846598    3.252469    0.000000
      4          8           0        0.082797   -2.778986   -0.000000
      5          1           0        0.336823   -3.728185   -0.000000
      6          1           0       -0.897480   -2.711448   -0.000000
 ---------------------------------------------------------------------

 SCF Done:  E(RHF) =  -33.6524141187     A.U. after   11 cycles
 E2 =    -0.2283407494D+00 EUMP2 =    -0.33880754868098D+02
 CCSD(T)
 CCSD(T)= -0.33897738221D+02

 The electronic state is 1-A'.
 Alpha  occ. eigenvalues --   -1.36268  -1.34979  -0.71913  -0.70600  -0.56042
 Alpha  occ. eigenvalues --   -0.54728  -0.50848  -0.49558
 Alpha virt. eigenvalues --    0.19504   0.20883   0.29783   0.31129   0.79712
 Alpha virt. eigenvalues --    0.80977   0.82650   0.83987   0.85744   0.87149
 Alpha virt. eigenvalues --    1.16660   1.17950   1.21110   1.22456   2.56633

 Mulliken charges:
               1
     1  O   -0.743615
     2  H    0.376221
     3  H    0.367389
     4  O   -0.743743
     5  H    0.374472
     6  H    0.369276
 Sum of Mulliken charges =  -0.00000

 Dipole moment (field-independent basis, Debye):
    X=             -3.8084    Y=             -3.6247    Z=             -0.0000  Tot=              5.2576
 Quadrupole moment (field-independent basis, Debye-Ang):
   XX=            -10.6366   YY=             -7.4365   ZZ=            -14.9895
   XY=             -3.7123   XZ=             -0.0000   YZ=              0.0000

 547\MP4DQ=-33.8920978\MP4SDQ=-33.894124\CCSD=-33.895178\CCSD(T)=-33.89
 Normal termination of Gaussian 16 at Sun Dec 10 06:55:52 2023.
