 Gaussian 16, Revision A.03,
 Gaussian 16:  ES64L-G16RevA.03 25-Dec-2016

 ------------------
 #p CCSD(T)/CEP-31G
 ------------------

 -----------
 H2O_H2O_372
 -----------
 Symbolic Z-matrix:
 Charge =  0 Multiplicity = 1

                         Standard orientation:
 ---------------------------------------------------------------------
 Center     Atomic      Atomic             Coordinates (Angstroms)
 Number     Number       Type             X           Y           Z
 ---------------------------------------------------------------------
      1          8           0       -0.020082    1.245083    0.000000
      2          1           0       -0.014743    0.262496    0.000000
      3          1           0        0.907665    1.568796    0.000000
      4          8           0       -0.020082   -1.078085    0.000000
      5          1           0       -0.993566   -1.211632    0.000000
      6          1           0        0.421958   -1.955643    0.000000
 ---------------------------------------------------------------------

 SCF Done:  E(RHF) =  -33.6411798559     A.U. after   11 cycles
 E2 =    -0.2278907051D+00 EUMP2 =    -0.33869070560983D+02
 CCSD(T)
 CCSD(T)= -0.33884496806D+02

 The electronic state is 1-A'.
 Alpha  occ. eigenvalues --   -1.42350  -1.28777  -0.78796  -0.71411  -0.58071
 Alpha  occ. eigenvalues --   -0.56474  -0.47132  -0.43195
 Alpha virt. eigenvalues --    0.17132   0.25946   0.28950   0.57354   0.73666
 Alpha virt. eigenvalues --    0.75132   0.87920   0.89963   0.93884   1.02773
 Alpha virt. eigenvalues --    1.14998   1.21243   1.28179   1.38400   2.79521

 Mulliken charges:
               1
     1  O   -0.759050
     2  H    0.364800
     3  H    0.339297
     4  O   -0.836653
     5  H    0.423045
     6  H    0.468561
 Sum of Mulliken charges =   0.00000

 Dipole moment (field-independent basis, Debye):
    X=              0.8855    Y=             -4.9856    Z=              0.0000  Tot=              5.0636
 Quadrupole moment (field-independent basis, Debye-Ang):
   XX=             -9.5746   YY=             -9.8934   ZZ=            -14.9889
   XY=              4.0224   XZ=              0.0000   YZ=              0.0000

 8\MP4DQ=-33.8784645\MP4SDQ=-33.8807015\CCSD=-33.8814654\CCSD(T)=-33.88
 Normal termination of Gaussian 16 at Sun Dec 10 06:25:23 2023.
