 Gaussian 16, Revision A.03,
 Gaussian 16:  ES64L-G16RevA.03 25-Dec-2016

 ------------------
 #p CCSD(T)/CEP-31G
 ------------------

 -----------
 H2O_H2O_915
 -----------
 Symbolic Z-matrix:
 Charge =  0 Multiplicity = 1

                         Standard orientation:
 ---------------------------------------------------------------------
 Center     Atomic      Atomic             Coordinates (Angstroms)
 Number     Number       Type             X           Y           Z
 ---------------------------------------------------------------------
      1          8           0        0.044964    1.471678    0.000000
      2          1           0        0.042009    0.489081    0.000000
      3          1           0       -0.883567    1.793138   -0.000000
      4          8           0        0.044964   -1.291383    0.000000
      5          1           0        0.860322   -1.839742    0.000000
      6          1           0       -0.738185   -1.884835   -0.000000
 ---------------------------------------------------------------------

 SCF Done:  E(RHF) =  -33.6628246059     A.U. after   11 cycles
 E2 =    -0.2291031899D+00 EUMP2 =    -0.33891927795817D+02
 CCSD(T)
 CCSD(T)= -0.33908235688D+02

 The electronic state is 1-A'.
 Alpha  occ. eigenvalues --   -1.39247  -1.30800  -0.74762  -0.68527  -0.59308
 Alpha  occ. eigenvalues --   -0.53989  -0.50247  -0.45422
 Alpha virt. eigenvalues --    0.17526   0.26882   0.27785   0.47097   0.75185
 Alpha virt. eigenvalues --    0.76519   0.85563   0.87024   0.96340   0.99277
 Alpha virt. eigenvalues --    1.14994   1.18795   1.22913   1.36101   2.54797

 Mulliken charges:
               1
     1  O   -0.785499
     2  H    0.437003
     3  H    0.345131
     4  O   -0.815775
     5  H    0.413255
     6  H    0.405885
 Sum of Mulliken charges =  -0.00000

 Dipole moment (field-independent basis, Debye):
    X=             -1.9613    Y=             -4.7868    Z=             -0.0000  Tot=              5.1730
 Quadrupole moment (field-independent basis, Debye-Ang):
   XX=             -9.3719   YY=             -8.9443   ZZ=            -15.0191
   XY=             -4.2115   XZ=              0.0000   YZ=             -0.0000

 997\MP4DQ=-33.9023682\MP4SDQ=-33.904491\CCSD=-33.9054041\CCSD(T)=-33.9
 Normal termination of Gaussian 16 at Sun Dec 10 06:35:43 2023.
