 Gaussian 16, Revision A.03,
 Gaussian 16:  ES64L-G16RevA.03 25-Dec-2016

 ------------------
 #p CCSD(T)/CEP-31G
 ------------------

 ------------
 H2O_H2O_3991
 ------------
 Symbolic Z-matrix:
 Charge =  0 Multiplicity = 1

                         Standard orientation:
 ---------------------------------------------------------------------
 Center     Atomic      Atomic             Coordinates (Angstroms)
 Number     Number       Type             X           Y           Z
 ---------------------------------------------------------------------
      1          8           0        0.041117    2.698028    0.000000
      2          1           0        0.039431    1.715428    0.000000
      3          1           0       -0.887827    3.018289    0.000000
      4          8           0        0.041117   -2.518082   -0.000000
      5          1           0        0.891231   -3.010842   -0.000000
      6          1           0       -0.700710   -3.162441   -0.000000
 ---------------------------------------------------------------------

 SCF Done:  E(RHF) =  -33.6538335356     A.U. after   11 cycles
 E2 =    -0.2282860900D+00 EUMP2 =    -0.33882119625569D+02
 CCSD(T)
 CCSD(T)= -0.33899061966D+02

 The electronic state is 1-A'.
 Alpha  occ. eigenvalues --   -1.36366  -1.34487  -0.72006  -0.70117  -0.56219
 Alpha  occ. eigenvalues --   -0.54286  -0.50967  -0.49091
 Alpha virt. eigenvalues --    0.19457   0.21485   0.29766   0.31751   0.79589
 Alpha virt. eigenvalues --    0.81415   0.82362   0.84418   0.85609   0.87529
 Alpha virt. eigenvalues --    1.16624   1.18526   1.21059   1.23136   2.56579

 Mulliken charges:
               1
     1  O   -0.749092
     2  H    0.381185
     3  H    0.367838
     4  O   -0.748251
     5  H    0.375222
     6  H    0.373098
 Sum of Mulliken charges =  -0.00000

 Dipole moment (field-independent basis, Debye):
    X=             -1.8845    Y=             -4.2365    Z=             -0.0000  Tot=              4.6367
 Quadrupole moment (field-independent basis, Debye-Ang):
   XX=             -9.4121   YY=             -5.6015   ZZ=            -14.9928
   XY=             -7.3176   XZ=             -0.0000   YZ=              0.0000

 6815\MP4DQ=-33.8934309\MP4SDQ=-33.8954548\CCSD=-33.8965049\CCSD(T)=-33
 Normal termination of Gaussian 16 at Sun Dec 10 06:44:49 2023.
