 Gaussian 16, Revision A.03,
 Gaussian 16:  ES64L-G16RevA.03 25-Dec-2016

 ------------------
 #p CCSD(T)/CEP-31G
 ------------------

 ------------
 H2O_H2O_3757
 ------------
 Symbolic Z-matrix:
 Charge =  0 Multiplicity = 1

                         Standard orientation:
 ---------------------------------------------------------------------
 Center     Atomic      Atomic             Coordinates (Angstroms)
 Number     Number       Type             X           Y           Z
 ---------------------------------------------------------------------
      1          8           0        0.073530    2.601220   -0.000000
      2          1           0        0.072875    1.618619   -0.000000
      3          1           0       -0.855751    2.920505    0.000000
      4          8           0        0.073530   -2.434267   -0.000000
      5          1           0        0.507537   -3.315825   -0.000000
      6          1           0       -0.901134   -2.558919    0.000000
 ---------------------------------------------------------------------

 SCF Done:  E(RHF) =  -33.6532428757     A.U. after   11 cycles
 E2 =    -0.2283215610D+00 EUMP2 =    -0.33881564436647D+02
 CCSD(T)
 CCSD(T)= -0.33898523829D+02

 The electronic state is 1-A'.
 Alpha  occ. eigenvalues --   -1.36459  -1.34607  -0.72108  -0.70222  -0.56280
 Alpha  occ. eigenvalues --   -0.54377  -0.51050  -0.49197
 Alpha virt. eigenvalues --    0.19224   0.21407   0.29612   0.31626   0.79515
 Alpha virt. eigenvalues --    0.81318   0.82332   0.84342   0.85492   0.87556
 Alpha virt. eigenvalues --    1.16498   1.18411   1.20904   1.23256   2.56469

 Mulliken charges:
               1
     1  O   -0.746841
     2  H    0.380740
     3  H    0.365991
     4  O   -0.746670
     5  H    0.376417
     6  H    0.370364
 Sum of Mulliken charges =   0.00000

 Dipole moment (field-independent basis, Debye):
    X=             -3.3711    Y=             -3.9431    Z=              0.0000  Tot=              5.1877
 Quadrupole moment (field-independent basis, Debye-Ang):
   XX=            -10.1685   YY=             -6.7909   ZZ=            -14.9913
   XY=             -4.4769   XZ=             -0.0000   YZ=              0.0000

 01\MP4DQ=-33.8928865\MP4SDQ=-33.8949131\CCSD=-33.8959634\CCSD(T)=-33.8
 Normal termination of Gaussian 16 at Sun Dec 10 06:40:36 2023.
