 Gaussian 16, Revision A.03,
 Gaussian 16:  ES64L-G16RevA.03 25-Dec-2016

 ------------------
 #p CCSD(T)/CEP-31G
 ------------------

 ------------
 H2O_H2O_2155
 ------------
 Symbolic Z-matrix:
 Charge =  0 Multiplicity = 1

                         Standard orientation:
 ---------------------------------------------------------------------
 Center     Atomic      Atomic             Coordinates (Angstroms)
 Number     Number       Type             X           Y           Z
 ---------------------------------------------------------------------
      1          8           0        0.079860    1.958722    0.000000
      2          1           0        0.079269    0.976120    0.000000
      3          1           0       -0.849441    2.277947    0.000000
      4          8           0        0.079860   -1.799677   -0.000000
      5          1           0        0.395148   -2.730322   -0.000000
      6          1           0       -0.902735   -1.796106   -0.000000
 ---------------------------------------------------------------------

 SCF Done:  E(RHF) =  -33.6551450578     A.U. after   11 cycles
 E2 =    -0.2286234959D+00 EUMP2 =    -0.33883768553738D+02
 CCSD(T)
 CCSD(T)= -0.33900737632D+02

 The electronic state is 1-A'.
 Alpha  occ. eigenvalues --   -1.37309  -1.33902  -0.73011  -0.69479  -0.57279
 Alpha  occ. eigenvalues --   -0.53661  -0.51914  -0.48497
 Alpha virt. eigenvalues --    0.17508   0.23339   0.28897   0.33753   0.78484
 Alpha virt. eigenvalues --    0.82214   0.82915   0.84966   0.88407   0.90317
 Alpha virt. eigenvalues --    1.15523   1.19379   1.20471   1.33914   2.53696

 Mulliken charges:
               1
     1  O   -0.756265
     2  H    0.395130
     3  H    0.359140
     4  O   -0.754613
     5  H    0.386101
     6  H    0.370506
 Sum of Mulliken charges =   0.00000

 Dipole moment (field-independent basis, Debye):
    X=             -3.6215    Y=             -3.8990    Z=             -0.0000  Tot=              5.3214
 Quadrupole moment (field-independent basis, Debye-Ang):
   XX=            -10.4939   YY=             -8.2036   ZZ=            -14.9939
   XY=             -3.4603   XZ=             -0.0000   YZ=              0.0000

 2769\MP4DQ=-33.8950169\MP4SDQ=-33.8970992\CCSD=-33.8981279\CCSD(T)=-33
 Normal termination of Gaussian 16 at Sun Dec 10 06:59:39 2023.
