 Gaussian 16, Revision A.03,
 Gaussian 16:  ES64L-G16RevA.03 25-Dec-2016

 ------------------
 #p CCSD(T)/CEP-31G
 ------------------

 ------------
 H2O_H2O_1134
 ------------
 Symbolic Z-matrix:
 Charge =  0 Multiplicity = 1

                         Standard orientation:
 ---------------------------------------------------------------------
 Center     Atomic      Atomic             Coordinates (Angstroms)
 Number     Number       Type             X           Y           Z
 ---------------------------------------------------------------------
      1          8           0        0.066807    1.557474    0.000000
      2          1           0        0.065296    0.574874    0.000000
      3          1           0       -0.862195    1.877569    0.000000
      4          8           0        0.066807   -1.384442   -0.000000
      5          1           0        0.611455   -2.202284   -0.000000
      6          1           0       -0.883466   -1.634418   -0.000000
 ---------------------------------------------------------------------

 SCF Done:  E(RHF) =  -33.6603794111     A.U. after   11 cycles
 E2 =    -0.2290487062D+00 EUMP2 =    -0.33889428117389D+02
 CCSD(T)
 CCSD(T)= -0.33906097599D+02

 The electronic state is 1-A'.
 Alpha  occ. eigenvalues --   -1.38704  -1.31877  -0.74431  -0.68229  -0.59019
 Alpha  occ. eigenvalues --   -0.53377  -0.51464  -0.46482
 Alpha virt. eigenvalues --    0.17438   0.25896   0.27948   0.42960   0.75902
 Alpha virt. eigenvalues --    0.78606   0.85364   0.85641   0.93366   1.05582
 Alpha virt. eigenvalues --    1.15258   1.18249   1.21799   1.35969   2.51240

 Mulliken charges:
               1
     1  O   -0.775549
     2  H    0.427222
     3  H    0.346274
     4  O   -0.798061
     5  H    0.416039
     6  H    0.384074
 Sum of Mulliken charges =  -0.00000

 Dipole moment (field-independent basis, Debye):
    X=             -2.9342    Y=             -4.5132    Z=             -0.0000  Tot=              5.3832
 Quadrupole moment (field-independent basis, Debye-Ang):
   XX=             -9.8916   YY=             -8.6399   ZZ=            -15.0095
   XY=             -3.8109   XZ=              0.0000   YZ=              0.0000

 49\MP4DQ=-33.9002381\MP4SDQ=-33.9023731\CCSD=-33.9033426\CCSD(T)=-33.9
 Normal termination of Gaussian 16 at Sun Dec 10 06:39:50 2023.
