 Gaussian 16, Revision A.03,
 Gaussian 16:  ES64L-G16RevA.03 25-Dec-2016

 ------------------
 #p CCSD(T)/CEP-31G
 ------------------

 ------------
 H2O_H2O_1656
 ------------
 Symbolic Z-matrix:
 Charge =  0 Multiplicity = 1

                         Standard orientation:
 ---------------------------------------------------------------------
 Center     Atomic      Atomic             Coordinates (Angstroms)
 Number     Number       Type             X           Y           Z
 ---------------------------------------------------------------------
      1          8           0        0.076776    1.761527   -0.000000
      2          1           0        0.075958    0.778926   -0.000000
      3          1           0       -0.852452    2.080967   -0.000000
      4          8           0        0.076776   -1.598352    0.000000
      5          1           0        0.452046   -2.506470    0.000000
      6          1           0       -0.903963   -1.658828    0.000000
 ---------------------------------------------------------------------

 SCF Done:  E(RHF) =  -33.6570434429     A.U. after   11 cycles
 E2 =    -0.2288333131D+00 EUMP2 =    -0.33885876756085D+02
 CCSD(T)
 CCSD(T)= -0.33902822317D+02

 The electronic state is 1-A'.
 Alpha  occ. eigenvalues --   -1.37824  -1.33241  -0.73572  -0.68872  -0.57980
 Alpha  occ. eigenvalues --   -0.52969  -0.52446  -0.47844
 Alpha virt. eigenvalues --    0.17429   0.24410   0.28501   0.36807   0.77493
 Alpha virt. eigenvalues --    0.81579   0.83377   0.85262   0.89769   0.99149
 Alpha virt. eigenvalues --    1.15110   1.18805   1.20997   1.37228   2.50903

 Mulliken charges:
               1
     1  O   -0.764667
     2  H    0.407722
     3  H    0.354295
     4  O   -0.767411
     5  H    0.396662
     6  H    0.373400
 Sum of Mulliken charges =  -0.00000

 Dipole moment (field-independent basis, Debye):
    X=             -3.4483    Y=             -4.1006    Z=              0.0000  Tot=              5.3578
 Quadrupole moment (field-independent basis, Debye-Ang):
   XX=            -10.3392   YY=             -8.3506   ZZ=            -14.9982
   XY=             -3.5305   XZ=              0.0000   YZ=             -0.0000

 084\MP4DQ=-33.8970329\MP4SDQ=-33.8991477\CCSD=-33.9001647\CCSD(T)=-33.
 Normal termination of Gaussian 16 at Sun Dec 10 06:50:10 2023.
