 Gaussian 16, Revision A.03,
 Gaussian 16:  ES64L-G16RevA.03 25-Dec-2016

 ------------------
 #p CCSD(T)/CEP-31G
 ------------------

 ------------
 H2O_H2O_4736
 ------------
 Symbolic Z-matrix:
 Charge =  0 Multiplicity = 1

                         Standard orientation:
 ---------------------------------------------------------------------
 Center     Atomic      Atomic             Coordinates (Angstroms)
 Number     Number       Type             X           Y           Z
 ---------------------------------------------------------------------
      1          8           0        0.059616    2.995843    0.000000
      2          1           0        0.058643    2.013242    0.000000
      3          1           0       -0.869561    3.315429    0.000000
      4          8           0        0.059616   -2.818364   -0.000000
      5          1           0        0.706759   -3.557764   -0.000000
      6          1           0       -0.849695   -3.190736   -0.000000
 ---------------------------------------------------------------------

 SCF Done:  E(RHF) =  -33.6529729618     A.U. after   11 cycles
 E2 =    -0.2283148446D+00 EUMP2 =    -0.33881287806432D+02
 CCSD(T)
 CCSD(T)= -0.33898254475D+02

 The electronic state is 1-A'.
 Alpha  occ. eigenvalues --   -1.36221  -1.34762  -0.71861  -0.70389  -0.56024
 Alpha  occ. eigenvalues --   -0.54533  -0.50810  -0.49351
 Alpha virt. eigenvalues --    0.19607   0.21118   0.29863   0.31393   0.79743
 Alpha virt. eigenvalues --    0.81172   0.82636   0.84169   0.85793   0.87298
 Alpha virt. eigenvalues --    1.16732   1.18190   1.21178   1.22688   2.56715

 Mulliken charges:
               1
     1  O   -0.745750
     2  H    0.377804
     3  H    0.367942
     4  O   -0.745430
     5  H    0.374227
     6  H    0.371208
 Sum of Mulliken charges =   0.00000

 Dipole moment (field-independent basis, Debye):
    X=             -2.7408    Y=             -4.1581    Z=             -0.0000  Tot=              4.9801
 Quadrupole moment (field-independent basis, Debye-Ang):
   XX=             -9.6719   YY=             -5.1676   ZZ=            -14.9909
   XY=             -6.2727   XZ=             -0.0000   YZ=              0.0000

 \MP4DQ=-33.8926188\MP4SDQ=-33.8946434\CCSD=-33.8956964\CCSD(T)=-33.898
 Normal termination of Gaussian 16 at Sun Dec 10 06:58:15 2023.
