 Gaussian 16, Revision A.03,
 Gaussian 16:  ES64L-G16RevA.03 25-Dec-2016

 ------------------
 #p CCSD(T)/CEP-31G
 ------------------

 ------------
 H2O_H2O_1103
 ------------
 Symbolic Z-matrix:
 Charge =  0 Multiplicity = 1

                         Standard orientation:
 ---------------------------------------------------------------------
 Center     Atomic      Atomic             Coordinates (Angstroms)
 Number     Number       Type             X           Y           Z
 ---------------------------------------------------------------------
      1          8           0        0.085612   -1.534754    0.000000
      2          1           0        0.085185   -0.552153    0.000000
      3          1           0       -0.843742   -1.853825    0.000000
      4          8           0        0.085612    1.385184    0.000000
      5          1           0        0.276890    2.348988    0.000000
      6          1           0       -0.888132    1.253552    0.000000
 ---------------------------------------------------------------------

 SCF Done:  E(RHF) =  -33.6545391160     A.U. after   11 cycles
 E2 =    -0.2290954127D+00 EUMP2 =    -0.33883634528724D+02
 CCSD(T)
 CCSD(T)= -0.33900549417D+02

 The electronic state is 1-A'.
 Alpha  occ. eigenvalues --   -1.38924  -1.32886  -0.75083  -0.68646  -0.58871
 Alpha  occ. eigenvalues --   -0.53452  -0.52419  -0.47412
 Alpha virt. eigenvalues --    0.16846   0.25329   0.27711   0.42062   0.75607
 Alpha virt. eigenvalues --    0.79503   0.84954   0.85123   0.91499   1.11665
 Alpha virt. eigenvalues --    1.15840   1.21298   1.22443   1.38391   2.50922

 Mulliken charges:
               1
     1  O   -0.754003
     2  H    0.398637
     3  H    0.345880
     4  O   -0.780831
     5  H    0.418955
     6  H    0.371361
 Sum of Mulliken charges =   0.00000

 Dipole moment (field-independent basis, Debye):
    X=             -3.7934    Y=              3.9558    Z=              0.0000  Tot=              5.4807
 Quadrupole moment (field-independent basis, Debye-Ang):
   XX=            -10.8594   YY=             -9.1157   ZZ=            -14.9957
   XY=              2.8380   XZ=              0.0000   YZ=              0.0000

 9282\MP4DQ=-33.8946124\MP4SDQ=-33.8968151\CCSD=-33.8977916\CCSD(T)=-33
 Normal termination of Gaussian 16 at Sun Dec 10 06:39:15 2023.
