 Gaussian 16, Revision A.03,
 Gaussian 16:  ES64L-G16RevA.03 25-Dec-2016

 ------------------
 #p CCSD(T)/CEP-31G
 ------------------

 -----------
 H2O_H2O_596
 -----------
 Symbolic Z-matrix:
 Charge =  0 Multiplicity = 1

                         Standard orientation:
 ---------------------------------------------------------------------
 Center     Atomic      Atomic             Coordinates (Angstroms)
 Number     Number       Type             X           Y           Z
 ---------------------------------------------------------------------
      1          8           0       -0.023393    1.336614    0.000000
      2          1           0       -0.018663    0.354024    0.000000
      3          1           0        0.904556    1.659750    0.000000
      4          8           0       -0.023393   -1.166328    0.000000
      5          1           0       -0.986179   -1.362660    0.000000
      6          1           0        0.474569   -2.013405    0.000000
 ---------------------------------------------------------------------

 SCF Done:  E(RHF) =  -33.6558747584     A.U. after   11 cycles
 E2 =    -0.2284530512D+00 EUMP2 =    -0.33884327809534D+02
 CCSD(T)
 CCSD(T)= -0.33900223810D+02

 The electronic state is 1-A'.
 Alpha  occ. eigenvalues --   -1.40652  -1.29811  -0.76602  -0.69770  -0.59056
 Alpha  occ. eigenvalues --   -0.55192  -0.48785  -0.44364
 Alpha virt. eigenvalues --    0.17334   0.26814   0.28060   0.52737   0.74164
 Alpha virt. eigenvalues --    0.75630   0.86692   0.88687   0.94210   1.03243
 Alpha virt. eigenvalues --    1.15740   1.20940   1.25594   1.37670   2.66458

 Mulliken charges:
               1
     1  O   -0.773694
     2  H    0.404870
     3  H    0.345465
     4  O   -0.836938
     5  H    0.413739
     6  H    0.446558
 Sum of Mulliken charges =   0.00000

 Dipole moment (field-independent basis, Debye):
    X=              1.0371    Y=             -4.8038    Z=              0.0000  Tot=              4.9145
 Quadrupole moment (field-independent basis, Debye-Ang):
   XX=             -9.5194   YY=             -9.4755   ZZ=            -15.0115
   XY=              4.2631   XZ=              0.0000   YZ=              0.0000

 \MP4DQ=-33.8942737\MP4SDQ=-33.8964532\CCSD=-33.8972964\CCSD(T)=-33.900
 Normal termination of Gaussian 16 at Sun Dec 10 06:29:44 2023.
