 Gaussian 16, Revision A.03,
 Gaussian 16:  ES64L-G16RevA.03 25-Dec-2016

 ------------------
 #p CCSD(T)/CEP-31G
 ------------------

 -----------
 H2O_H2O_798
 -----------
 Symbolic Z-matrix:
 Charge =  0 Multiplicity = 1

                         Standard orientation:
 ---------------------------------------------------------------------
 Center     Atomic      Atomic             Coordinates (Angstroms)
 Number     Number       Type             X           Y           Z
 ---------------------------------------------------------------------
      1          8           0        0.016793   -1.412607    0.000000
      2          1           0        0.011927   -0.430017    0.000000
      3          1           0       -0.911110   -1.735872    0.000000
      4          8           0        0.016793    1.249285    0.000000
      5          1           0        0.996961    1.318404    0.000000
      6          1           0       -0.366468    2.154059    0.000000
 ---------------------------------------------------------------------

 SCF Done:  E(RHF) =  -33.6595111786     A.U. after   11 cycles
 E2 =    -0.2285152798D+00 EUMP2 =    -0.33888026458403D+02
 CCSD(T)
 CCSD(T)= -0.33904374108D+02

 The electronic state is 1-A'.
 Alpha  occ. eigenvalues --   -1.39692  -1.30908  -0.75815  -0.68390  -0.59604
 Alpha  occ. eigenvalues --   -0.54297  -0.50248  -0.45546
 Alpha virt. eigenvalues --    0.17505   0.26903   0.27642   0.48324   0.74717
 Alpha virt. eigenvalues --    0.77145   0.86558   0.87352   0.92279   1.08087
 Alpha virt. eigenvalues --    1.15658   1.21772   1.25884   1.37316   2.58776

 Mulliken charges:
               1
     1  O   -0.776117
     2  H    0.405329
     3  H    0.355371
     4  O   -0.824873
     5  H    0.403110
     6  H    0.437180
 Sum of Mulliken charges =   0.00000

 Dipole moment (field-independent basis, Debye):
    X=             -0.7528    Y=              4.4696    Z=              0.0000  Tot=              4.5326
 Quadrupole moment (field-independent basis, Debye-Ang):
   XX=             -9.7195   YY=             -9.1621   ZZ=            -15.0140
   XY=              4.7991   XZ=              0.0000   YZ=              0.0000

 798\MP4DQ=-33.8984588\MP4SDQ=-33.9006299\CCSD=-33.901544\CCSD(T)=-33.9
 Normal termination of Gaussian 16 at Sun Dec 10 06:33:31 2023.
