 Gaussian 16, Revision A.03,
 Gaussian 16:  ES64L-G16RevA.03 25-Dec-2016

 ------------------
 #p CCSD(T)/CEP-31G
 ------------------

 -----------
 H2O_H2O_292
 -----------
 Symbolic Z-matrix:
 Charge =  0 Multiplicity = 1

                         Standard orientation:
 ---------------------------------------------------------------------
 Center     Atomic      Atomic             Coordinates (Angstroms)
 Number     Number       Type             X           Y           Z
 ---------------------------------------------------------------------
      1          8           0        0.037636    1.221577    0.000000
      2          1           0        0.033474    0.238984    0.000000
      3          1           0       -0.890500    1.544176    0.000000
      4          8           0        0.037636   -1.042771    0.000000
      5          1           0        0.917056   -1.481093    0.000000
      6          1           0       -0.662200   -1.732508    0.000000
 ---------------------------------------------------------------------

 SCF Done:  E(RHF) =  -33.6364677112     A.U. after   11 cycles
 E2 =    -0.2282375652D+00 EUMP2 =    -0.33864705276371D+02
 CCSD(T)
 CCSD(T)= -0.33879717634D+02

 The electronic state is 1-A'.
 Alpha  occ. eigenvalues --   -1.43037  -1.27909  -0.77941  -0.74687  -0.57166
 Alpha  occ. eigenvalues --   -0.56674  -0.45905  -0.42173
 Alpha virt. eigenvalues --    0.16771   0.25984   0.29367   0.59484   0.73533
 Alpha virt. eigenvalues --    0.73625   0.86589   0.90727   0.93371   1.02038
 Alpha virt. eigenvalues --    1.14646   1.17607   1.27047   1.35871   2.81927

 Mulliken charges:
               1
     1  O   -0.764471
     2  H    0.378541
     3  H    0.322757
     4  O   -0.823929
     5  H    0.438949
     6  H    0.448153
 Sum of Mulliken charges =  -0.00000

 Dipole moment (field-independent basis, Debye):
    X=             -1.5849    Y=             -5.3714    Z=              0.0000  Tot=              5.6003
 Quadrupole moment (field-independent basis, Debye-Ang):
   XX=             -9.2916   YY=            -10.2261   ZZ=            -14.9817
   XY=             -3.6070   XZ=              0.0000   YZ=              0.0000

 93\MP4DQ=-33.8736593\MP4SDQ=-33.8759\CCSD=-33.876588\CCSD(T)=-33.87971
 Normal termination of Gaussian 16 at Sun Dec 10 06:23:49 2023.
