 Gaussian 16, Revision A.03,
 Gaussian 16:  ES64L-G16RevA.03 25-Dec-2016

 ------------------
 #p CCSD(T)/CEP-31G
 ------------------

 ------------
 H2O_H2O_4722
 ------------
 Symbolic Z-matrix:
 Charge =  0 Multiplicity = 1

                         Standard orientation:
 ---------------------------------------------------------------------
 Center     Atomic      Atomic             Coordinates (Angstroms)
 Number     Number       Type             X           Y           Z
 ---------------------------------------------------------------------
      1          8           0       -0.019810    2.980254    0.000000
      2          1           0       -0.017669    1.997655    0.000000
      3          1           0        0.908986    3.300945    0.000000
      4          8           0       -0.019810   -2.813126    0.000000
      5          1           0       -0.993724   -2.943504    0.000000
      6          1           0        0.419370   -3.692119    0.000000
 ---------------------------------------------------------------------

 SCF Done:  E(RHF) =  -33.6532664456     A.U. after   11 cycles
 E2 =    -0.2282957648D+00 EUMP2 =    -0.33881562210411D+02
 CCSD(T)
 CCSD(T)= -0.33898521778D+02

 The electronic state is 1-A'.
 Alpha  occ. eigenvalues --   -1.36209  -1.34828  -0.71849  -0.70466  -0.56026
 Alpha  occ. eigenvalues --   -0.54616  -0.50803  -0.49425
 Alpha virt. eigenvalues --    0.19636   0.21058   0.29894   0.31333   0.79748
 Alpha virt. eigenvalues --    0.81096   0.82622   0.84081   0.85784   0.87174
 Alpha virt. eigenvalues --    1.16757   1.18141   1.21199   1.22626   2.56727

 Mulliken charges:
               1
     1  O   -0.746866
     2  H    0.377013
     3  H    0.369849
     4  O   -0.746477
     5  H    0.373219
     6  H    0.373262
 Sum of Mulliken charges =  -0.00000

 Dipole moment (field-independent basis, Debye):
    X=              0.9102    Y=             -3.9122    Z=              0.0000  Tot=              4.0166
 Quadrupole moment (field-independent basis, Debye-Ang):
   XX=             -9.6810   YY=             -6.1280   ZZ=            -14.9915
   XY=             10.1020   XZ=              0.0000   YZ=              0.0000

 1407\MP4DQ=-33.892888\MP4SDQ=-33.8949118\CCSD=-33.8959645\CCSD(T)=-33.
 Normal termination of Gaussian 16 at Sun Dec 10 06:58:00 2023.
