 Gaussian 16, Revision A.03,
 Gaussian 16:  ES64L-G16RevA.03 25-Dec-2016

 ------------------
 #p CCSD(T)/CEP-31G
 ------------------

 ------------
 H2O_H2O_1968
 ------------
 Symbolic Z-matrix:
 Charge =  0 Multiplicity = 1

                         Standard orientation:
 ---------------------------------------------------------------------
 Center     Atomic      Atomic             Coordinates (Angstroms)
 Number     Number       Type             X           Y           Z
 ---------------------------------------------------------------------
      1          8           0        0.033842    1.888970   -0.000000
      2          1           0        0.031053    0.906373   -0.000000
      3          1           0       -0.894743    2.210274   -0.000000
      4          8           0        0.033842   -1.711486    0.000000
      5          1           0        0.940576   -2.090088    0.000000
      6          1           0       -0.618359   -2.446429    0.000000
 ---------------------------------------------------------------------

 SCF Done:  E(RHF) =  -33.6590066033     A.U. after   11 cycles
 E2 =    -0.2285762124D+00 EUMP2 =    -0.33887582815736D+02
 CCSD(T)
 CCSD(T)= -0.33904442961D+02

 The electronic state is 1-A'.
 Alpha  occ. eigenvalues --   -1.37393  -1.33062  -0.73045  -0.68739  -0.57649
 Alpha  occ. eigenvalues --   -0.52921  -0.52063  -0.47729
 Alpha virt. eigenvalues --    0.18131   0.24091   0.29019   0.35436   0.78222
 Alpha virt. eigenvalues --    0.82531   0.83021   0.86279   0.88350   0.91340
 Alpha virt. eigenvalues --    1.15721   1.19945   1.20682   1.33117   2.51711

 Mulliken charges:
               1
     1  O   -0.771660
     2  H    0.406793
     3  H    0.362513
     4  O   -0.765949
     5  H    0.384812
     6  H    0.383491
 Sum of Mulliken charges =  -0.00000

 Dipole moment (field-independent basis, Debye):
    X=             -1.5234    Y=             -4.3751    Z=              0.0000  Tot=              4.6327
 Quadrupole moment (field-independent basis, Debye-Ang):
   XX=             -9.4189   YY=             -7.5843   ZZ=            -15.0029
   XY=             -5.6810   XZ=              0.0000   YZ=             -0.0000

 835\MP4DQ=-33.8987291\MP4SDQ=-33.9008043\CCSD=-33.9018259\CCSD(T)=-33.
 Normal termination of Gaussian 16 at Sun Dec 10 06:56:01 2023.
