 Gaussian 16, Revision A.03,
 Gaussian 16:  ES64L-G16RevA.03 25-Dec-2016

 ------------------
 #p CCSD(T)/CEP-31G
 ------------------

 ------------
 H2O_H2O_1640
 ------------
 Symbolic Z-matrix:
 Charge =  0 Multiplicity = 1

                         Standard orientation:
 ---------------------------------------------------------------------
 Center     Atomic      Atomic             Coordinates (Angstroms)
 Number     Number       Type             X           Y           Z
 ---------------------------------------------------------------------
      1          8           0        0.044917    1.760886   -0.000000
      2          1           0        0.042473    0.778288   -0.000000
      3          1           0       -0.883781    2.081863   -0.000000
      4          8           0        0.044917   -1.580544    0.000000
      5          1           0        0.860560   -2.128479    0.000000
      6          1           0       -0.737922   -2.174403    0.000000
 ---------------------------------------------------------------------

 SCF Done:  E(RHF) =  -33.6605525373     A.U. after   11 cycles
 E2 =    -0.2287709672D+00 EUMP2 =    -0.33889323504465D+02
 CCSD(T)
 CCSD(T)= -0.33906123908D+02

 The electronic state is 1-A'.
 Alpha  occ. eigenvalues --   -1.37763  -1.32532  -0.73404  -0.68310  -0.58195
 Alpha  occ. eigenvalues --   -0.52456  -0.52345  -0.47200
 Alpha virt. eigenvalues --    0.18007   0.24852   0.28733   0.37858   0.77515
 Alpha virt. eigenvalues --    0.81253   0.83901   0.86147   0.90400   0.95059
 Alpha virt. eigenvalues --    1.15361   1.19814   1.20971   1.33697   2.49956

 Mulliken charges:
               1
     1  O   -0.777807
     2  H    0.418424
     3  H    0.357530
     4  O   -0.775262
     5  H    0.391590
     6  H    0.385525
 Sum of Mulliken charges =  -0.00000

 Dipole moment (field-independent basis, Debye):
    X=             -2.0092    Y=             -4.5152    Z=              0.0000  Tot=              4.9421
 Quadrupole moment (field-independent basis, Debye-Ang):
   XX=             -9.4066   YY=             -7.8774   ZZ=            -15.0069
   XY=             -4.9039   XZ=              0.0000   YZ=             -0.0000

 2\MP4DQ=-33.9003731\MP4SDQ=-33.9024567\CCSD=-33.9034667\CCSD(T)=-33.90
 Normal termination of Gaussian 16 at Sun Dec 10 06:49:51 2023.
