 Gaussian 16, Revision A.03,
 Gaussian 16:  ES64L-G16RevA.03 25-Dec-2016

 ------------------
 #p CCSD(T)/CEP-31G
 ------------------

 ------------
 H2O_H2O_2084
 ------------
 Symbolic Z-matrix:
 Charge =  0 Multiplicity = 1

                         Standard orientation:
 ---------------------------------------------------------------------
 Center     Atomic      Atomic             Coordinates (Angstroms)
 Number     Number       Type             X           Y           Z
 ---------------------------------------------------------------------
      1          8           0        0.066780    1.936428   -0.000000
      2          1           0        0.065578    0.953827   -0.000000
      3          1           0       -0.862323    2.256231   -0.000000
      4          8           0        0.066780   -1.763354    0.000000
      5          1           0        0.611685   -2.581025    0.000000
      6          1           0       -0.883414   -2.013629    0.000000
 ---------------------------------------------------------------------

 SCF Done:  E(RHF) =  -33.6568838299     A.U. after   11 cycles
 E2 =    -0.2286013611D+00 EUMP2 =    -0.33885485191000D+02
 CCSD(T)
 CCSD(T)= -0.33902402149D+02

 The electronic state is 1-A'.
 Alpha  occ. eigenvalues --   -1.37339  -1.33428  -0.73012  -0.69037  -0.57436
 Alpha  occ. eigenvalues --   -0.53227  -0.51974  -0.48052
 Alpha virt. eigenvalues --    0.17938   0.23633   0.28949   0.34530   0.78397
 Alpha virt. eigenvalues --    0.82647   0.83065   0.85372   0.88936   0.89899
 Alpha virt. eigenvalues --    1.15651   1.19932   1.20345   1.33077   2.52537

 Mulliken charges:
               1
     1  O   -0.763034
     2  H    0.401889
     3  H    0.358967
     4  O   -0.759445
     5  H    0.386957
     6  H    0.374665
 Sum of Mulliken charges =  -0.00000

 Dipole moment (field-independent basis, Debye):
    X=             -3.0187    Y=             -4.2536    Z=              0.0000  Tot=              5.2159
 Quadrupole moment (field-independent basis, Debye-Ang):
   XX=             -9.8989   YY=             -7.6443   ZZ=            -14.9982
   XY=             -4.2611   XZ=              0.0000   YZ=             -0.0000

 38\MP4DQ=-33.8966868\MP4SDQ=-33.8987649\CCSD=-33.8997911\CCSD(T)=-33.9
 Normal termination of Gaussian 16 at Sun Dec 10 06:58:15 2023.
