 Gaussian 16, Revision A.03,
 Gaussian 16:  ES64L-G16RevA.03 25-Dec-2016

 ------------------
 #p CCSD(T)/CEP-31G
 ------------------

 ------------
 H2O_H2O_1895
 ------------
 Symbolic Z-matrix:
 Charge =  0 Multiplicity = 1

                         Standard orientation:
 ---------------------------------------------------------------------
 Center     Atomic      Atomic             Coordinates (Angstroms)
 Number     Number       Type             X           Y           Z
 ---------------------------------------------------------------------
      1          8           0        0.026718    1.856723    0.000000
      2          1           0        0.023539    0.874126    0.000000
      3          1           0       -0.901739    2.178394   -0.000000
      4          8           0        0.026718   -1.683535    0.000000
      5          1           0        0.975011   -1.940920    0.000000
      6          1           0       -0.524296   -2.497101   -0.000000
 ---------------------------------------------------------------------

 SCF Done:  E(RHF) =  -33.6592844213     A.U. after   11 cycles
 E2 =    -0.2285889844D+00 EUMP2 =    -0.33887873405737D+02
 CCSD(T)
 CCSD(T)= -0.33904737068D+02

 The electronic state is 1-A'.
 Alpha  occ. eigenvalues --   -1.37456  -1.33061  -0.73121  -0.68756  -0.57736
 Alpha  occ. eigenvalues --   -0.52923  -0.52127  -0.47734
 Alpha virt. eigenvalues --    0.18024   0.24242   0.28978   0.35764   0.78082
 Alpha virt. eigenvalues --    0.82134   0.83099   0.86292   0.88348   0.93236
 Alpha virt. eigenvalues --    1.15662   1.19739   1.20836   1.34234   2.51672

 Mulliken charges:
               1
     1  O   -0.773111
     2  H    0.406984
     3  H    0.363669
     4  O   -0.768299
     5  H    0.384523
     6  H    0.386234
 Sum of Mulliken charges =   0.00000

 Dipole moment (field-independent basis, Debye):
    X=             -1.2014    Y=             -4.2827    Z=             -0.0000  Tot=              4.4480
 Quadrupole moment (field-independent basis, Debye-Ang):
   XX=             -9.5086   YY=             -7.7999   ZZ=            -15.0034
   XY=             -5.9209   XZ=              0.0000   YZ=             -0.0000

 76\MP4DQ=-33.8990118\MP4SDQ=-33.9010931\CCSD=-33.9021131\CCSD(T)=-33.9
 Normal termination of Gaussian 16 at Sun Dec 10 06:54:39 2023.
