 Gaussian 16, Revision A.03,
 Gaussian 16:  ES64L-G16RevA.03 25-Dec-2016

 ------------------
 #p CCSD(T)/CEP-31G
 ------------------

 ------------
 H2O_H2O_1334
 ------------
 Symbolic Z-matrix:
 Charge =  0 Multiplicity = 1

                         Standard orientation:
 ---------------------------------------------------------------------
 Center     Atomic      Atomic             Coordinates (Angstroms)
 Number     Number       Type             X           Y           Z
 ---------------------------------------------------------------------
      1          8           0        0.066800    1.637255    0.000000
      2          1           0        0.065367    0.654654    0.000000
      3          1           0       -0.862227    1.957276   -0.000000
      4          8           0        0.066800   -1.464212    0.000000
      5          1           0        0.611512   -2.282011    0.000000
      6          1           0       -0.883453   -1.714263   -0.000000
 ---------------------------------------------------------------------

 SCF Done:  E(RHF) =  -33.6599471079     A.U. after   11 cycles
 E2 =    -0.2289678220D+00 EUMP2 =    -0.33888914929877D+02
 CCSD(T)
 CCSD(T)= -0.33905699151D+02

 The electronic state is 1-A'.
 Alpha  occ. eigenvalues --   -1.38284  -1.32321  -0.73995  -0.68274  -0.58666
 Alpha  occ. eigenvalues --   -0.52953  -0.52002  -0.46943
 Alpha virt. eigenvalues --    0.17569   0.25371   0.28237   0.40421   0.76585
 Alpha virt. eigenvalues --    0.79817   0.84761   0.85473   0.92025   1.03013
 Alpha virt. eigenvalues --    1.14940   1.18708   1.21384   1.35790   2.50016

 Mulliken charges:
               1
     1  O   -0.774858
     2  H    0.423008
     3  H    0.350091
     4  O   -0.786030
     5  H    0.406873
     6  H    0.380915
 Sum of Mulliken charges =   0.00000

 Dipole moment (field-independent basis, Debye):
    X=             -2.9605    Y=             -4.4351    Z=             -0.0000  Tot=              5.3324
 Quadrupole moment (field-independent basis, Debye-Ang):
   XX=             -9.8948   YY=             -8.3944   ZZ=            -15.0066
   XY=             -3.9055   XZ=              0.0000   YZ=             -0.0000

 1716\MP4DQ=-33.8998772\MP4SDQ=-33.901996\CCSD=-33.9029894\CCSD(T)=-33.
 Normal termination of Gaussian 16 at Sun Dec 10 06:43:47 2023.
