 Gaussian 16, Revision A.03,
 Gaussian 16:  ES64L-G16RevA.03 25-Dec-2016

 ------------------
 #p CCSD(T)/CEP-31G
 ------------------

 ------------
 H2O_H2O_1476
 ------------
 Symbolic Z-matrix:
 Charge =  0 Multiplicity = 1

                         Standard orientation:
 ---------------------------------------------------------------------
 Center     Atomic      Atomic             Coordinates (Angstroms)
 Number     Number       Type             X           Y           Z
 ---------------------------------------------------------------------
      1          8           0        0.090687   -1.678429    0.000000
      2          1           0        0.090568   -0.695827    0.000000
      3          1           0       -0.838767   -1.997208    0.000000
      4          8           0        0.090687    1.539727    0.000000
      5          1           0        0.154834    2.520232    0.000000
      6          1           0       -0.857626    1.282418    0.000000
 ---------------------------------------------------------------------

 SCF Done:  E(RHF) =  -33.6535266768     A.U. after   11 cycles
 E2 =    -0.2290998141D+00 EUMP2 =    -0.33882626490839D+02
 CCSD(T)
 CCSD(T)= -0.33899683176D+02

 The electronic state is 1-A'.
 Alpha  occ. eigenvalues --   -1.38179  -1.33913  -0.74178  -0.69367  -0.58106
 Alpha  occ. eigenvalues --   -0.53552  -0.52722  -0.48452
 Alpha virt. eigenvalues --    0.16676   0.24456   0.28158   0.37519   0.76832
 Alpha virt. eigenvalues --    0.81266   0.83336   0.84686   0.89089   1.06048
 Alpha virt. eigenvalues --    1.15633   1.17184   1.21824   1.39970   2.51163

 Mulliken charges:
               1
     1  O   -0.752076
     2  H    0.393504
     3  H    0.353089
     4  O   -0.758906
     5  H    0.399422
     6  H    0.364967
 Sum of Mulliken charges =   0.00000

 Dipole moment (field-independent basis, Debye):
    X=             -4.0732    Y=              3.5370    Z=              0.0000  Tot=              5.3945
 Quadrupole moment (field-independent basis, Debye-Ang):
   XX=            -11.1787   YY=             -9.3299   ZZ=            -14.9894
   XY=              2.4771   XZ=              0.0000   YZ=              0.0000

 1135\MP4DQ=-33.8938188\MP4SDQ=-33.8959834\CCSD=-33.8969876\CCSD(T)=-33
 Normal termination of Gaussian 16 at Sun Dec 10 06:46:36 2023.
