 Gaussian 16, Revision A.03,
 Gaussian 16:  ES64L-G16RevA.03 25-Dec-2016

 ------------------
 #p CCSD(T)/CEP-31G
 ------------------

 ------------
 H2O_H2O_2861
 ------------
 Symbolic Z-matrix:
 Charge =  0 Multiplicity = 1

                         Standard orientation:
 ---------------------------------------------------------------------
 Center     Atomic      Atomic             Coordinates (Angstroms)
 Number     Number       Type             X           Y           Z
 ---------------------------------------------------------------------
      1          8           0        0.059646    2.247928   -0.000000
      2          1           0        0.058337    1.265327   -0.000000
      3          1           0       -0.869421    2.567833    0.000000
      4          8           0        0.059646   -2.070490   -0.000000
      5          1           0        0.706535   -2.810112   -0.000000
      6          1           0       -0.849792   -2.442550    0.000000
 ---------------------------------------------------------------------

 SCF Done:  E(RHF) =  -33.6551709497     A.U. after   11 cycles
 E2 =    -0.2283670061D+00 EUMP2 =    -0.33883537955800D+02
 CCSD(T)
 CCSD(T)= -0.33900452691D+02

 The electronic state is 1-A'.
 Alpha  occ. eigenvalues --   -1.36803  -1.33978  -0.72454  -0.69588  -0.56741
 Alpha  occ. eigenvalues --   -0.53789  -0.51422  -0.48593
 Alpha virt. eigenvalues --    0.18649   0.22402   0.29373   0.32526   0.79147
 Alpha virt. eigenvalues --    0.81898   0.82932   0.84832   0.85196   0.88142
 Alpha virt. eigenvalues --    1.16226   1.19354   1.20646   1.26513   2.55647

 Mulliken charges:
               1
     1  O   -0.754614
     2  H    0.389708
     3  H    0.363877
     4  O   -0.752193
     5  H    0.379782
     6  H    0.373439
 Sum of Mulliken charges =   0.00000

 Dipole moment (field-independent basis, Debye):
    X=             -2.7179    Y=             -4.2555    Z=              0.0000  Tot=              5.0494
 Quadrupole moment (field-independent basis, Debye-Ang):
   XX=             -9.6725   YY=             -6.7598   ZZ=            -14.9952
   XY=             -5.1115   XZ=             -0.0000   YZ=              0.0000

 1\MP4DQ=-33.8948026\MP4SDQ=-33.8968449\CCSD=-33.8978824\CCSD(T)=-33.90
 Normal termination of Gaussian 16 at Sun Dec 10 06:24:29 2023.
