 Gaussian 16, Revision A.03,
 Gaussian 16:  ES64L-G16RevA.03 25-Dec-2016

 ------------------
 #p CCSD(T)/CEP-31G
 ------------------

 ------------
 H2O_H2O_3500
 ------------
 Symbolic Z-matrix:
 Charge =  0 Multiplicity = 1

                         Standard orientation:
 ---------------------------------------------------------------------
 Center     Atomic      Atomic             Coordinates (Angstroms)
 Number     Number       Type             X           Y           Z
 ---------------------------------------------------------------------
      1          8           0        0.092949   -2.482942    0.000000
      2          1           0        0.092949   -1.500341    0.000000
      3          1           0       -0.836544   -2.801609    0.000000
      4          8           0        0.092949    2.350155    0.000000
      5          1           0        0.092949    3.332757    0.000000
      6          1           0       -0.836544    2.031488    0.000000
 ---------------------------------------------------------------------

 SCF Done:  E(RHF) =  -33.6521281299     A.U. after   11 cycles
 E2 =    -0.2283834642D+00 EUMP2 =    -0.33880511594142D+02
 CCSD(T)
 CCSD(T)= -0.33897506931D+02

 The electronic state is 1-A'.
 Alpha  occ. eigenvalues --   -1.36583  -1.35038  -0.72245  -0.70642  -0.56349
 Alpha  occ. eigenvalues --   -0.54767  -0.51155  -0.49606
 Alpha virt. eigenvalues --    0.18399   0.21390   0.29438   0.31190   0.79424
 Alpha virt. eigenvalues --    0.80935   0.82347   0.83927   0.85397   0.87349
 Alpha virt. eigenvalues --    1.16056   1.18157   1.20768   1.23424   2.55513

 Mulliken charges:
               1
     1  O   -0.742565
     2  H    0.376831
     3  H    0.365617
     4  O   -0.743251
     5  H    0.376865
     6  H    0.366503
 Sum of Mulliken charges =   0.00000

 Dipole moment (field-independent basis, Debye):
    X=             -4.2628    Y=              3.1464    Z=              0.0000  Tot=              5.2982
 Quadrupole moment (field-independent basis, Debye-Ang):
   XX=            -11.2891   YY=             -9.6112   ZZ=            -14.9881
   XY=              2.3010   XZ=              0.0000   YZ=              0.0000

 1173\MP4DQ=-33.8918577\MP4SDQ=-33.8938889\CCSD=-33.8949403\CCSD(T)=-33
 Normal termination of Gaussian 16 at Sun Dec 10 06:36:00 2023.
