 Gaussian 16, Revision A.03,
 Gaussian 16:  ES64L-G16RevA.03 25-Dec-2016

 ------------------
 #p CCSD(T)/CEP-31G
 ------------------

 ------------
 H2O_H2O_2231
 ------------
 Symbolic Z-matrix:
 Charge =  0 Multiplicity = 1

                         Standard orientation:
 ---------------------------------------------------------------------
 Center     Atomic      Atomic             Coordinates (Angstroms)
 Number     Number       Type             X           Y           Z
 ---------------------------------------------------------------------
      1          8           0        0.076768    1.990890   -0.000000
      2          1           0        0.076048    1.008288   -0.000000
      3          1           0       -0.852492    2.310237   -0.000000
      4          8           0        0.076768   -1.827699    0.000000
      5          1           0        0.452127   -2.735779    0.000000
      6          1           0       -0.903965   -1.888272    0.000000
 ---------------------------------------------------------------------

 SCF Done:  E(RHF) =  -33.6553638031     A.U. after   11 cycles
 E2 =    -0.2285787565D+00 EUMP2 =    -0.33883942559504D+02
 CCSD(T)
 CCSD(T)= -0.33900896726D+02

 The electronic state is 1-A'.
 Alpha  occ. eigenvalues --   -1.37238  -1.33852  -0.72926  -0.69436  -0.57217
 Alpha  occ. eigenvalues --   -0.53624  -0.51849  -0.48454
 Alpha virt. eigenvalues --    0.17697   0.23229   0.28967   0.33590   0.78593
 Alpha virt. eigenvalues --    0.82199   0.83101   0.85019   0.88341   0.89138
 Alpha virt. eigenvalues --    1.15638   1.19547   1.20412   1.32797   2.53833

 Mulliken charges:
               1
     1  O   -0.756837
     2  H    0.395223
     3  H    0.359704
     4  O   -0.754639
     5  H    0.385167
     6  H    0.371381
 Sum of Mulliken charges =  -0.00000

 Dipole moment (field-independent basis, Debye):
    X=             -3.4830    Y=             -3.9890    Z=              0.0000  Tot=              5.2956
 Quadrupole moment (field-independent basis, Debye-Ang):
   XX=            -10.3319   YY=             -7.9638   ZZ=            -14.9946
   XY=             -3.7028   XZ=              0.0000   YZ=             -0.0000

 54\MP4DQ=-33.8951882\MP4SDQ=-33.897264\CCSD=-33.8982935\CCSD(T)=-33.90
 Normal termination of Gaussian 16 at Sun Dec 10 07:01:34 2023.
