 Gaussian 16, Revision A.03,
 Gaussian 16:  ES64L-G16RevA.03 25-Dec-2016

 ------------------
 #p CCSD(T)/CEP-31G
 ------------------

 ------------
 H2O_H2O_1524
 ------------
 Symbolic Z-matrix:
 Charge =  0 Multiplicity = 1

                         Standard orientation:
 ---------------------------------------------------------------------
 Center     Atomic      Atomic             Coordinates (Angstroms)
 Number     Number       Type             X           Y           Z
 ---------------------------------------------------------------------
      1          8           0        0.013615   -1.699566    0.000000
      2          1           0        0.009455   -0.716974    0.000000
      3          1           0       -0.914520   -2.022165    0.000000
      4          8           0        0.013615    1.540337    0.000000
      5          1           0        0.996208    1.544497    0.000000
      6          1           0       -0.308984    2.468473    0.000000
 ---------------------------------------------------------------------

 SCF Done:  E(RHF) =  -33.6601671806     A.U. after   11 cycles
 E2 =    -0.2286726108D+00 EUMP2 =    -0.33888839791441D+02
 CCSD(T)
 CCSD(T)= -0.33905704078D+02

 The electronic state is 1-A'.
 Alpha  occ. eigenvalues --   -1.37901  -1.32888  -0.73688  -0.68660  -0.58303
 Alpha  occ. eigenvalues --   -0.52706  -0.52565  -0.47575
 Alpha virt. eigenvalues --    0.17668   0.25053   0.28620   0.38206   0.77131
 Alpha virt. eigenvalues --    0.80732   0.83871   0.86215   0.88637   1.03611
 Alpha virt. eigenvalues --    1.15845   1.18391   1.21428   1.37766   2.51480

 Mulliken charges:
               1
     1  O   -0.777753
     2  H    0.408041
     3  H    0.365725
     4  O   -0.780703
     5  H    0.386159
     6  H    0.398531
 Sum of Mulliken charges =   0.00000

 Dipole moment (field-independent basis, Debye):
    X=             -0.6097    Y=              4.0254    Z=              0.0000  Tot=              4.0713
 Quadrupole moment (field-independent basis, Debye-Ang):
   XX=             -9.8506   YY=             -8.5453   ZZ=            -15.0053
   XY=              6.0755   XZ=              0.0000   YZ=              0.0000

 1829\MP4DQ=-33.8999139\MP4SDQ=-33.9020294\CCSD=-33.9030371\CCSD(T)=-33
 Normal termination of Gaussian 16 at Sun Dec 10 06:47:33 2023.
