 Gaussian 16, Revision A.03,
 Gaussian 16:  ES64L-G16RevA.03 25-Dec-2016

 ------------------
 #p CCSD(T)/CEP-31G
 ------------------

 ------------
 H2O_H2O_3544
 ------------
 Symbolic Z-matrix:
 Charge =  0 Multiplicity = 1

                         Standard orientation:
 ---------------------------------------------------------------------
 Center     Atomic      Atomic             Coordinates (Angstroms)
 Number     Number       Type             X           Y           Z
 ---------------------------------------------------------------------
      1          8           0        0.030175    2.516185    0.000000
      2          1           0        0.027981    1.533586    0.000000
      3          1           0       -0.898605    2.836925    0.000000
      4          8           0        0.030175   -2.340567   -0.000000
      5          1           0        0.959923   -2.658491   -0.000000
      6          1           0       -0.572092   -3.116958   -0.000000
 ---------------------------------------------------------------------

 SCF Done:  E(RHF) =  -33.6544813297     A.U. after   11 cycles
 E2 =    -0.2282793296D+00 EUMP2 =    -0.33882760659252D+02
 CCSD(T)
 CCSD(T)= -0.33899685913D+02

 The electronic state is 1-A'.
 Alpha  occ. eigenvalues --   -1.36490  -1.34345  -0.72133  -0.69979  -0.56380
 Alpha  occ. eigenvalues --   -0.54163  -0.51101  -0.48959
 Alpha virt. eigenvalues --    0.19234   0.21746   0.29658   0.31962   0.79460
 Alpha virt. eigenvalues --    0.81534   0.82225   0.84509   0.85492   0.87664
 Alpha virt. eigenvalues --    1.16523   1.18771   1.20924   1.23794   2.56483

 Mulliken charges:
               1
     1  O   -0.751614
     2  H    0.383310
     3  H    0.368066
     4  O   -0.750381
     5  H    0.375869
     6  H    0.374749
 Sum of Mulliken charges =   0.00000

 Dipole moment (field-independent basis, Debye):
    X=             -1.3795    Y=             -4.1540    Z=             -0.0000  Tot=              4.3771
 Quadrupole moment (field-independent basis, Debye-Ang):
   XX=             -9.4717   YY=             -6.2934   ZZ=            -14.9940
   XY=             -7.6918   XZ=             -0.0000   YZ=              0.0000

 3028\MP4DQ=-33.8940548\MP4SDQ=-33.896081\CCSD=-33.8971274\CCSD(T)=-33.
 Normal termination of Gaussian 16 at Sun Dec 10 06:36:47 2023.
