 Gaussian 16, Revision A.03,
 Gaussian 16:  ES64L-G16RevA.03 25-Dec-2016

 ------------------
 #p CCSD(T)/CEP-31G
 ------------------

 -----------
 H2O_H2O_668
 -----------
 Symbolic Z-matrix:
 Charge =  0 Multiplicity = 1

                         Standard orientation:
 ---------------------------------------------------------------------
 Center     Atomic      Atomic             Coordinates (Angstroms)
 Number     Number       Type             X           Y           Z
 ---------------------------------------------------------------------
      1          8           0        0.033944    1.370394   -0.000000
      2          1           0        0.030026    0.387800   -0.000000
      3          1           0       -0.894271    1.692763   -0.000000
      4          8           0        0.033944   -1.192988    0.000000
      5          1           0        0.940243   -1.572629    0.000000
      6          1           0       -0.619100   -1.927181    0.000000
 ---------------------------------------------------------------------

 SCF Done:  E(RHF) =  -33.6594412448     A.U. after   11 cycles
 E2 =    -0.2288355791D+00 EUMP2 =    -0.33888276823904D+02
 CCSD(T)
 CCSD(T)= -0.33904209719D+02

 The electronic state is 1-A'.
 Alpha  occ. eigenvalues --   -1.40239  -1.29899  -0.75742  -0.69798  -0.59020
 Alpha  occ. eigenvalues --   -0.54905  -0.49003  -0.44462
 Alpha virt. eigenvalues --    0.17343   0.27202   0.27786   0.51668   0.74386
 Alpha virt. eigenvalues --    0.75225   0.85950   0.88404   0.95736   1.00438
 Alpha virt. eigenvalues --    1.15757   1.18443   1.24381   1.37311   2.62690

 Mulliken charges:
               1
     1  O   -0.780984
     2  H    0.425045
     3  H    0.341899
     4  O   -0.831858
     5  H    0.416576
     6  H    0.429322
 Sum of Mulliken charges =  -0.00000

 Dipole moment (field-independent basis, Debye):
    X=             -1.4820    Y=             -4.8986    Z=              0.0000  Tot=              5.1179
 Quadrupole moment (field-independent basis, Debye-Ang):
   XX=             -9.3575   YY=             -9.3864   ZZ=            -15.0172
   XY=             -4.1275   XZ=              0.0000   YZ=             -0.0000

 364\MP4DQ=-33.8982878\MP4SDQ=-33.9004408\CCSD=-33.9012897\CCSD(T)=-33.
 Normal termination of Gaussian 16 at Sun Dec 10 06:31:05 2023.
