 Gaussian 16, Revision A.03,
 Gaussian 16:  ES64L-G16RevA.03 25-Dec-2016

 ------------------
 #p CCSD(T)/CEP-31G
 ------------------

 ------------
 H2O_H2O_3240
 ------------
 Symbolic Z-matrix:
 Charge =  0 Multiplicity = 1

                         Standard orientation:
 ---------------------------------------------------------------------
 Center     Atomic      Atomic             Coordinates (Angstroms)
 Number     Number       Type             X           Y           Z
 ---------------------------------------------------------------------
      1          8           0        0.044855    2.399119   -0.000000
      2          1           0        0.043087    1.416519   -0.000000
      3          1           0       -0.884063    2.719458   -0.000000
      4          8           0        0.044855   -2.218716    0.000000
      5          1           0        0.860875   -2.766090    0.000000
      6          1           0       -0.737576   -2.813113    0.000000
 ---------------------------------------------------------------------

 SCF Done:  E(RHF) =  -33.6548603473     A.U. after   11 cycles
 E2 =    -0.2283045240D+00 EUMP2 =    -0.33883164871337D+02
 CCSD(T)
 CCSD(T)= -0.33900080228D+02

 The electronic state is 1-A'.
 Alpha  occ. eigenvalues --   -1.36612  -1.34137  -0.72256  -0.69760  -0.56526
 Alpha  occ. eigenvalues --   -0.53956  -0.51228  -0.48753
 Alpha virt. eigenvalues --    0.19041   0.22050   0.29576   0.32200   0.79339
 Alpha virt. eigenvalues --    0.81733   0.82309   0.84717   0.85363   0.87897
 Alpha virt. eigenvalues --    1.16418   1.19073   1.20845   1.24594   2.56283

 Mulliken charges:
               1
     1  O   -0.753122
     2  H    0.386422
     3  H    0.366180
     4  O   -0.751293
     5  H    0.377561
     6  H    0.374253
 Sum of Mulliken charges =   0.00000

 Dipole moment (field-independent basis, Debye):
    X=             -2.0477    Y=             -4.2904    Z=              0.0000  Tot=              4.7540
 Quadrupole moment (field-independent basis, Debye-Ang):
   XX=             -9.4253   YY=             -6.2469   ZZ=            -14.9948
   XY=             -6.3489   XZ=              0.0000   YZ=             -0.0000

 17\MP4DQ=-33.8944449\MP4SDQ=-33.8964761\CCSD=-33.8975187\CCSD(T)=-33.9
 Normal termination of Gaussian 16 at Sun Dec 10 06:31:23 2023.
