 Gaussian 16, Revision A.03,
 Gaussian 16:  ES64L-G16RevA.03 25-Dec-2016

 ------------------
 #p CCSD(T)/CEP-31G
 ------------------

 ------------
 H2O_H2O_4095
 ------------
 Symbolic Z-matrix:
 Charge =  0 Multiplicity = 1

                         Standard orientation:
 ---------------------------------------------------------------------
 Center     Atomic      Atomic             Coordinates (Angstroms)
 Number     Number       Type             X           Y           Z
 ---------------------------------------------------------------------
      1          8           0        0.026625    2.734278   -0.000000
      2          1           0        0.024500    1.751679   -0.000000
      3          1           0       -0.902177    3.054954   -0.000000
      4          8           0        0.026625   -2.561033    0.000000
      5          1           0        0.975194   -2.817401    0.000000
      6          1           0       -0.523516   -3.375190    0.000000
 ---------------------------------------------------------------------

 SCF Done:  E(RHF) =  -33.6537935141     A.U. after   11 cycles
 E2 =    -0.2282805221D+00 EUMP2 =    -0.33882074036192D+02
 CCSD(T)
 CCSD(T)= -0.33899018433D+02

 The electronic state is 1-A'.
 Alpha  occ. eigenvalues --   -1.36335  -1.34590  -0.71976  -0.70226  -0.56184
 Alpha  occ. eigenvalues --   -0.54392  -0.50936  -0.49195
 Alpha virt. eigenvalues --    0.19491   0.21368   0.29788   0.31641   0.79618
 Alpha virt. eigenvalues --    0.81313   0.82406   0.84300   0.85633   0.87409
 Alpha virt. eigenvalues --    1.16653   1.18418   1.21076   1.23012   2.56601

 Mulliken charges:
               1
     1  O   -0.748937
     2  H    0.379913
     3  H    0.368978
     4  O   -0.748230
     5  H    0.374439
     6  H    0.373836
 Sum of Mulliken charges =   0.00000

 Dipole moment (field-independent basis, Debye):
    X=             -1.2205    Y=             -4.0731    Z=              0.0000  Tot=              4.2520
 Quadrupole moment (field-independent basis, Debye-Ang):
   XX=             -9.5282   YY=             -6.0363   ZZ=            -14.9926
   XY=             -8.6390   XZ=              0.0000   YZ=             -0.0000

 8\MP4DQ=-33.8933873\MP4SDQ=-33.8954108\CCSD=-33.8964615\CCSD(T)=-33.89
 Normal termination of Gaussian 16 at Sun Dec 10 06:46:42 2023.
