 Gaussian 16, Revision A.03,
 Gaussian 16:  ES64L-G16RevA.03 25-Dec-2016

 ------------------
 #p CCSD(T)/CEP-31G
 ------------------

 ------------
 H2O_H2O_4624
 ------------
 Symbolic Z-matrix:
 Charge =  0 Multiplicity = 1

                         Standard orientation:
 ---------------------------------------------------------------------
 Center     Atomic      Atomic             Coordinates (Angstroms)
 Number     Number       Type             X           Y           Z
 ---------------------------------------------------------------------
      1          8           0       -0.013469    2.936105    0.000000
      2          1           0       -0.011110    1.953506    0.000000
      3          1           0        0.915256    3.257002    0.000000
      4          8           0       -0.013469   -2.776826    0.000000
      5          1           0       -0.996069   -2.779185    0.000000
      6          1           0        0.307428   -3.705551    0.000000
 ---------------------------------------------------------------------

 SCF Done:  E(RHF) =  -33.6532782244     A.U. after   11 cycles
 E2 =    -0.2282930844D+00 EUMP2 =    -0.33881571308798D+02
 CCSD(T)
 CCSD(T)= -0.33898531164D+02

 The electronic state is 1-A'.
 Alpha  occ. eigenvalues --   -1.36226  -1.34878  -0.71868  -0.70519  -0.56043
 Alpha  occ. eigenvalues --   -0.54668  -0.50820  -0.49477
 Alpha virt. eigenvalues --    0.19610   0.21012   0.29879   0.31279   0.79731
 Alpha virt. eigenvalues --    0.81045   0.82603   0.84029   0.85753   0.87120
 Alpha virt. eigenvalues --    1.16739   1.18095   1.21183   1.22580   2.56697

 Mulliken charges:
               1
     1  O   -0.746913
     2  H    0.376621
     3  H    0.370286
     4  O   -0.746620
     5  H    0.372968
     6  H    0.373657
 Sum of Mulliken charges =   0.00000

 Dipole moment (field-independent basis, Debye):
    X=              0.6189    Y=             -3.7294    Z=              0.0000  Tot=              3.7804
 Quadrupole moment (field-independent basis, Debye-Ang):
   XX=             -9.8771   YY=             -6.9292   ZZ=            -14.9915
   XY=             10.6483   XZ=              0.0000   YZ=              0.0000

 99\MP4DQ=-33.8928971\MP4SDQ=-33.894921\CCSD=-33.8959737\CCSD(T)=-33.89
 Normal termination of Gaussian 16 at Sun Dec 10 06:56:14 2023.
