 Gaussian 16, Revision A.03,
 Gaussian 16:  ES64L-G16RevA.03 25-Dec-2016

 ------------------
 #p CCSD(T)/CEP-31G
 ------------------

 ------------
 H2O_H2O_1817
 ------------
 Symbolic Z-matrix:
 Charge =  0 Multiplicity = 1

                         Standard orientation:
 ---------------------------------------------------------------------
 Center     Atomic      Atomic             Coordinates (Angstroms)
 Number     Number       Type             X           Y           Z
 ---------------------------------------------------------------------
      1          8           0        0.037503    1.829917   -0.000000
      2          1           0        0.034796    0.847319   -0.000000
      3          1           0       -0.891108    2.151142    0.000000
      4          8           0        0.037503   -1.651000   -0.000000
      5          1           0        0.917572   -2.088019   -0.000000
      6          1           0       -0.661310   -2.341772    0.000000
 ---------------------------------------------------------------------

 SCF Done:  E(RHF) =  -33.6597573331     A.U. after   11 cycles
 E2 =    -0.2286537705D+00 EUMP2 =    -0.33888411103589D+02
 CCSD(T)
 CCSD(T)= -0.33905248942D+02

 The electronic state is 1-A'.
 Alpha  occ. eigenvalues --   -1.37547  -1.32825  -0.73196  -0.68535  -0.57886
 Alpha  occ. eigenvalues --   -0.52671  -0.52228  -0.47495
 Alpha virt. eigenvalues --    0.18088   0.24442   0.28903   0.36443   0.77929
 Alpha virt. eigenvalues --    0.82010   0.83392   0.86327   0.89097   0.93078
 Alpha virt. eigenvalues --    1.15578   1.19835   1.20848   1.33528   2.50819

 Mulliken charges:
               1
     1  O   -0.774781
     2  H    0.411858
     3  H    0.360670
     4  O   -0.769839
     5  H    0.387200
     6  H    0.384892
 Sum of Mulliken charges =  -0.00000

 Dipole moment (field-independent basis, Debye):
    X=             -1.6843    Y=             -4.4400    Z=              0.0000  Tot=              4.7487
 Quadrupole moment (field-independent basis, Debye-Ang):
   XX=             -9.3956   YY=             -7.7033   ZZ=            -15.0047
   XY=             -5.3599   XZ=             -0.0000   YZ=              0.0000

 78\MP4DQ=-33.8995193\MP4SDQ=-33.9015984\CCSD=-33.9026159\CCSD(T)=-33.9
 Normal termination of Gaussian 16 at Sun Dec 10 06:53:11 2023.
