 Gaussian 16, Revision A.03,
 Gaussian 16:  ES64L-G16RevA.03 25-Dec-2016

 ------------------
 #p CCSD(T)/CEP-31G
 ------------------

 ------------
 H2O_H2O_4405
 ------------
 Symbolic Z-matrix:
 Charge =  0 Multiplicity = 1

                         Standard orientation:
 ---------------------------------------------------------------------
 Center     Atomic      Atomic             Coordinates (Angstroms)
 Number     Number       Type             X           Y           Z
 ---------------------------------------------------------------------
      1          8           0        0.079845    2.856211    0.000000
      2          1           0        0.079444    1.873610    0.000000
      3          1           0       -0.849519    3.175256   -0.000000
      4          8           0        0.079845   -2.697135    0.000000
      5          1           0        0.395312   -3.627718    0.000000
      6          1           0       -0.902751   -2.693755   -0.000000
 ---------------------------------------------------------------------

 SCF Done:  E(RHF) =  -33.6525949545     A.U. after   11 cycles
 E2 =    -0.2283336134D+00 EUMP2 =    -0.33880928567959D+02
 CCSD(T)
 CCSD(T)= -0.33897906628D+02

 The electronic state is 1-A'.
 Alpha  occ. eigenvalues --   -1.36304  -1.34889  -0.71950  -0.70508  -0.56088
 Alpha  occ. eigenvalues --   -0.54642  -0.50886  -0.49470
 Alpha virt. eigenvalues --    0.19466   0.20997   0.29755   0.31245   0.79674
 Alpha virt. eigenvalues --    0.81060   0.82585   0.84070   0.85693   0.87239
 Alpha virt. eigenvalues --    1.16631   1.18052   1.21075   1.22585   2.56595

 Mulliken charges:
               1
     1  O   -0.744324
     2  H    0.377203
     3  H    0.367109
     4  O   -0.744400
     5  H    0.374855
     6  H    0.369557
 Sum of Mulliken charges =  -0.00000

 Dipole moment (field-independent basis, Debye):
    X=             -3.6701    Y=             -3.7359    Z=             -0.0000  Tot=              5.2370
 Quadrupole moment (field-independent basis, Debye-Ang):
   XX=            -10.4751   YY=             -7.0932   ZZ=            -14.9899
   XY=             -4.0208   XZ=              0.0000   YZ=             -0.0000

 35\MP4DQ=-33.8922674\MP4SDQ=-33.8942932\CCSD=-33.8953467\CCSD(T)=-33.8
 Normal termination of Gaussian 16 at Sun Dec 10 06:52:17 2023.
