 Gaussian 16, Revision A.03,
 Gaussian 16:  ES64L-G16RevA.03 25-Dec-2016

 ------------------
 #p CCSD(T)/CEP-31G
 ------------------

 ------------
 H2O_H2O_3373
 ------------
 Symbolic Z-matrix:
 Charge =  0 Multiplicity = 1

                         Standard orientation:
 ---------------------------------------------------------------------
 Center     Atomic      Atomic             Coordinates (Angstroms)
 Number     Number       Type             X           Y           Z
 ---------------------------------------------------------------------
      1          8           0       -0.016617    2.439744    0.000000
      2          1           0       -0.013870    1.457147    0.000000
      3          1           0        0.911982    2.761008    0.000000
      4          8           0       -0.016617   -2.276350    0.000000
      5          1           0       -0.996931   -2.343356    0.000000
      6          1           0        0.364692   -3.181950    0.000000
 ---------------------------------------------------------------------

 SCF Done:  E(RHF) =  -33.6546337141     A.U. after   11 cycles
 E2 =    -0.2282776842D+00 EUMP2 =    -0.33882911398363D+02
 CCSD(T)
 CCSD(T)= -0.33899835583D+02

 The electronic state is 1-A'.
 Alpha  occ. eigenvalues --   -1.36545  -1.34430  -0.72193  -0.70073  -0.56440
 Alpha  occ. eigenvalues --   -0.54257  -0.51156  -0.49049
 Alpha virt. eigenvalues --    0.18983   0.21800   0.29593   0.31909   0.79406
 Alpha virt. eigenvalues --    0.81445   0.82237   0.84340   0.85488   0.87598
 Alpha virt. eigenvalues --    1.16440   1.18787   1.20851   1.24261   2.56435

 Mulliken charges:
               1
     1  O   -0.752263
     2  H    0.382558
     3  H    0.369397
     4  O   -0.751239
     5  H    0.375344
     6  H    0.376203
 Sum of Mulliken charges =   0.00000

 Dipole moment (field-independent basis, Debye):
    X=              0.7587    Y=             -3.8711    Z=              0.0000  Tot=              3.9447
 Quadrupole moment (field-independent basis, Debye-Ang):
   XX=             -9.7691   YY=             -7.2538   ZZ=            -14.9941
   XY=              8.5438   XZ=              0.0000   YZ=              0.0000

 494\MP4DQ=-33.8942018\MP4SDQ=-33.8962298\CCSD=-33.8972751\CCSD(T)=-33.
 Normal termination of Gaussian 16 at Sun Dec 10 06:33:46 2023.
