 Gaussian 16, Revision A.03,
 Gaussian 16:  ES64L-G16RevA.03 25-Dec-2016

 ------------------
 #p CCSD(T)/CEP-31G
 ------------------

 ------------
 H2O_H2O_4719
 ------------
 Symbolic Z-matrix:
 Charge =  0 Multiplicity = 1

                         Standard orientation:
 ---------------------------------------------------------------------
 Center     Atomic      Atomic             Coordinates (Angstroms)
 Number     Number       Type             X           Y           Z
 ---------------------------------------------------------------------
      1          8           0        0.030143    2.984875   -0.000000
      2          1           0        0.028304    2.002275   -0.000000
      3          1           0       -0.898752    3.305280   -0.000000
      4          8           0        0.030143   -2.809236    0.000000
      5          1           0        0.960006   -3.126824    0.000000
      6          1           0       -0.571843   -3.585844    0.000000
 ---------------------------------------------------------------------

 SCF Done:  E(RHF) =  -33.6532828911     A.U. after   11 cycles
 E2 =    -0.2282978551D+00 EUMP2 =    -0.33881580746212D+02
 CCSD(T)
 CCSD(T)= -0.33898539239D+02

 The electronic state is 1-A'.
 Alpha  occ. eigenvalues --   -1.36211  -1.34752  -0.71849  -0.70387  -0.56029
 Alpha  occ. eigenvalues --   -0.54538  -0.50805  -0.49349
 Alpha virt. eigenvalues --    0.19637   0.21138   0.29892   0.31418   0.79746
 Alpha virt. eigenvalues --    0.81171   0.82614   0.84157   0.85792   0.87259
 Alpha virt. eigenvalues --    1.16756   1.18216   1.21198   1.22706   2.56728

 Mulliken charges:
               1
     1  O   -0.746934
     2  H    0.377725
     3  H    0.369204
     4  O   -0.746441
     5  H    0.373637
     6  H    0.372808
 Sum of Mulliken charges =  -0.00000

 Dipole moment (field-independent basis, Debye):
    X=             -1.3849    Y=             -4.1127    Z=              0.0000  Tot=              4.3396
 Quadrupole moment (field-independent basis, Debye-Ang):
   XX=             -9.4759   YY=             -5.3383   ZZ=            -14.9916
   XY=             -9.0583   XZ=              0.0000   YZ=             -0.0000

 1585\MP4DQ=-33.8929058\MP4SDQ=-33.8949295\CCSD=-33.8959821\CCSD(T)=-33
 Normal termination of Gaussian 16 at Sun Dec 10 06:57:57 2023.
