 Gaussian 16, Revision A.03,
 Gaussian 16:  ES64L-G16RevA.03 25-Dec-2016

 ------------------
 #p CCSD(T)/CEP-31G
 ------------------

 ------------
 H2O_H2O_4338
 ------------
 Symbolic Z-matrix:
 Charge =  0 Multiplicity = 1

                         Standard orientation:
 ---------------------------------------------------------------------
 Center     Atomic      Atomic             Coordinates (Angstroms)
 Number     Number       Type             X           Y           Z
 ---------------------------------------------------------------------
      1          8           0        0.052274    2.837619   -0.000000
      2          1           0        0.051018    1.855018   -0.000000
      3          1           0       -0.876811    3.157473   -0.000000
      4          8           0        0.052274   -2.657700    0.000000
      5          1           0        0.790204   -3.306517    0.000000
      6          1           0       -0.800794   -3.145328    0.000000
 ---------------------------------------------------------------------

 SCF Done:  E(RHF) =  -33.6533593165     A.U. after   11 cycles
 E2 =    -0.2283005174D+00 EUMP2 =    -0.33881659833903D+02
 CCSD(T)
 CCSD(T)= -0.33898615469D+02

 The electronic state is 1-A'.
 Alpha  occ. eigenvalues --   -1.36292  -1.34618  -0.71932  -0.70245  -0.56118
 Alpha  occ. eigenvalues --   -0.54401  -0.50887  -0.49214
 Alpha virt. eigenvalues --    0.19542   0.21300   0.29813   0.31578   0.79668
 Alpha virt. eigenvalues --    0.81301   0.82504   0.84299   0.85703   0.87422
 Alpha virt. eigenvalues --    1.16677   1.18355   1.21119   1.22885   2.56643

 Mulliken charges:
               1
     1  O   -0.747258
     2  H    0.379517
     3  H    0.367719
     4  O   -0.746712
     5  H    0.374792
     6  H    0.371941
 Sum of Mulliken charges =   0.00000

 Dipole moment (field-independent basis, Debye):
    X=             -2.3998    Y=             -4.2251    Z=              0.0000  Tot=              4.8590
 Quadrupole moment (field-independent basis, Debye-Ang):
   XX=             -9.5146   YY=             -5.2971   ZZ=            -14.9918
   XY=             -6.6815   XZ=              0.0000   YZ=             -0.0000

 348\MP4DQ=-33.8929822\MP4SDQ=-33.8950062\CCSD=-33.896058\CCSD(T)=-33.8
 Normal termination of Gaussian 16 at Sun Dec 10 06:51:05 2023.
