 Gaussian 16, Revision A.03,
 Gaussian 16:  ES64L-G16RevA.03 25-Dec-2016

 ------------------
 #p CCSD(T)/CEP-31G
 ------------------

 -----------
 H2O_H2O_579
 -----------
 Symbolic Z-matrix:
 Charge =  0 Multiplicity = 1

                         Standard orientation:
 ---------------------------------------------------------------------
 Center     Atomic      Atomic             Coordinates (Angstroms)
 Number     Number       Type             X           Y           Z
 ---------------------------------------------------------------------
      1          8           0        0.082828   -1.328004    0.000000
      2          1           0        0.082139   -0.345403    0.000000
      3          1           0       -0.846442   -1.647321    0.000000
      4          8           0        0.082828    1.173538    0.000000
      5          1           0        0.336479    2.122836    0.000000
      6          1           0       -0.897423    1.105613    0.000000
 ---------------------------------------------------------------------

 SCF Done:  E(RHF) =  -33.6452288688     A.U. after   11 cycles
 E2 =    -0.2288293045D+00 EUMP2 =    -0.33874058173237D+02
 CCSD(T)
 CCSD(T)= -0.33890375905D+02

 The electronic state is 1-A'.
 Alpha  occ. eigenvalues --   -1.41073  -1.31117  -0.77837  -0.69220  -0.58972
 Alpha  occ. eigenvalues --   -0.55298  -0.50147  -0.45502
 Alpha virt. eigenvalues --    0.16580   0.25419   0.27969   0.51346   0.73890
 Alpha virt. eigenvalues --    0.76844   0.85599   0.88010   0.95338   1.09686
 Alpha virt. eigenvalues --    1.14814   1.23342   1.29435   1.37535   2.66302

 Mulliken charges:
               1
     1  O   -0.731361
     2  H    0.371650
     3  H    0.329799
     4  O   -0.811365
     5  H    0.458909
     6  H    0.382368
 Sum of Mulliken charges =   0.00000

 Dipole moment (field-independent basis, Debye):
    X=             -3.5486    Y=              4.4391    Z=              0.0000  Tot=              5.6832
 Quadrupole moment (field-independent basis, Debye-Ang):
   XX=            -10.6936   YY=             -9.5400   ZZ=            -14.9878
   XY=              2.8979   XZ=              0.0000   YZ=              0.0000

 92\MP4DQ=-33.8842767\MP4SDQ=-33.8865801\CCSD=-33.8874445\CCSD(T)=-33.8
 Normal termination of Gaussian 16 at Sun Dec 10 06:29:25 2023.
