 Gaussian 16, Revision A.03,
 Gaussian 16:  ES64L-G16RevA.03 25-Dec-2016

 ------------------
 #p CCSD(T)/CEP-31G
 ------------------

 -----------
 H2O_H2O_148
 -----------
 Symbolic Z-matrix:
 Charge =  0 Multiplicity = 1

                         Standard orientation:
 ---------------------------------------------------------------------
 Center     Atomic      Atomic             Coordinates (Angstroms)
 Number     Number       Type             X           Y           Z
 ---------------------------------------------------------------------
      1          8           0        0.016891   -1.153320    0.000000
      2          1           0        0.010848   -0.170737    0.000000
      3          1           0       -0.910624   -1.477697    0.000000
      4          8           0        0.016891    0.990039    0.000000
      5          1           0        0.996974    1.060333    0.000000
      6          1           0       -0.367455    1.894353    0.000000
 ---------------------------------------------------------------------

 SCF Done:  E(RHF) =  -33.6075842484     A.U. after   11 cycles
 E2 =    -0.2270268541D+00 EUMP2 =    -0.33834611102485D+02
 CCSD(T)
 CCSD(T)= -0.33849495350D+02

 The electronic state is 1-A'.
 Alpha  occ. eigenvalues --   -1.45161  -1.27489  -0.82341  -0.73370  -0.58256
 Alpha  occ. eigenvalues --   -0.56447  -0.44836  -0.41686
 Alpha virt. eigenvalues --    0.16899   0.24764   0.29982   0.61318   0.73377
 Alpha virt. eigenvalues --    0.74650   0.90050   0.91244   0.93079   1.03788
 Alpha virt. eigenvalues --    1.12974   1.19960   1.30332   1.43122   2.95899

 Mulliken charges:
               1
     1  O   -0.740120
     2  H    0.282160
     3  H    0.330847
     4  O   -0.800127
     5  H    0.435148
     6  H    0.492092
 Sum of Mulliken charges =   0.00000

 Dipole moment (field-independent basis, Debye):
    X=             -0.7285    Y=              5.2513    Z=              0.0000  Tot=              5.3016
 Quadrupole moment (field-independent basis, Debye-Ang):
   XX=             -9.6189   YY=            -10.3620   ZZ=            -14.9389
   XY=              3.7779   XZ=              0.0000   YZ=              0.0000

 17\MP4DQ=-33.8433467\MP4SDQ=-33.8456766\CCSD=-33.8463441\CCSD(T)=-33.8
 Normal termination of Gaussian 16 at Sun Dec 10 06:20:57 2023.
