 Gaussian 16, Revision A.03,
 Gaussian 16:  ES64L-G16RevA.03 25-Dec-2016

 ------------------
 #p CCSD(T)/CEP-31G
 ------------------

 ------------
 H2O_H2O_1884
 ------------
 Symbolic Z-matrix:
 Charge =  0 Multiplicity = 1

                         Standard orientation:
 ---------------------------------------------------------------------
 Center     Atomic      Atomic             Coordinates (Angstroms)
 Number     Number       Type             X           Y           Z
 ---------------------------------------------------------------------
      1          8           0        0.066784    1.856649    0.000000
      2          1           0        0.065529    0.874048    0.000000
      3          1           0       -0.862301    2.176503    0.000000
      4          8           0        0.066784   -1.683582   -0.000000
      5          1           0        0.611645   -2.501282   -0.000000
      6          1           0       -0.883423   -1.933805   -0.000000
 ---------------------------------------------------------------------

 SCF Done:  E(RHF) =  -33.6576468266     A.U. after   11 cycles
 E2 =    -0.2286905725D+00 EUMP2 =    -0.33886337399069D+02
 CCSD(T)
 CCSD(T)= -0.33903244310D+02

 The electronic state is 1-A'.
 Alpha  occ. eigenvalues --   -1.37528  -1.33196  -0.73208  -0.68828  -0.57704
 Alpha  occ. eigenvalues --   -0.52984  -0.52171  -0.47823
 Alpha virt. eigenvalues --    0.17839   0.24059   0.28808   0.35621   0.78047
 Alpha virt. eigenvalues --    0.82446   0.83040   0.85483   0.89451   0.92891
 Alpha virt. eigenvalues --    1.15456   1.19799   1.20505   1.34422   2.51455

 Mulliken charges:
               1
     1  O   -0.766466
     2  H    0.407029
     3  H    0.357200
     4  O   -0.763930
     5  H    0.390431
     6  H    0.375735
 Sum of Mulliken charges =  -0.00000

 Dipole moment (field-independent basis, Debye):
    X=             -3.0078    Y=             -4.2904    Z=             -0.0000  Tot=              5.2397
 Quadrupole moment (field-independent basis, Debye-Ang):
   XX=             -9.8987   YY=             -7.8265   ZZ=            -14.9998
   XY=             -4.1651   XZ=             -0.0000   YZ=              0.0000

 8\MP4DQ=-33.8975047\MP4SDQ=-33.8995928\CCSD=-33.900615\CCSD(T)=-33.903
 Normal termination of Gaussian 16 at Sun Dec 10 06:54:27 2023.
