 Gaussian 16, Revision A.03,
 Gaussian 16:  ES64L-G16RevA.03 25-Dec-2016

 ------------------
 #p CCSD(T)/CEP-31G
 ------------------

 ------------
 H2O_H2O_4209
 ------------
 Symbolic Z-matrix:
 Charge =  0 Multiplicity = 1

                         Standard orientation:
 ---------------------------------------------------------------------
 Center     Atomic      Atomic             Coordinates (Angstroms)
 Number     Number       Type             X           Y           Z
 ---------------------------------------------------------------------
      1          8           0        0.066746    2.784068    0.000000
      2          1           0        0.065922    1.801467    0.000000
      3          1           0       -0.862479    3.103514    0.000000
      4          8           0        0.066746   -2.610942   -0.000000
      5          1           0        0.611965   -3.428403   -0.000000
      6          1           0       -0.883351   -2.861583   -0.000000
 ---------------------------------------------------------------------

 SCF Done:  E(RHF) =  -33.6531330426     A.U. after   11 cycles
 E2 =    -0.2283125905D+00 EUMP2 =    -0.33881445633076D+02
 CCSD(T)
 CCSD(T)= -0.33898407765D+02

 The electronic state is 1-A'.
 Alpha  occ. eigenvalues --   -1.36332  -1.34669  -0.71975  -0.70291  -0.56146
 Alpha  occ. eigenvalues --   -0.54441  -0.50923  -0.49260
 Alpha virt. eigenvalues --    0.19469   0.21252   0.29753   0.31522   0.79635
 Alpha virt. eigenvalues --    0.81259   0.82483   0.84266   0.85653   0.87418
 Alpha virt. eigenvalues --    1.16628   1.18297   1.21060   1.22872   2.56596

 Mulliken charges:
               1
     1  O   -0.746400
     2  H    0.379355
     3  H    0.367015
     4  O   -0.746112
     5  H    0.375243
     6  H    0.370898
 Sum of Mulliken charges =   0.00000

 Dipole moment (field-independent basis, Debye):
    X=             -3.0644    Y=             -4.0707    Z=             -0.0000  Tot=              5.0952
 Quadrupole moment (field-independent basis, Debye-Ang):
   XX=             -9.8936   YY=             -5.9771   ZZ=            -14.9912
   XY=             -5.2994   XZ=             -0.0000   YZ=              0.0000

 261\MP4DQ=-33.8927724\MP4SDQ=-33.8947972\CCSD=-33.8958492\CCSD(T)=-33.
 Normal termination of Gaussian 16 at Sun Dec 10 06:48:45 2023.
