 Gaussian 16, Revision A.03,
 Gaussian 16:  ES64L-G16RevA.03 25-Dec-2016

 ------------------
 #p CCSD(T)/CEP-31G
 ------------------

 ------------
 H2O_H2O_2011
 ------------
 Symbolic Z-matrix:
 Charge =  0 Multiplicity = 1

                         Standard orientation:
 ---------------------------------------------------------------------
 Center     Atomic      Atomic             Coordinates (Angstroms)
 Number     Number       Type             X           Y           Z
 ---------------------------------------------------------------------
      1          8           0        0.059668    1.908868    0.000000
      2          1           0        0.058115    0.926267    0.000000
      3          1           0       -0.869320    2.229003   -0.000000
      4          8           0        0.059668   -1.731460    0.000000
      5          1           0        0.706374   -2.471242    0.000000
      6          1           0       -0.849862   -2.103294   -0.000000
 ---------------------------------------------------------------------

 SCF Done:  E(RHF) =  -33.6577822995     A.U. after   11 cycles
 E2 =    -0.2286142442D+00 EUMP2 =    -0.33886396543634D+02
 CCSD(T)
 CCSD(T)= -0.33903287173D+02

 The electronic state is 1-A'.
 Alpha  occ. eigenvalues --   -1.37391  -1.33206  -0.73052  -0.68837  -0.57561
 Alpha  occ. eigenvalues --   -0.53021  -0.52040  -0.47843
 Alpha virt. eigenvalues --    0.18045   0.23870   0.28947   0.35071   0.78287
 Alpha virt. eigenvalues --    0.82886   0.82948   0.85616   0.89206   0.90196
 Alpha virt. eigenvalues --    1.15656   1.20142   1.20295   1.32931   2.51888

 Mulliken charges:
               1
     1  O   -0.766633
     2  H    0.405459
     3  H    0.358945
     4  O   -0.762171
     5  H    0.387514
     6  H    0.376886
 Sum of Mulliken charges =   0.00000

 Dipole moment (field-independent basis, Debye):
    X=             -2.6912    Y=             -4.3709    Z=             -0.0000  Tot=              5.1329
 Quadrupole moment (field-independent basis, Debye-Ang):
   XX=             -9.6704   YY=             -7.5497   ZZ=            -15.0003
   XY=             -4.5839   XZ=              0.0000   YZ=             -0.0000

 275\MP4DQ=-33.8975701\MP4SDQ=-33.8996474\CCSD=-33.9006715\CCSD(T)=-33.
 Normal termination of Gaussian 16 at Sun Dec 10 06:56:50 2023.
