 Gaussian 16, Revision A.03,
 Gaussian 16:  ES64L-G16RevA.03 25-Dec-2016

 ------------------
 #p CCSD(T)/CEP-31G
 ------------------

 ------------
 H2O_H2O_2064
 ------------
 Symbolic Z-matrix:
 Charge =  0 Multiplicity = 1

                         Standard orientation:
 ---------------------------------------------------------------------
 Center     Atomic      Atomic             Coordinates (Angstroms)
 Number     Number       Type             X           Y           Z
 ---------------------------------------------------------------------
      1          8           0        0.048618    1.930412   -0.000000
      2          1           0        0.046571    0.947813   -0.000000
      3          1           0       -0.880210    2.251014    0.000000
      4          8           0        0.048618   -1.750061   -0.000000
      5          1           0        0.826921   -2.349853   -0.000000
      6          1           0       -0.771167   -2.291779    0.000000
 ---------------------------------------------------------------------

 SCF Done:  E(RHF) =  -33.6582141278     A.U. after   11 cycles
 E2 =    -0.2285671271D+00 EUMP2 =    -0.33886781254911D+02
 CCSD(T)
 CCSD(T)= -0.33903653300D+02

 The electronic state is 1-A'.
 Alpha  occ. eigenvalues --   -1.37326  -1.33155  -0.72975  -0.68799  -0.57519
 Alpha  occ. eigenvalues --   -0.52995  -0.51985  -0.47805
 Alpha virt. eigenvalues --    0.18188   0.23849   0.29037   0.34935   0.78378
 Alpha virt. eigenvalues --    0.82870   0.83130   0.85932   0.88434   0.89529
 Alpha virt. eigenvalues --    1.15772   1.20157   1.20390   1.32116   2.52022

 Mulliken charges:
               1
     1  O   -0.768162
     2  H    0.405237
     3  H    0.360663
     4  O   -0.762434
     5  H    0.385601
     6  H    0.379095
 Sum of Mulliken charges =   0.00000

 Dipole moment (field-independent basis, Debye):
    X=             -2.1927    Y=             -4.4310    Z=              0.0000  Tot=              4.9438
 Quadrupole moment (field-independent basis, Debye-Ang):
   XX=             -9.4526   YY=             -7.3871   ZZ=            -15.0013
   XY=             -5.1273   XZ=             -0.0000   YZ=              0.0000

 2022\MP4DQ=-33.8979485\MP4SDQ=-33.9000197\CCSD=-33.9010438\CCSD(T)=-33
 Normal termination of Gaussian 16 at Sun Dec 10 06:57:51 2023.
