 Gaussian 16, Revision A.03,
 Gaussian 16:  ES64L-G16RevA.03 25-Dec-2016

 ------------------
 #p CCSD(T)/CEP-31G
 ------------------

 -----------
 H2O_H2O_960
 -----------
 Symbolic Z-matrix:
 Charge =  0 Multiplicity = 1

                         Standard orientation:
 ---------------------------------------------------------------------
 Center     Atomic      Atomic             Coordinates (Angstroms)
 Number     Number       Type             X           Y           Z
 ---------------------------------------------------------------------
      1          8           0        0.063297    1.488969   -0.000000
      2          1           0        0.061497    0.506369   -0.000000
      3          1           0       -0.865610    1.809337   -0.000000
      4          8           0        0.063297   -1.313549    0.000000
      5          1           0        0.660039   -2.094194    0.000000
      6          1           0       -0.868683   -1.624867   -0.000000
 ---------------------------------------------------------------------

 SCF Done:  E(RHF) =  -33.6607962628     A.U. after   11 cycles
 E2 =    -0.2291097754D+00 EUMP2 =    -0.33889906038146D+02
 CCSD(T)
 CCSD(T)= -0.33906380186D+02

 The electronic state is 1-A'.
 Alpha  occ. eigenvalues --   -1.39160  -1.31285  -0.74838  -0.68414  -0.59224
 Alpha  occ. eigenvalues --   -0.53846  -0.50752  -0.45873
 Alpha virt. eigenvalues --    0.17364   0.26450   0.27720   0.45779   0.75303
 Alpha virt. eigenvalues --    0.77336   0.85284   0.86581   0.94937   1.04618
 Alpha virt. eigenvalues --    1.15432   1.18413   1.22203   1.36119   2.53923

 Mulliken charges:
               1
     1  O   -0.776899
     2  H    0.431639
     3  H    0.342511
     4  O   -0.810772
     5  H    0.423418
     6  H    0.390102
 Sum of Mulliken charges =  -0.00000

 Dipole moment (field-independent basis, Debye):
    X=             -2.7508    Y=             -4.6533    Z=             -0.0000  Tot=              5.4056
 Quadrupole moment (field-independent basis, Debye-Ang):
   XX=             -9.7585   YY=             -8.8703   ZZ=            -15.0131
   XY=             -3.8349   XZ=              0.0000   YZ=             -0.0000

 \MP4DQ=-33.900492\MP4SDQ=-33.9026369\CCSD=-33.9035717\CCSD(T)=-33.9063
 Normal termination of Gaussian 16 at Sun Dec 10 06:36:34 2023.
