 Gaussian 16, Revision A.03,
 Gaussian 16:  ES64L-G16RevA.03 25-Dec-2016

 ------------------
 #p CCSD(T)/CEP-31G
 ------------------

 -----------
 H2O_H2O_919
 -----------
 Symbolic Z-matrix:
 Charge =  0 Multiplicity = 1

                         Standard orientation:
 ---------------------------------------------------------------------
 Center     Atomic      Atomic             Coordinates (Angstroms)
 Number     Number       Type             X           Y           Z
 ---------------------------------------------------------------------
      1          8           0        0.030323    1.469085    0.000000
      2          1           0        0.026467    0.486491    0.000000
      3          1           0       -0.897912    1.791397    0.000000
      4          8           0        0.030323   -1.293570    0.000000
      5          1           0        0.959532   -1.613066    0.000000
      6          1           0       -0.573256   -2.068941    0.000000
 ---------------------------------------------------------------------

 SCF Done:  E(RHF) =  -33.6627769537     A.U. after   11 cycles
 E2 =    -0.2288910473D+00 EUMP2 =    -0.33891668000993D+02
 CCSD(T)
 CCSD(T)= -0.33908021924D+02

 The electronic state is 1-A'.
 Alpha  occ. eigenvalues --   -1.39219  -1.30901  -0.74874  -0.68386  -0.59405
 Alpha  occ. eigenvalues --   -0.53942  -0.50371  -0.45549
 Alpha virt. eigenvalues --    0.17586   0.26891   0.27770   0.46820   0.75186
 Alpha virt. eigenvalues --    0.76864   0.86137   0.86943   0.93896   1.03093
 Alpha virt. eigenvalues --    1.15953   1.18350   1.23412   1.36561   2.54947

 Mulliken charges:
               1
     1  O   -0.785780
     2  H    0.429522
     3  H    0.350582
     4  O   -0.817894
     5  H    0.404838
     6  H    0.418731
 Sum of Mulliken charges =  -0.00000

 Dipole moment (field-independent basis, Debye):
    X=             -1.3430    Y=             -4.6761    Z=              0.0000  Tot=              4.8651
 Quadrupole moment (field-independent basis, Debye-Ang):
   XX=             -9.4164   YY=             -8.9336   ZZ=            -15.0188
   XY=             -4.5307   XZ=              0.0000   YZ=              0.0000

 MP4DQ=-33.9021573\MP4SDQ=-33.9042834\CCSD=-33.9052067\CCSD(T)=-33.9080
 Normal termination of Gaussian 16 at Sun Dec 10 06:35:48 2023.
