 Gaussian 16, Revision A.03,
 Gaussian 16:  ES64L-G16RevA.03 25-Dec-2016

 ------------------
 #p CCSD(T)/CEP-31G
 ------------------

 ------------
 H2O_H2O_4281
 ------------
 Symbolic Z-matrix:
 Charge =  0 Multiplicity = 1

                         Standard orientation:
 ---------------------------------------------------------------------
 Center     Atomic      Atomic             Coordinates (Angstroms)
 Number     Number       Type             X           Y           Z
 ---------------------------------------------------------------------
      1          8           0        0.076750    2.808605    0.000000
      2          1           0        0.076246    1.826004    0.000000
      3          1           0       -0.852580    3.127748   -0.000000
      4          8           0        0.076750   -2.645380    0.000000
      5          1           0        0.452310   -3.553378    0.000000
      6          1           0       -0.903970   -2.706169   -0.000000
 ---------------------------------------------------------------------

 SCF Done:  E(RHF) =  -33.6527661449     A.U. after   11 cycles
 E2 =    -0.2283273178D+00 EUMP2 =    -0.33881093462685D+02
 CCSD(T)
 CCSD(T)= -0.33898066474D+02

 The electronic state is 1-A'.
 Alpha  occ. eigenvalues --   -1.36327  -1.34811  -0.71973  -0.70431  -0.56121
 Alpha  occ. eigenvalues --   -0.54570  -0.50912  -0.49395
 Alpha virt. eigenvalues --    0.19444   0.21093   0.29738   0.31345   0.79648
 Alpha virt. eigenvalues --    0.81131   0.82535   0.84140   0.85661   0.87312
 Alpha virt. eigenvalues --    1.16616   1.18139   1.21052   1.22701   2.56579

 Mulliken charges:
               1
     1  O   -0.744989
     2  H    0.378031
     3  H    0.366938
     4  O   -0.744986
     5  H    0.375117
     6  H    0.369889
 Sum of Mulliken charges =  -0.00000

 Dipole moment (field-independent basis, Debye):
    X=             -3.5260    Y=             -3.8365    Z=             -0.0000  Tot=              5.2107
 Quadrupole moment (field-independent basis, Debye-Ang):
   XX=            -10.3177   YY=             -6.7835   ZZ=            -14.9903
   XY=             -4.3293   XZ=              0.0000   YZ=             -0.0000

 37\MP4DQ=-33.8924283\MP4SDQ=-33.8944539\CCSD=-33.8955069\CCSD(T)=-33.8
 Normal termination of Gaussian 16 at Sun Dec 10 06:50:03 2023.
