 Gaussian 16, Revision A.03,
 Gaussian 16:  ES64L-G16RevA.03 25-Dec-2016

 ------------------
 #p CCSD(T)/CEP-31G
 ------------------

 ------------
 H2O_H2O_4897
 ------------
 Symbolic Z-matrix:
 Charge =  0 Multiplicity = 1

                         Standard orientation:
 ---------------------------------------------------------------------
 Center     Atomic      Atomic             Coordinates (Angstroms)
 Number     Number       Type             X           Y           Z
 ---------------------------------------------------------------------
      1          8           0       -0.019806    3.050058    0.000000
      2          1           0       -0.017715    2.067459    0.000000
      3          1           0        0.909007    3.370702    0.000000
      4          8           0       -0.019806   -2.882928    0.000000
      5          1           0       -0.993726   -3.013256    0.000000
      6          1           0        0.419329   -3.761943    0.000000
 ---------------------------------------------------------------------

 SCF Done:  E(RHF) =  -33.6531605571     A.U. after   11 cycles
 E2 =    -0.2283004456D+00 EUMP2 =    -0.33881461002725D+02
 CCSD(T)
 CCSD(T)= -0.33898423473D+02

 The electronic state is 1-A'.
 Alpha  occ. eigenvalues --   -1.36181  -1.34868  -0.71820  -0.70505  -0.55991
 Alpha  occ. eigenvalues --   -0.54652  -0.50773  -0.49464
 Alpha virt. eigenvalues --    0.19663   0.21007   0.29917   0.31280   0.79777
 Alpha virt. eigenvalues --    0.81060   0.82666   0.84046   0.85822   0.87140
 Alpha virt. eigenvalues --    1.16781   1.18096   1.21226   1.22573   2.56757

 Mulliken charges:
               1
     1  O   -0.746446
     2  H    0.376531
     3  H    0.369913
     4  O   -0.746095
     5  H    0.373037
     6  H    0.373061
 Sum of Mulliken charges =  -0.00000

 Dipole moment (field-independent basis, Debye):
    X=              0.9104    Y=             -3.9089    Z=              0.0000  Tot=              4.0135
 Quadrupole moment (field-independent basis, Debye-Ang):
   XX=             -9.6814   YY=             -6.0145   ZZ=            -14.9913
   XY=             10.3386   XZ=              0.0000   YZ=              0.0000

 \MP4DQ=-33.892789\MP4SDQ=-33.894813\CCSD=-33.895866\CCSD(T)=-33.898423
 Normal termination of Gaussian 16 at Sun Dec 10 07:01:35 2023.
