 Gaussian 16, Revision A.03,
 Gaussian 16:  ES64L-G16RevA.03 25-Dec-2016

 ------------------
 #p CCSD(T)/CEP-31G
 ------------------

 ------------
 H2O_H2O_1248
 ------------
 Symbolic Z-matrix:
 Charge =  0 Multiplicity = 1

                         Standard orientation:
 ---------------------------------------------------------------------
 Center     Atomic      Atomic             Coordinates (Angstroms)
 Number     Number       Type             X           Y           Z
 ---------------------------------------------------------------------
      1          8           0       -0.016745    1.592109    0.000000
      2          1           0       -0.012457    0.609517    0.000000
      3          1           0        0.911349    1.914829    0.000000
      4          8           0       -0.016745   -1.428768    0.000000
      5          1           0       -0.996954   -1.497311    0.000000
      6          1           0        0.365983   -2.333768    0.000000
 ---------------------------------------------------------------------

 SCF Done:  E(RHF) =  -33.6615356364     A.U. after   11 cycles
 E2 =    -0.2287125908D+00 EUMP2 =    -0.33890248227207D+02
 CCSD(T)
 CCSD(T)= -0.33906996320D+02

 The electronic state is 1-A'.
 Alpha  occ. eigenvalues --   -1.38377  -1.32213  -0.74212  -0.68248  -0.58919
 Alpha  occ. eigenvalues --   -0.53056  -0.51938  -0.46902
 Alpha virt. eigenvalues --    0.17681   0.25800   0.28269   0.41363   0.76266
 Alpha virt. eigenvalues --    0.79373   0.85056   0.86387   0.90048   1.08342
 Alpha virt. eigenvalues --    1.16585   1.17418   1.22292   1.37000   2.51424

 Mulliken charges:
               1
     1  O   -0.782102
     2  H    0.414781
     3  H    0.362130
     4  O   -0.795794
     5  H    0.391465
     6  H    0.409520
 Sum of Mulliken charges =   0.00000

 Dipole moment (field-independent basis, Debye):
    X=              0.7501    Y=             -4.2237    Z=              0.0000  Tot=              4.2898
 Quadrupole moment (field-independent basis, Debye-Ang):
   XX=             -9.7392   YY=             -8.6591   ZZ=            -15.0105
   XY=              5.4926   XZ=              0.0000   YZ=              0.0000

 4548\MP4DQ=-33.9011684\MP4SDQ=-33.9032962\CCSD=-33.9042832\CCSD(T)=-33
 Normal termination of Gaussian 16 at Sun Dec 10 06:42:04 2023.
