 Gaussian 16, Revision A.03,
 Gaussian 16:  ES64L-G16RevA.03 25-Dec-2016

 ------------------
 #p CCSD(T)/CEP-31G
 ------------------

 ------------
 H2O_H2O_4629
 ------------
 Symbolic Z-matrix:
 Charge =  0 Multiplicity = 1

                         Standard orientation:
 ---------------------------------------------------------------------
 Center     Atomic      Atomic             Coordinates (Angstroms)
 Number     Number       Type             X           Y           Z
 ---------------------------------------------------------------------
      1          8           0        0.082797    2.943489   -0.000000
      2          1           0        0.082497    1.960888   -0.000000
      3          1           0       -0.846598    3.262440   -0.000000
      4          8           0        0.082797   -2.788958    0.000000
      5          1           0        0.336823   -3.738156    0.000000
      6          1           0       -0.897480   -2.721420    0.000000
 ---------------------------------------------------------------------

 SCF Done:  E(RHF) =  -33.6524067264     A.U. after   11 cycles
 E2 =    -0.2283409705D+00 EUMP2 =    -0.33880747696887D+02
 CCSD(T)
 CCSD(T)= -0.33897731249D+02

 The electronic state is 1-A'.
 Alpha  occ. eigenvalues --   -1.36263  -1.34984  -0.71908  -0.70605  -0.56036
 Alpha  occ. eigenvalues --   -0.54732  -0.50843  -0.49562
 Alpha virt. eigenvalues --    0.19511   0.20876   0.29787   0.31123   0.79716
 Alpha virt. eigenvalues --    0.80972   0.82656   0.83983   0.85751   0.87143
 Alpha virt. eigenvalues --    1.16665   1.17945   1.21115   1.22449   2.56640

 Mulliken charges:
               1
     1  O   -0.743585
     2  H    0.376158
     3  H    0.367423
     4  O   -0.743711
     5  H    0.374430
     6  H    0.369285
 Sum of Mulliken charges =  -0.00000

 Dipole moment (field-independent basis, Debye):
    X=             -3.8086    Y=             -3.6242    Z=              0.0000  Tot=              5.2574
 Quadrupole moment (field-independent basis, Debye-Ang):
   XX=            -10.6364   YY=             -7.4264   ZZ=            -14.9895
   XY=             -3.7170   XZ=              0.0000   YZ=             -0.0000

 3478\MP4DQ=-33.8920908\MP4SDQ=-33.894117\CCSD=-33.8951711\CCSD(T)=-33.
 Normal termination of Gaussian 16 at Sun Dec 10 06:56:19 2023.
