 Gaussian 16, Revision A.03,
 Gaussian 16:  ES64L-G16RevA.03 25-Dec-2016

 ------------------
 #p CCSD(T)/CEP-31G
 ------------------

 -----------
 H2O_H2O_242
 -----------
 Symbolic Z-matrix:
 Charge =  0 Multiplicity = 1

                         Standard orientation:
 ---------------------------------------------------------------------
 Center     Atomic      Atomic             Coordinates (Angstroms)
 Number     Number       Type             X           Y           Z
 ---------------------------------------------------------------------
      1          8           0        0.037642    1.201630    0.000000
      2          1           0        0.033407    0.219038    0.000000
      3          1           0       -0.890468    1.524300    0.000000
      4          8           0        0.037642   -1.022830    0.000000
      5          1           0        0.917029   -1.461219    0.000000
      6          1           0       -0.662245   -1.712514    0.000000
 ---------------------------------------------------------------------

 SCF Done:  E(RHF) =  -33.6300983500     A.U. after   11 cycles
 E2 =    -0.2280710887D+00 EUMP2 =    -0.33858169438730D+02
 CCSD(T)
 CCSD(T)= -0.33873047941D+02

 The electronic state is 1-A'.
 Alpha  occ. eigenvalues --   -1.43605  -1.27593  -0.78437  -0.75508  -0.57569
 Alpha  occ. eigenvalues --   -0.56216  -0.45358  -0.41793
 Alpha virt. eigenvalues --    0.16675   0.25768   0.29610   0.60348   0.73458
 Alpha virt. eigenvalues --    0.73555   0.86671   0.91044   0.92915   1.02582
 Alpha virt. eigenvalues --    1.14408   1.17525   1.27704   1.35719   2.84945

 Mulliken charges:
               1
     1  O   -0.761450
     2  H    0.364825
     3  H    0.319669
     4  O   -0.816459
     5  H    0.441961
     6  H    0.451455
 Sum of Mulliken charges =  -0.00000

 Dipole moment (field-independent basis, Debye):
    X=             -1.5761    Y=             -5.4520    Z=              0.0000  Tot=              5.6752
 Quadrupole moment (field-independent basis, Debye-Ang):
   XX=             -9.2838   YY=            -10.3461   ZZ=            -14.9717
   XY=             -3.5443   XZ=              0.0000   YZ=              0.0000

 498\MP4DQ=-33.8669656\MP4SDQ=-33.8692248\CCSD=-33.8698885\CCSD(T)=-33.
 Normal termination of Gaussian 16 at Sun Dec 10 06:22:49 2023.
