 Gaussian 16, Revision A.03,
 Gaussian 16:  ES64L-G16RevA.03 25-Dec-2016

 ------------------
 #p CCSD(T)/CEP-31G
 ------------------

 ------------
 H2O_H2O_1566
 ------------
 Symbolic Z-matrix:
 Charge =  0 Multiplicity = 1

                         Standard orientation:
 ---------------------------------------------------------------------
 Center     Atomic      Atomic             Coordinates (Angstroms)
 Number     Number       Type             X           Y           Z
 ---------------------------------------------------------------------
      1          8           0        0.041208    1.730711    0.000000
      2          1           0        0.038528    0.748113    0.000000
      3          1           0       -0.887412    2.051912    0.000000
      4          8           0        0.041208   -1.550848   -0.000000
      5          1           0        0.890823   -2.044469   -0.000000
      6          1           0       -0.701270   -2.194458   -0.000000
 ---------------------------------------------------------------------

 SCF Done:  E(RHF) =  -33.6611032013     A.U. after   11 cycles
 E2 =    -0.2287990533D+00 EUMP2 =    -0.33889902254578D+02
 CCSD(T)
 CCSD(T)= -0.33906679323D+02

 The electronic state is 1-A'.
 Alpha  occ. eigenvalues --   -1.37856  -1.32401  -0.73494  -0.68234  -0.58338
 Alpha  occ. eigenvalues --   -0.52556  -0.52206  -0.47074
 Alpha virt. eigenvalues --    0.17980   0.25053   0.28677   0.38531   0.77319
 Alpha virt. eigenvalues --    0.80809   0.84137   0.86231   0.90608   0.96386
 Alpha virt. eigenvalues --    1.15299   1.19617   1.21202   1.33896   2.49806

 Mulliken charges:
               1
     1  O   -0.779942
     2  H    0.420682
     3  H    0.357485
     4  O   -0.778744
     5  H    0.392125
     6  H    0.388394
 Sum of Mulliken charges =   0.00000

 Dipole moment (field-independent basis, Debye):
    X=             -1.8412    Y=             -4.5216    Z=             -0.0000  Tot=              4.8821
 Quadrupole moment (field-independent basis, Debye-Ang):
   XX=             -9.3865   YY=             -7.9798   ZZ=            -15.0083
   XY=             -4.9614   XZ=             -0.0000   YZ=              0.0000

 1948\MP4DQ=-33.9009199\MP4SDQ=-33.9030056\CCSD=-33.9040112\CCSD(T)=-33
 Normal termination of Gaussian 16 at Sun Dec 10 06:48:24 2023.
