 Gaussian 16, Revision A.03,
 Gaussian 16:  ES64L-G16RevA.03 25-Dec-2016

 ------------------
 #p CCSD(T)/CEP-31G
 ------------------

 ------------
 H2O_H2O_3321
 ------------
 Symbolic Z-matrix:
 Charge =  0 Multiplicity = 1

                         Standard orientation:
 ---------------------------------------------------------------------
 Center     Atomic      Atomic             Coordinates (Angstroms)
 Number     Number       Type             X           Y           Z
 ---------------------------------------------------------------------
      1          8           0       -0.023202    2.423600    0.000000
      2          1           0       -0.020671    1.441002    0.000000
      3          1           0        0.905467    2.744660    0.000000
      4          8           0       -0.023202   -2.253209    0.000000
      5          1           0       -0.986426   -2.447387    0.000000
      6          1           0        0.472863   -3.101399    0.000000
 ---------------------------------------------------------------------

 SCF Done:  E(RHF) =  -33.6548193451     A.U. after   11 cycles
 E2 =    -0.2282826629D+00 EUMP2 =    -0.33883102007974D+02
 CCSD(T)
 CCSD(T)= -0.33900020177D+02

 The electronic state is 1-A'.
 Alpha  occ. eigenvalues --   -1.36566  -1.34306  -0.72212  -0.69944  -0.56474
 Alpha  occ. eigenvalues --   -0.54135  -0.51181  -0.48927
 Alpha virt. eigenvalues --    0.19024   0.21899   0.29580   0.32054   0.79382
 Alpha virt. eigenvalues --    0.81563   0.82249   0.84458   0.85492   0.87701
 Alpha virt. eigenvalues --    1.16447   1.18906   1.20835   1.24452   2.56404

 Mulliken charges:
               1
     1  O   -0.752981
     2  H    0.384087
     3  H    0.368509
     4  O   -0.751572
     5  H    0.376065
     6  H    0.375891
 Sum of Mulliken charges =  -0.00000

 Dipole moment (field-independent basis, Debye):
    X=              1.0590    Y=             -4.0423    Z=              0.0000  Tot=              4.1787
 Quadrupole moment (field-independent basis, Debye-Ang):
   XX=             -9.5932   YY=             -6.8133   ZZ=            -14.9946
   XY=              7.9465   XZ=              0.0000   YZ=              0.0000

 34\MP4DQ=-33.8943866\MP4SDQ=-33.8964155\CCSD=-33.8974596\CCSD(T)=-33.9
 Normal termination of Gaussian 16 at Sun Dec 10 06:32:50 2023.
