 Gaussian 16, Revision A.03,
 Gaussian 16:  ES64L-G16RevA.03 25-Dec-2016

 ------------------
 #p CCSD(T)/CEP-31G
 ------------------

 ------------
 H2O_H2O_4461
 ------------
 Symbolic Z-matrix:
 Charge =  0 Multiplicity = 1

                         Standard orientation:
 ---------------------------------------------------------------------
 Center     Atomic      Atomic             Coordinates (Angstroms)
 Number     Number       Type             X           Y           Z
 ---------------------------------------------------------------------
      1          8           0        0.059619    2.886149   -0.000000
      2          1           0        0.058609    1.903548   -0.000000
      3          1           0       -0.869545    3.205771    0.000000
      4          8           0        0.059619   -2.708675   -0.000000
      5          1           0        0.706733   -3.448100   -0.000000
      6          1           0       -0.849706   -3.081011    0.000000
 ---------------------------------------------------------------------

 SCF Done:  E(RHF) =  -33.6531355806     A.U. after   11 cycles
 E2 =    -0.2283093162D+00 EUMP2 =    -0.33881444896763D+02
 CCSD(T)
 CCSD(T)= -0.33898406905D+02

 The electronic state is 1-A'.
 Alpha  occ. eigenvalues --   -1.36272  -1.34688  -0.71913  -0.70314  -0.56085
 Alpha  occ. eigenvalues --   -0.54463  -0.50863  -0.49280
 Alpha virt. eigenvalues --    0.19555   0.21212   0.29819   0.31489   0.79692
 Alpha virt. eigenvalues --    0.81240   0.82556   0.84238   0.85729   0.87371
 Alpha virt. eigenvalues --    1.16688   1.18272   1.21130   1.22793   2.56661

 Mulliken charges:
               1
     1  O   -0.746393
     2  H    0.378777
     3  H    0.367603
     4  O   -0.746009
     5  H    0.374678
     6  H    0.371344
 Sum of Mulliken charges =   0.00000

 Dipole moment (field-independent basis, Debye):
    X=             -2.7388    Y=             -4.1648    Z=              0.0000  Tot=              4.9846
 Quadrupole moment (field-independent basis, Debye-Ang):
   XX=             -9.6721   YY=             -5.4011   ZZ=            -14.9913
   XY=             -6.1028   XZ=             -0.0000   YZ=              0.0000

 0257\MP4DQ=-33.8927722\MP4SDQ=-33.8947965\CCSD=-33.895849\CCSD(T)=-33.
 Normal termination of Gaussian 16 at Sun Dec 10 06:53:18 2023.
