 Gaussian 16, Revision A.03,
 Gaussian 16:  ES64L-G16RevA.03 25-Dec-2016

 ------------------
 #p CCSD(T)/CEP-31G
 ------------------

 ------------
 H2O_H2O_1904
 ------------
 Symbolic Z-matrix:
 Charge =  0 Multiplicity = 1

                         Standard orientation:
 ---------------------------------------------------------------------
 Center     Atomic      Atomic             Coordinates (Angstroms)
 Number     Number       Type             X           Y           Z
 ---------------------------------------------------------------------
      1          8           0        0.082812   -1.856533    0.000000
      2          1           0        0.082328   -0.873932    0.000000
      3          1           0       -0.846524   -2.175657    0.000000
      4          8           0        0.082812    1.702033    0.000000
      5          1           0        0.336661    2.651279    0.000000
      6          1           0       -0.897453    1.634312    0.000000
 ---------------------------------------------------------------------

 SCF Done:  E(RHF) =  -33.6552434722     A.U. after   11 cycles
 E2 =    -0.2287556518D+00 EUMP2 =    -0.33883999123988D+02
 CCSD(T)
 CCSD(T)= -0.33900991248D+02

 The electronic state is 1-A'.
 Alpha  occ. eigenvalues --   -1.37557  -1.33812  -0.73302  -0.69377  -0.57556
 Alpha  occ. eigenvalues --   -0.53545  -0.52155  -0.48399
 Alpha virt. eigenvalues --    0.17238   0.23791   0.28677   0.34826   0.78040
 Alpha virt. eigenvalues --    0.82372   0.82552   0.84974   0.88704   0.94786
 Alpha virt. eigenvalues --    1.15284   1.18901   1.20752   1.36756   2.52654

 Mulliken charges:
               1
     1  O   -0.757482
     2  H    0.397929
     3  H    0.357079
     4  O   -0.757449
     5  H    0.390168
     6  H    0.369755
 Sum of Mulliken charges =  -0.00000

 Dipole moment (field-independent basis, Debye):
    X=             -3.7437    Y=              3.8307    Z=              0.0000  Tot=              5.3563
 Quadrupole moment (field-independent basis, Debye-Ang):
   XX=            -10.6643   YY=             -8.5357   ZZ=            -14.9937
   XY=              3.1848   XZ=              0.0000   YZ=              0.0000

 992\MP4DQ=-33.895231\MP4SDQ=-33.8973347\CCSD=-33.8983587\CCSD(T)=-33.9
 Normal termination of Gaussian 16 at Sun Dec 10 06:54:50 2023.
