 Gaussian 16, Revision A.03,
 Gaussian 16:  ES64L-G16RevA.03 25-Dec-2016

 ------------------
 #p CCSD(T)/CEP-31G
 ------------------

 ------------
 H2O_H2O_4181
 ------------
 Symbolic Z-matrix:
 Charge =  0 Multiplicity = 1

                         Standard orientation:
 ---------------------------------------------------------------------
 Center     Atomic      Atomic             Coordinates (Angstroms)
 Number     Number       Type             X           Y           Z
 ---------------------------------------------------------------------
      1          8           0        0.076750    2.768716    0.000000
      2          1           0        0.076239    1.786115    0.000000
      3          1           0       -0.852577    3.087867   -0.000000
      4          8           0        0.076750   -2.605493    0.000000
      5          1           0        0.452303   -3.513494    0.000000
      6          1           0       -0.903970   -2.666275   -0.000000
 ---------------------------------------------------------------------

 SCF Done:  E(RHF) =  -33.6528186673     A.U. after   11 cycles
 E2 =    -0.2283264447D+00 EUMP2 =    -0.33881145112030D+02
 CCSD(T)
 CCSD(T)= -0.33898116645D+02

 The electronic state is 1-A'.
 Alpha  occ. eigenvalues --   -1.36350  -1.34785  -0.71996  -0.70404  -0.56147
 Alpha  occ. eigenvalues --   -0.54545  -0.50935  -0.49370
 Alpha virt. eigenvalues --    0.19408   0.21134   0.29716   0.31381   0.79626
 Alpha virt. eigenvalues --    0.81155   0.82500   0.84166   0.85631   0.87346
 Alpha virt. eigenvalues --    1.16594   1.18172   1.21027   1.22762   2.56551

 Mulliken charges:
               1
     1  O   -0.745196
     2  H    0.378397
     3  H    0.366771
     4  O   -0.745193
     5  H    0.375331
     6  H    0.369889
 Sum of Mulliken charges =   0.00000

 Dipole moment (field-independent basis, Debye):
    X=             -3.5249    Y=             -3.8395    Z=             -0.0000  Tot=              5.2122
 Quadrupole moment (field-independent basis, Debye-Ang):
   XX=            -10.3181   YY=             -6.8405   ZZ=            -14.9904
   XY=             -4.2991   XZ=              0.0000   YZ=             -0.0000

 7338\MP4DQ=-33.8924786\MP4SDQ=-33.8945043\CCSD=-33.8955569\CCSD(T)=-33
 Normal termination of Gaussian 16 at Sun Dec 10 06:48:15 2023.
