 Gaussian 16, Revision A.03,
 Gaussian 16:  ES64L-G16RevA.03 25-Dec-2016

 ------------------
 #p CCSD(T)/CEP-31G
 ------------------

 ------------
 H2O_H2O_1007
 ------------
 Symbolic Z-matrix:
 Charge =  0 Multiplicity = 1

                         Standard orientation:
 ---------------------------------------------------------------------
 Center     Atomic      Atomic             Coordinates (Angstroms)
 Number     Number       Type             X           Y           Z
 ---------------------------------------------------------------------
      1          8           0        0.073572    1.504270   -0.000000
      2          1           0        0.072413    0.521669   -0.000000
      3          1           0       -0.855544    1.824033   -0.000000
      4          8           0        0.073572   -1.337393    0.000000
      5          1           0        0.507126   -2.219174    0.000000
      6          1           0       -0.901155   -1.461543    0.000000
 ---------------------------------------------------------------------

 SCF Done:  E(RHF) =  -33.6584901187     A.U. after   11 cycles
 E2 =    -0.2290394200D+00 EUMP2 =    -0.33887529538654D+02
 CCSD(T)
 CCSD(T)= -0.33904187007D+02

 The electronic state is 1-A'.
 Alpha  occ. eigenvalues --   -1.39079  -1.31851  -0.74958  -0.68387  -0.59132
 Alpha  occ. eigenvalues --   -0.53700  -0.51342  -0.46414
 Alpha virt. eigenvalues --    0.17188   0.26022   0.27665   0.44392   0.75407
 Alpha virt. eigenvalues --    0.78199   0.85223   0.86079   0.93606   1.09183
 Alpha virt. eigenvalues --    1.16996   1.17866   1.22181   1.36686   2.52838

 Mulliken charges:
               1
     1  O   -0.767933
     2  H    0.420124
     3  H    0.342980
     4  O   -0.802864
     5  H    0.425714
     6  H    0.381980
 Sum of Mulliken charges =   0.00000

 Dipole moment (field-independent basis, Debye):
    X=             -3.2187    Y=             -4.4303    Z=              0.0000  Tot=              5.4761
 Quadrupole moment (field-independent basis, Debye-Ang):
   XX=            -10.1848   YY=             -8.8687   ZZ=            -15.0066
   XY=             -3.4890   XZ=              0.0000   YZ=             -0.0000

 994\MP4DQ=-33.8982784\MP4SDQ=-33.9004474\CCSD=-33.9014041\CCSD(T)=-33.
 Normal termination of Gaussian 16 at Sun Dec 10 06:37:27 2023.
