 Gaussian 16, Revision A.03,
 Gaussian 16:  ES64L-G16RevA.03 25-Dec-2016

 ------------------
 #p CCSD(T)/CEP-31G
 ------------------

 ------------
 H2O_H2O_1425
 ------------
 Symbolic Z-matrix:
 Charge =  0 Multiplicity = 1

                         Standard orientation:
 ---------------------------------------------------------------------
 Center     Atomic      Atomic             Coordinates (Angstroms)
 Number     Number       Type             X           Y           Z
 ---------------------------------------------------------------------
      1          8           0        0.092949   -1.655272    0.000000
      2          1           0        0.092949   -0.672670    0.000000
      3          1           0       -0.836544   -1.973938    0.000000
      4          8           0        0.092949    1.522485    0.000000
      5          1           0        0.092950    2.505087    0.000000
      6          1           0       -0.836544    1.203818    0.000000
 ---------------------------------------------------------------------

 SCF Done:  E(RHF) =  -33.6524496084     A.U. after   11 cycles
 E2 =    -0.2292061298D+00 EUMP2 =    -0.33881655738181D+02
 CCSD(T)
 CCSD(T)= -0.33898733686D+02

 The electronic state is 1-A'.
 Alpha  occ. eigenvalues --   -1.38291  -1.34083  -0.74396  -0.69458  -0.58156
 Alpha  occ. eigenvalues --   -0.53701  -0.52811  -0.48605
 Alpha virt. eigenvalues --    0.16524   0.24462   0.28109   0.37846   0.76619
 Alpha virt. eigenvalues --    0.81213   0.83369   0.84554   0.88916   1.07356
 Alpha virt. eigenvalues --    1.15928   1.17018   1.22115   1.39983   2.51184

 Mulliken charges:
               1
     1  O   -0.748344
     2  H    0.388858
     3  H    0.352937
     4  O   -0.755548
     5  H    0.399605
     6  H    0.362492
 Sum of Mulliken charges =  -0.00000

 Dipole moment (field-independent basis, Debye):
    X=             -4.1717    Y=              3.4010    Z=              0.0000  Tot=              5.3824
 Quadrupole moment (field-independent basis, Debye-Ang):
   XX=            -11.3394   YY=             -9.5768   ZZ=            -14.9869
   XY=              2.2568   XZ=              0.0000   YZ=              0.0000

 1487\MP4DQ=-33.8928462\MP4SDQ=-33.8950258\CCSD=-33.8960229\CCSD(T)=-33
 Normal termination of Gaussian 16 at Sun Dec 10 06:45:35 2023.
