 Gaussian 16, Revision A.03,
 Gaussian 16:  ES64L-G16RevA.03 25-Dec-2016

 ------------------
 #p CCSD(T)/CEP-31G
 ------------------

 ------------
 H2O_H2O_1587
 ------------
 Symbolic Z-matrix:
 Charge =  0 Multiplicity = 1

                         Standard orientation:
 ---------------------------------------------------------------------
 Center     Atomic      Atomic             Coordinates (Angstroms)
 Number     Number       Type             X           Y           Z
 ---------------------------------------------------------------------
      1          8           0        0.056037    1.740130    0.000000
      2          1           0        0.054136    0.757530    0.000000
      3          1           0       -0.872838    2.060593    0.000000
      4          8           0        0.056037   -1.561280   -0.000000
      5          1           0        0.749496   -2.257427   -0.000000
      6          1           0       -0.827379   -1.991492   -0.000000
 ---------------------------------------------------------------------

 SCF Done:  E(RHF) =  -33.6601365028     A.U. after   11 cycles
 E2 =    -0.2288282794D+00 EUMP2 =    -0.33888964782208D+02
 CCSD(T)
 CCSD(T)= -0.33905775761D+02

 The electronic state is 1-A'.
 Alpha  occ. eigenvalues --   -1.37854  -1.32539  -0.73507  -0.68320  -0.58259
 Alpha  occ. eigenvalues --   -0.52536  -0.52318  -0.47190
 Alpha virt. eigenvalues --    0.17893   0.24892   0.28627   0.38190   0.77369
 Alpha virt. eigenvalues --    0.81081   0.84006   0.85814   0.90950   0.96284
 Alpha virt. eigenvalues --    1.15221   1.19802   1.20850   1.34185   2.49858

 Mulliken charges:
               1
     1  O   -0.776111
     2  H    0.419373
     3  H    0.355052
     4  O   -0.775993
     5  H    0.395514
     6  H    0.382166
 Sum of Mulliken charges =  -0.00000

 Dipole moment (field-independent basis, Debye):
    X=             -2.5018    Y=             -4.4953    Z=             -0.0000  Tot=              5.1446
 Quadrupole moment (field-independent basis, Debye-Ang):
   XX=             -9.5724   YY=             -7.9778   ZZ=            -15.0060
   XY=             -4.4627   XZ=             -0.0000   YZ=              0.0000

 865\MP4DQ=-33.9000103\MP4SDQ=-33.9021011\CCSD=-33.9031095\CCSD(T)=-33.
 Normal termination of Gaussian 16 at Sun Dec 10 06:48:49 2023.
