 Gaussian 16, Revision A.03,
 Gaussian 16:  ES64L-G16RevA.03 25-Dec-2016

 ------------------
 #p CCSD(T)/CEP-31G
 ------------------

 ------------
 H2O_H2O_3769
 ------------
 Symbolic Z-matrix:
 Charge =  0 Multiplicity = 1

                         Standard orientation:
 ---------------------------------------------------------------------
 Center     Atomic      Atomic             Coordinates (Angstroms)
 Number     Number       Type             X           Y           Z
 ---------------------------------------------------------------------
      1          8           0        0.030168    2.605934    0.000000
      2          1           0        0.028052    1.623335    0.000000
      3          1           0       -0.898637    2.926601   -0.000000
      4          8           0        0.030168   -2.430312    0.000000
      5          1           0        0.959941   -2.748161    0.000000
      6          1           0       -0.572037   -3.206750   -0.000000
 ---------------------------------------------------------------------

 SCF Done:  E(RHF) =  -33.6541654052     A.U. after   11 cycles
 E2 =    -0.2282776321D+00 EUMP2 =    -0.33882443037284D+02
 CCSD(T)
 CCSD(T)= -0.33899376758D+02

 The electronic state is 1-A'.
 Alpha  occ. eigenvalues --   -1.36421  -1.34443  -0.72062  -0.70077  -0.56292
 Alpha  occ. eigenvalues --   -0.54253  -0.51027  -0.49053
 Alpha virt. eigenvalues --    0.19361   0.21582   0.29717   0.31831   0.79531
 Alpha virt. eigenvalues --    0.81447   0.82279   0.84437   0.85545   0.87563
 Alpha virt. eigenvalues --    1.16581   1.18614   1.20993   1.23384   2.56536

 Mulliken charges:
               1
     1  O   -0.750380
     2  H    0.381893
     3  H    0.368359
     4  O   -0.749400
     5  H    0.375291
     6  H    0.374238
 Sum of Mulliken charges =   0.00000

 Dipole moment (field-independent basis, Debye):
    X=             -1.3809    Y=             -4.1426    Z=             -0.0000  Tot=              4.3667
 Quadrupole moment (field-independent basis, Debye-Ang):
   XX=             -9.4728   YY=             -6.1111   ZZ=            -14.9934
   XY=             -7.9536   XZ=              0.0000   YZ=             -0.0000

 955\MP4DQ=-33.8937463\MP4SDQ=-33.8957707\CCSD=-33.8968193\CCSD(T)=-33.
 Normal termination of Gaussian 16 at Sun Dec 10 06:40:49 2023.
