 Gaussian 16, Revision A.03,
 Gaussian 16:  ES64L-G16RevA.03 25-Dec-2016

 ------------------
 #p CCSD(T)/CEP-31G
 ------------------

 ------------
 H2O_H2O_2639
 ------------
 Symbolic Z-matrix:
 Charge =  0 Multiplicity = 1

                         Standard orientation:
 ---------------------------------------------------------------------
 Center     Atomic      Atomic             Coordinates (Angstroms)
 Number     Number       Type             X           Y           Z
 ---------------------------------------------------------------------
      1          8           0        0.048597    2.159777   -0.000000
      2          1           0        0.046777    1.177177   -0.000000
      3          1           0       -0.880304    2.480164   -0.000000
      4          8           0        0.048597   -1.979404    0.000000
      5          1           0        0.827039   -2.579016    0.000000
      6          1           0       -0.771062   -2.521312    0.000000
 ---------------------------------------------------------------------

 SCF Done:  E(RHF) =  -33.6561601017     A.U. after   11 cycles
 E2 =    -0.2283904675D+00 EUMP2 =    -0.33884550569205D+02
 CCSD(T)
 CCSD(T)= -0.33901446630D+02

 The electronic state is 1-A'.
 Alpha  occ. eigenvalues --   -1.36915  -1.33730  -0.72563  -0.69349  -0.56919
 Alpha  occ. eigenvalues --   -0.53565  -0.51548  -0.48361
 Alpha virt. eigenvalues --    0.18550   0.22790   0.29341   0.32968   0.79003
 Alpha virt. eigenvalues --    0.82133   0.83870   0.84447   0.85488   0.88276
 Alpha virt. eigenvalues --    1.16155   1.19680   1.20587   1.27903   2.54886

 Mulliken charges:
               1
     1  O   -0.758783
     2  H    0.393423
     3  H    0.363873
     4  O   -0.754833
     5  H    0.380619
     6  H    0.375701
 Sum of Mulliken charges =  -0.00000

 Dipole moment (field-independent basis, Debye):
    X=             -2.2081    Y=             -4.3495    Z=              0.0000  Tot=              4.8778
 Quadrupole moment (field-independent basis, Debye-Ang):
   XX=             -9.4577   YY=             -6.8046   ZZ=            -14.9973
   XY=             -5.6050   XZ=              0.0000   YZ=             -0.0000

 339\MP4DQ=-33.8957883\MP4SDQ=-33.8978376\CCSD=-33.8988706\CCSD(T)=-33.
 Normal termination of Gaussian 16 at Sun Dec 10 06:20:31 2023.
