 Gaussian 16, Revision A.03,
 Gaussian 16:  ES64L-G16RevA.03 25-Dec-2016

 ------------------
 #p CCSD(T)/CEP-31G
 ------------------

 ------------
 H2O_H2O_1340
 ------------
 Symbolic Z-matrix:
 Charge =  0 Multiplicity = 1

                         Standard orientation:
 ---------------------------------------------------------------------
 Center     Atomic      Atomic             Coordinates (Angstroms)
 Number     Number       Type             X           Y           Z
 ---------------------------------------------------------------------
      1          8           0        0.044934    1.641215    0.000000
      2          1           0        0.042302    0.658617    0.000000
      3          1           0       -0.883702    1.962369    0.000000
      4          8           0        0.044934   -1.460890   -0.000000
      5          1           0        0.860472   -2.008981   -0.000000
      6          1           0       -0.738019   -2.054599   -0.000000
 ---------------------------------------------------------------------

 SCF Done:  E(RHF) =  -33.6622230109     A.U. after   11 cycles
 E2 =    -0.2289440806D+00 EUMP2 =    -0.33891167091483D+02
 CCSD(T)
 CCSD(T)= -0.33907849088D+02

 The electronic state is 1-A'.
 Alpha  occ. eigenvalues --   -1.38216  -1.31952  -0.73836  -0.68047  -0.58782
 Alpha  occ. eigenvalues --   -0.52936  -0.51686  -0.46619
 Alpha virt. eigenvalues --    0.17846   0.25631   0.28423   0.40932   0.76643
 Alpha virt. eigenvalues --    0.79461   0.84981   0.86002   0.92402   0.98769
 Alpha virt. eigenvalues --    1.15051   1.19471   1.21586   1.34140   2.49794

 Mulliken charges:
               1
     1  O   -0.783593
     2  H    0.428697
     3  H    0.353687
     4  O   -0.789392
     5  H    0.398609
     6  H    0.391992
 Sum of Mulliken charges =   0.00000

 Dipole moment (field-independent basis, Debye):
    X=             -1.9938    Y=             -4.5997    Z=             -0.0000  Tot=              5.0133
 Quadrupole moment (field-independent basis, Debye-Ang):
   XX=             -9.3952   YY=             -8.2741   ZZ=            -15.0121
   XY=             -4.6233   XZ=             -0.0000   YZ=              0.0000

 5\MP4DQ=-33.9020577\MP4SDQ=-33.9041516\CCSD=-33.9051376\CCSD(T)=-33.90
 Normal termination of Gaussian 16 at Sun Dec 10 06:43:54 2023.
