 Gaussian 16, Revision A.03,
 Gaussian 16:  ES64L-G16RevA.03 25-Dec-2016

 ------------------
 #p CCSD(T)/CEP-31G
 ------------------

 ------------
 H2O_H2O_1363
 ------------
 Symbolic Z-matrix:
 Charge =  0 Multiplicity = 1

                         Standard orientation:
 ---------------------------------------------------------------------
 Center     Atomic      Atomic             Coordinates (Angstroms)
 Number     Number       Type             X           Y           Z
 ---------------------------------------------------------------------
      1          8           0        0.052361    1.650910    0.000000
      2          1           0        0.050151    0.668311    0.000000
      3          1           0       -0.876413    1.971666   -0.000000
      4          8           0        0.052361   -1.471092    0.000000
      5          1           0        0.789662   -2.120626    0.000000
      6          1           0       -0.801180   -1.957892   -0.000000
 ---------------------------------------------------------------------

 SCF Done:  E(RHF) =  -33.6616262133     A.U. after   11 cycles
 E2 =    -0.2289551182D+00 EUMP2 =    -0.33890581331554D+02
 CCSD(T)
 CCSD(T)= -0.33907292181D+02

 The electronic state is 1-A'.
 Alpha  occ. eigenvalues --   -1.38190  -1.32060  -0.73822  -0.68093  -0.58711
 Alpha  occ. eigenvalues --   -0.52899  -0.51788  -0.46716
 Alpha virt. eigenvalues --    0.17808   0.25508   0.28412   0.40576   0.76712
 Alpha virt. eigenvalues --    0.79697   0.84852   0.85811   0.92438   0.98828
 Alpha virt. eigenvalues --    1.15005   1.19601   1.21315   1.34239   2.49725

 Mulliken charges:
               1
     1  O   -0.781294
     2  H    0.427658
     3  H    0.352517
     4  O   -0.787219
     5  H    0.400750
     6  H    0.387588
 Sum of Mulliken charges =   0.00000

 Dipole moment (field-independent basis, Debye):
    X=             -2.3212    Y=             -4.5819    Z=             -0.0000  Tot=              5.1363
 Quadrupole moment (field-independent basis, Debye-Ang):
   XX=             -9.4903   YY=             -8.2494   ZZ=            -15.0106
   XY=             -4.4236   XZ=              0.0000   YZ=             -0.0000

 7903\MP4DQ=-33.9014986\MP4SDQ=-33.9035955\CCSD=-33.904585\CCSD(T)=-33.
 Normal termination of Gaussian 16 at Sun Dec 10 06:44:21 2023.
