 Gaussian 16, Revision A.03,
 Gaussian 16:  ES64L-G16RevA.03 25-Dec-2016

 ------------------
 #p CCSD(T)/CEP-31G
 ------------------

 -----------
 H2O_H2O_570
 -----------
 Symbolic Z-matrix:
 Charge =  0 Multiplicity = 1

                         Standard orientation:
 ---------------------------------------------------------------------
 Center     Atomic      Atomic             Coordinates (Angstroms)
 Number     Number       Type             X           Y           Z
 ---------------------------------------------------------------------
      1          8           0        0.026837    1.328177   -0.000000
      2          1           0        0.022306    0.345586   -0.000000
      3          1           0       -0.901177    1.651127   -0.000000
      4          8           0        0.026837   -1.155063    0.000000
      5          1           0        0.974774   -1.413753    0.000000
      6          1           0       -0.525296   -1.967870    0.000000
 ---------------------------------------------------------------------

 SCF Done:  E(RHF) =  -33.6554825667     A.U. after   11 cycles
 E2 =    -0.2285231471D+00 EUMP2 =    -0.33884005713812D+02
 CCSD(T)
 CCSD(T)= -0.33899800771D+02

 The electronic state is 1-A'.
 Alpha  occ. eigenvalues --   -1.40794  -1.29588  -0.76564  -0.70242  -0.58836
 Alpha  occ. eigenvalues --   -0.55343  -0.48497  -0.44119
 Alpha virt. eigenvalues --    0.17283   0.26816   0.28159   0.53455   0.74106
 Alpha virt. eigenvalues --    0.75225   0.86549   0.88905   0.94774   1.01835
 Alpha virt. eigenvalues --    1.15806   1.20031   1.25329   1.37478   2.67421

 Mulliken charges:
               1
     1  O   -0.774808
     2  H    0.408653
     3  H    0.342336
     4  O   -0.837235
     5  H    0.416711
     6  H    0.444344
 Sum of Mulliken charges =   0.00000

 Dipole moment (field-independent basis, Debye):
    X=             -1.1811    Y=             -4.8941    Z=              0.0000  Tot=              5.0346
 Quadrupole moment (field-independent basis, Debye-Ang):
   XX=             -9.4443   YY=             -9.5423   ZZ=            -15.0113
   XY=             -4.1384   XZ=              0.0000   YZ=             -0.0000

 81\MP4DQ=-33.893848\MP4SDQ=-33.8960247\CCSD=-33.8968513\CCSD(T)=-33.89
 Normal termination of Gaussian 16 at Sun Dec 10 06:29:15 2023.
