 Gaussian 16, Revision A.03,
 Gaussian 16:  ES64L-G16RevA.03 25-Dec-2016

 ------------------
 #p CCSD(T)/CEP-31G
 ------------------

 ------------
 H2O_H2O_3482
 ------------
 Symbolic Z-matrix:
 Charge =  0 Multiplicity = 1

                         Standard orientation:
 ---------------------------------------------------------------------
 Center     Atomic      Atomic             Coordinates (Angstroms)
 Number     Number       Type             X           Y           Z
 ---------------------------------------------------------------------
      1          8           0        0.073532    2.491526   -0.000000
      2          1           0        0.072848    1.508925   -0.000000
      3          1           0       -0.855739    2.810840   -0.000000
      4          8           0        0.073532   -2.324578    0.000000
      5          1           0        0.507512   -3.206149    0.000000
      6          1           0       -0.901135   -2.449200    0.000000
 ---------------------------------------------------------------------

 SCF Done:  E(RHF) =  -33.6535061132     A.U. after   11 cycles
 E2 =    -0.2283294676D+00 EUMP2 =    -0.33881835580839D+02
 CCSD(T)
 CCSD(T)= -0.33898788173D+02

 The electronic state is 1-A'.
 Alpha  occ. eigenvalues --   -1.36549  -1.34505  -0.72201  -0.70116  -0.56386
 Alpha  occ. eigenvalues --   -0.54279  -0.51143  -0.49097
 Alpha virt. eigenvalues --    0.19024   0.21607   0.29520   0.31776   0.79426
 Alpha virt. eigenvalues --    0.81413   0.82271   0.84449   0.85390   0.87701
 Alpha virt. eigenvalues --    1.16408   1.18590   1.20805   1.23825   2.56412

 Mulliken charges:
               1
     1  O   -0.747876
     2  H    0.382318
     3  H    0.365323
     4  O   -0.747570
     5  H    0.377299
     6  H    0.370506
 Sum of Mulliken charges =  -0.00000

 Dipole moment (field-independent basis, Debye):
    X=             -3.3670    Y=             -3.9572    Z=              0.0000  Tot=              5.1958
 Quadrupole moment (field-independent basis, Debye-Ang):
   XX=            -10.1697   YY=             -6.9661   ZZ=            -14.9918
   XY=             -4.3770   XZ=              0.0000   YZ=             -0.0000

 18\MP4DQ=-33.893149\MP4SDQ=-33.8951781\CCSD=-33.896226\CCSD(T)=-33.898
 Normal termination of Gaussian 16 at Sun Dec 10 06:35:41 2023.
