 Gaussian 16, Revision A.03,
 Gaussian 16:  ES64L-G16RevA.03 25-Dec-2016

 ------------------
 #p CCSD(T)/CEP-31G
 ------------------

 -----------
 H2O_H2O_669
 -----------
 Symbolic Z-matrix:
 Charge =  0 Multiplicity = 1

                         Standard orientation:
 ---------------------------------------------------------------------
 Center     Atomic      Atomic             Coordinates (Angstroms)
 Number     Number       Type             X           Y           Z
 ---------------------------------------------------------------------
      1          8           0        0.030350    1.369357   -0.000000
      2          1           0        0.026193    0.386765   -0.000000
      3          1           0       -0.897787    1.691953   -0.000000
      4          8           0        0.030350   -1.193861    0.000000
      5          1           0        0.959460   -1.513641    0.000000
      6          1           0       -0.573466   -1.969047    0.000000
 ---------------------------------------------------------------------

 SCF Done:  E(RHF) =  -33.6591983205     A.U. after   11 cycles
 E2 =    -0.2287472067D+00 EUMP2 =    -0.33887945527234D+02
 CCSD(T)
 CCSD(T)= -0.33903906665D+02

 The electronic state is 1-A'.
 Alpha  occ. eigenvalues --   -1.40236  -1.29957  -0.75854  -0.69643  -0.59094
 Alpha  occ. eigenvalues --   -0.54886  -0.49068  -0.44529
 Alpha virt. eigenvalues --    0.17364   0.27154   0.27792   0.51534   0.74384
 Alpha virt. eigenvalues --    0.75434   0.86162   0.88363   0.95148   1.01426
 Alpha virt. eigenvalues --    1.15945   1.18946   1.24521   1.37405   2.62791

 Mulliken charges:
               1
     1  O   -0.780113
     2  H    0.421305
     3  H    0.343736
     4  O   -0.832706
     5  H    0.414336
     6  H    0.433441
 Sum of Mulliken charges =   0.00000

 Dipole moment (field-independent basis, Debye):
    X=             -1.3331    Y=             -4.8553    Z=              0.0000  Tot=              5.0350
 Quadrupole moment (field-independent basis, Debye-Ang):
   XX=             -9.3973   YY=             -9.3697   ZZ=            -15.0166
   XY=             -4.1982   XZ=              0.0000   YZ=             -0.0000

 299\MP4DQ=-33.8979843\MP4SDQ=-33.90014\CCSD=-33.9009944\CCSD(T)=-33.90
 Normal termination of Gaussian 16 at Sun Dec 10 06:31:06 2023.
