 Gaussian 16, Revision A.03,
 Gaussian 16:  ES64L-G16RevA.03 25-Dec-2016

 ------------------
 #p CCSD(T)/CEP-31G
 ------------------

 ------------
 H2O_H2O_1803
 ------------
 Symbolic Z-matrix:
 Charge =  0 Multiplicity = 1

                         Standard orientation:
 ---------------------------------------------------------------------
 Center     Atomic      Atomic             Coordinates (Angstroms)
 Number     Number       Type             X           Y           Z
 ---------------------------------------------------------------------
      1          8           0        0.085607   -1.813974    0.000000
      2          1           0        0.085249   -0.831373    0.000000
      3          1           0       -0.843769   -2.132980    0.000000
      4          8           0        0.085607    1.664392    0.000000
      5          1           0        0.276952    2.628183    0.000000
      6          1           0       -0.888148    1.532828    0.000000
 ---------------------------------------------------------------------

 SCF Done:  E(RHF) =  -33.6548637748     A.U. after   11 cycles
 E2 =    -0.2288324980D+00 EUMP2 =    -0.33883696272802D+02
 CCSD(T)
 CCSD(T)= -0.33900709153D+02

 The electronic state is 1-A'.
 Alpha  occ. eigenvalues --   -1.37682  -1.33871  -0.73467  -0.69418  -0.57666
 Alpha  occ. eigenvalues --   -0.53583  -0.52269  -0.48448
 Alpha virt. eigenvalues --    0.17046   0.23949   0.28552   0.35296   0.77804
 Alpha virt. eigenvalues --    0.82115   0.82661   0.84889   0.88730   0.97233
 Alpha virt. eigenvalues --    1.15218   1.18478   1.20960   1.37984   2.52386

 Mulliken charges:
               1
     1  O   -0.756384
     2  H    0.397299
     3  H    0.356251
     4  O   -0.757611
     5  H    0.391991
     6  H    0.368454
 Sum of Mulliken charges =   0.00000

 Dipole moment (field-independent basis, Debye):
    X=             -3.8658    Y=              3.7290    Z=              0.0000  Tot=              5.3712
 Quadrupole moment (field-independent basis, Debye-Ang):
   XX=            -10.8349   YY=             -8.7893   ZZ=            -14.9925
   XY=              2.9496   XZ=              0.0000   YZ=              0.0000

 2004\MP4DQ=-33.894927\MP4SDQ=-33.8970431\CCSD=-33.8980643\CCSD(T)=-33.
 Normal termination of Gaussian 16 at Sun Dec 10 06:52:55 2023.
