 Gaussian 16, Revision A.03,
 Gaussian 16:  ES64L-G16RevA.03 25-Dec-2016

 ------------------
 #p CCSD(T)/CEP-31G
 ------------------

 ------------
 H2O_H2O_4609
 ------------
 Symbolic Z-matrix:
 Charge =  0 Multiplicity = 1

                         Standard orientation:
 ---------------------------------------------------------------------
 Center     Atomic      Atomic             Coordinates (Angstroms)
 Number     Number       Type             X           Y           Z
 ---------------------------------------------------------------------
      1          8           0        0.066742    2.943622   -0.000000
      2          1           0        0.065964    1.961021   -0.000000
      3          1           0       -0.862498    3.263024   -0.000000
      4          8           0        0.066742   -2.770490    0.000000
      5          1           0        0.612000   -3.587925    0.000000
      6          1           0       -0.883344   -3.021175    0.000000
 ---------------------------------------------------------------------

 SCF Done:  E(RHF) =  -33.6528924365     A.U. after   11 cycles
 E2 =    -0.2283190720D+00 EUMP2 =    -0.33881211508543D+02
 CCSD(T)
 CCSD(T)= -0.33898180537D+02

 The electronic state is 1-A'.
 Alpha  occ. eigenvalues --   -1.36249  -1.34779  -0.71891  -0.70403  -0.56048
 Alpha  occ. eigenvalues --   -0.54546  -0.50837  -0.49366
 Alpha virt. eigenvalues --    0.19568   0.21102   0.29828   0.31374   0.79718
 Alpha virt. eigenvalues --    0.81158   0.82613   0.84159   0.85760   0.87298
 Alpha virt. eigenvalues --    1.16701   1.18169   1.21144   1.22679   2.56682

 Mulliken charges:
               1
     1  O   -0.745452
     2  H    0.377849
     3  H    0.367596
     4  O   -0.745235
     5  H    0.374487
     6  H    0.370755
 Sum of Mulliken charges =  -0.00000

 Dipole moment (field-independent basis, Debye):
    X=             -3.0680    Y=             -4.0597    Z=              0.0000  Tot=              5.0886
 Quadrupole moment (field-independent basis, Debye-Ang):
   XX=             -9.8929   YY=             -5.6714   ZZ=            -14.9907
   XY=             -5.4941   XZ=              0.0000   YZ=             -0.0000

 87\MP4DQ=-33.8925441\MP4SDQ=-33.8945689\CCSD=-33.895622\CCSD(T)=-33.89
 Normal termination of Gaussian 16 at Sun Dec 10 06:55:58 2023.
