 Gaussian 16, Revision A.03,
 Gaussian 16:  ES64L-G16RevA.03 25-Dec-2016

 ------------------
 #p CCSD(T)/CEP-31G
 ------------------

 ------------
 H2O_H2O_1891
 ------------
 Symbolic Z-matrix:
 Charge =  0 Multiplicity = 1

                         Standard orientation:
 ---------------------------------------------------------------------
 Center     Atomic      Atomic             Coordinates (Angstroms)
 Number     Number       Type             X           Y           Z
 ---------------------------------------------------------------------
      1          8           0        0.041190    1.860354   -0.000000
      2          1           0        0.038706    0.877756   -0.000000
      3          1           0       -0.887494    2.181369   -0.000000
      4          8           0        0.041190   -1.680475    0.000000
      5          1           0        0.890904   -2.173926    0.000000
      6          1           0       -0.701160   -2.324232    0.000000
 ---------------------------------------------------------------------

 SCF Done:  E(RHF) =  -33.6593001406     A.U. after   11 cycles
 E2 =    -0.2286284314D+00 EUMP2 =    -0.33887928571925D+02
 CCSD(T)
 CCSD(T)= -0.33904776693D+02

 The electronic state is 1-A'.
 Alpha  occ. eigenvalues --   -1.37476  -1.32917  -0.73123  -0.68602  -0.57771
 Alpha  occ. eigenvalues --   -0.52763  -0.52150  -0.47581
 Alpha virt. eigenvalues --    0.18126   0.24263   0.28947   0.35958   0.78079
 Alpha virt. eigenvalues --    0.82382   0.83228   0.86228   0.88970   0.91733
 Alpha virt. eigenvalues --    1.15641   1.19978   1.20684   1.33069   2.51113

 Mulliken charges:
               1
     1  O   -0.772819
     2  H    0.410012
     3  H    0.360541
     4  O   -0.767322
     5  H    0.386809
     6  H    0.382778
 Sum of Mulliken charges =   0.00000

 Dipole moment (field-independent basis, Debye):
    X=             -1.8520    Y=             -4.4493    Z=              0.0000  Tot=              4.8193
 Quadrupole moment (field-independent basis, Debye-Ang):
   XX=             -9.3959   YY=             -7.5921   ZZ=            -15.0037
   XY=             -5.2862   XZ=              0.0000   YZ=             -0.0000

 3138\MP4DQ=-33.8990555\MP4SDQ=-33.9011317\CCSD=-33.9021515\CCSD(T)=-33
 Normal termination of Gaussian 16 at Sun Dec 10 06:54:35 2023.
