 Gaussian 16, Revision A.03,
 Gaussian 16:  ES64L-G16RevA.03 25-Dec-2016

 ------------------
 #p CCSD(T)/CEP-31G
 ------------------

 ------------
 H2O_H2O_4482
 ------------
 Symbolic Z-matrix:
 Charge =  0 Multiplicity = 1

                         Standard orientation:
 ---------------------------------------------------------------------
 Center     Atomic      Atomic             Coordinates (Angstroms)
 Number     Number       Type             X           Y           Z
 ---------------------------------------------------------------------
      1          8           0        0.073524    2.890411    0.000000
      2          1           0        0.072937    1.907809    0.000000
      3          1           0       -0.855779    3.209632   -0.000000
      4          8           0        0.073524   -2.723448    0.000000
      5          1           0        0.507590   -3.604977    0.000000
      6          1           0       -0.901131   -2.848166   -0.000000
 ---------------------------------------------------------------------

 SCF Done:  E(RHF) =  -33.6527743965     A.U. after   11 cycles
 E2 =    -0.2283250883D+00 EUMP2 =    -0.33881099484823D+02
 CCSD(T)
 CCSD(T)= -0.33898072076D+02

 The electronic state is 1-A'.
 Alpha  occ. eigenvalues --   -1.36281  -1.34817  -0.71924  -0.70439  -0.56074
 Alpha  occ. eigenvalues --   -0.54578  -0.50866  -0.49402
 Alpha virt. eigenvalues --    0.19518   0.21066   0.29788   0.31331   0.79692
 Alpha virt. eigenvalues --    0.81125   0.82591   0.84130   0.85721   0.87283
 Alpha virt. eigenvalues --    1.16665   1.18127   1.21105   1.22653   2.56642

 Mulliken charges:
               1
     1  O   -0.745008
     2  H    0.377710
     3  H    0.367288
     4  O   -0.744927
     5  H    0.374730
     6  H    0.370208
 Sum of Mulliken charges =  -0.00000

 Dipole moment (field-independent basis, Debye):
    X=             -3.3794    Y=             -3.9186    Z=             -0.0000  Tot=              5.1745
 Quadrupole moment (field-independent basis, Debye-Ang):
   XX=            -10.1659   YY=             -6.3253   ZZ=            -14.9904
   XY=             -4.7394   XZ=              0.0000   YZ=             -0.0000

 6897\MP4DQ=-33.8924345\MP4SDQ=-33.8944597\CCSD=-33.895513\CCSD(T)=-33.
 Normal termination of Gaussian 16 at Sun Dec 10 06:53:40 2023.
