 Gaussian 16, Revision A.03,
 Gaussian 16:  ES64L-G16RevA.03 25-Dec-2016

 ------------------
 #p CCSD(T)/CEP-31G
 ------------------

 ------------
 H2O_H2O_4568
 ------------
 Symbolic Z-matrix:
 Charge =  0 Multiplicity = 1

                         Standard orientation:
 ---------------------------------------------------------------------
 Center     Atomic      Atomic             Coordinates (Angstroms)
 Number     Number       Type             X           Y           Z
 ---------------------------------------------------------------------
      1          8           0        0.033750    2.926083   -0.000000
      2          1           0        0.031980    1.943484   -0.000000
      3          1           0       -0.895168    3.246423   -0.000000
      4          8           0        0.033750   -2.748530    0.000000
      5          1           0        0.940877   -3.126189    0.000000
      6          1           0       -0.617687   -3.484149    0.000000
 ---------------------------------------------------------------------

 SCF Done:  E(RHF) =  -33.6533759539     A.U. after   11 cycles
 E2 =    -0.2282951266D+00 EUMP2 =    -0.33881671080569D+02
 CCSD(T)
 CCSD(T)= -0.33898626795D+02

 The electronic state is 1-A'.
 Alpha  occ. eigenvalues --   -1.36238  -1.34695  -0.71877  -0.70328  -0.56063
 Alpha  occ. eigenvalues --   -0.54483  -0.50834  -0.49293
 Alpha virt. eigenvalues --    0.19610   0.21207   0.29869   0.31488   0.79718
 Alpha virt. eigenvalues --    0.81224   0.82570   0.84211   0.85760   0.87316
 Alpha virt. eigenvalues --    1.16732   1.18278   1.21173   1.22778   2.56700

 Mulliken charges:
               1
     1  O   -0.747303
     2  H    0.378405
     3  H    0.368890
     4  O   -0.746744
     5  H    0.373957
     6  H    0.372796
 Sum of Mulliken charges =   0.00000

 Dipole moment (field-independent basis, Debye):
    X=             -1.5499    Y=             -4.1615    Z=              0.0000  Tot=              4.4407
 Quadrupole moment (field-independent basis, Debye-Ang):
   XX=             -9.4374   YY=             -5.2922   ZZ=            -14.9918
   XY=             -8.5460   XZ=              0.0000   YZ=             -0.0000

 3\MP4DQ=-33.8929939\MP4SDQ=-33.8950175\CCSD=-33.8960698\CCSD(T)=-33.89
 Normal termination of Gaussian 16 at Sun Dec 10 06:55:13 2023.
