 Gaussian 16, Revision A.03,
 Gaussian 16:  ES64L-G16RevA.03 25-Dec-2016

 ------------------
 #p CCSD(T)/CEP-31G
 ------------------

 ------------
 H2O_H2O_1164
 ------------
 Symbolic Z-matrix:
 Charge =  0 Multiplicity = 1

                         Standard orientation:
 ---------------------------------------------------------------------
 Center     Atomic      Atomic             Coordinates (Angstroms)
 Number     Number       Type             X           Y           Z
 ---------------------------------------------------------------------
      1          8           0        0.048663    1.571399    0.000000
      2          1           0        0.046121    0.588801    0.000000
      3          1           0       -0.880002    1.892469    0.000000
      4          8           0        0.048663   -1.391097    0.000000
      5          1           0        0.826663   -1.991282    0.000000
      6          1           0       -0.771395   -1.932402    0.000000
 ---------------------------------------------------------------------

 SCF Done:  E(RHF) =  -33.6627220356     A.U. after   11 cycles
 E2 =    -0.2290523498D+00 EUMP2 =    -0.33891774385380D+02
 CCSD(T)
 CCSD(T)= -0.33908346258D+02

 The electronic state is 1-A'.
 Alpha  occ. eigenvalues --   -1.38577  -1.31555  -0.74174  -0.68055  -0.59088
 Alpha  occ. eigenvalues --   -0.53309  -0.51197  -0.46206
 Alpha virt. eigenvalues --    0.17705   0.26095   0.28177   0.43170   0.76052
 Alpha virt. eigenvalues --    0.78300   0.85735   0.85746   0.94061   0.99824
 Alpha virt. eigenvalues --    1.14927   1.19326   1.21936   1.34709   2.50839

 Mulliken charges:
               1
     1  O   -0.784738
     2  H    0.433856
     3  H    0.349802
     4  O   -0.799271
     5  H    0.405773
     6  H    0.394578
 Sum of Mulliken charges =  -0.00000

 Dipole moment (field-independent basis, Debye):
    X=             -2.1426    Y=             -4.6651    Z=              0.0000  Tot=              5.1336
 Quadrupole moment (field-independent basis, Debye-Ang):
   XX=             -9.4244   YY=             -8.5336   ZZ=            -15.0150
   XY=             -4.3625   XZ=              0.0000   YZ=              0.0000

 325\MP4DQ=-33.9025241\MP4SDQ=-33.9046288\CCSD=-33.9055916\CCSD(T)=-33.
 Normal termination of Gaussian 16 at Sun Dec 10 06:40:25 2023.
