 Gaussian 16, Revision A.03,
 Gaussian 16:  ES64L-G16RevA.03 25-Dec-2016

 ------------------
 #p CCSD(T)/CEP-31G
 ------------------

 -----------
 H2O_H2O_697
 -----------
 Symbolic Z-matrix:
 Charge =  0 Multiplicity = 1

                         Standard orientation:
 ---------------------------------------------------------------------
 Center     Atomic      Atomic             Coordinates (Angstroms)
 Number     Number       Type             X           Y           Z
 ---------------------------------------------------------------------
      1          8           0       -0.020037    1.374727    0.000000
      2          1           0       -0.015233    0.392138    0.000000
      3          1           0        0.907888    1.697934    0.000000
      4          8           0       -0.020037   -1.207707    0.000000
      5          1           0       -0.993593   -1.340724    0.000000
      6          1           0        0.421524   -2.085507    0.000000
 ---------------------------------------------------------------------

 SCF Done:  E(RHF) =  -33.6582588061     A.U. after   11 cycles
 E2 =    -0.2284866346D+00 EUMP2 =    -0.33886745440660D+02
 CCSD(T)
 CCSD(T)= -0.33902884063D+02

 The electronic state is 1-A'.
 Alpha  occ. eigenvalues --   -1.40128  -1.30374  -0.76184  -0.68919  -0.59433
 Alpha  occ. eigenvalues --   -0.54712  -0.49551  -0.44977
 Alpha virt. eigenvalues --    0.17435   0.26963   0.27748   0.50473   0.74429
 Alpha virt. eigenvalues --    0.76381   0.86628   0.88017   0.93298   1.05647
 Alpha virt. eigenvalues --    1.15721   1.21532   1.25615   1.37644   2.62254

 Mulliken charges:
               1
     1  O   -0.775223
     2  H    0.406124
     3  H    0.350754
     4  O   -0.832060
     5  H    0.408047
     6  H    0.442358
 Sum of Mulliken charges =  -0.00000

 Dipole moment (field-independent basis, Debye):
    X=              0.8950    Y=             -4.6367    Z=              0.0000  Tot=              4.7223
 Quadrupole moment (field-independent basis, Debye-Ang):
   XX=             -9.6148   YY=             -9.2960   ZZ=            -15.0139
   XY=              4.5192   XZ=              0.0000   YZ=              0.0000

 862\MP4DQ=-33.8969536\MP4SDQ=-33.8991272\CCSD=-33.9000092\CCSD(T)=-33.
 Normal termination of Gaussian 16 at Sun Dec 10 06:31:38 2023.
