 Gaussian 16, Revision A.03,
 Gaussian 16:  ES64L-G16RevA.03 25-Dec-2016

 ------------------
 #p CCSD(T)/CEP-31G
 ------------------

 ------------
 H2O_H2O_4565
 ------------
 Symbolic Z-matrix:
 Charge =  0 Multiplicity = 1

                         Standard orientation:
 ---------------------------------------------------------------------
 Center     Atomic      Atomic             Coordinates (Angstroms)
 Number     Number       Type             X           Y           Z
 ---------------------------------------------------------------------
      1          8           0        0.044825    2.927646   -0.000000
      2          1           0        0.043386    1.945046   -0.000000
      3          1           0       -0.884201    3.247673   -0.000000
      4          8           0        0.044825   -2.747213    0.000000
      5          1           0        0.861028   -3.294313    0.000000
      6          1           0       -0.737408   -3.341871    0.000000
 ---------------------------------------------------------------------

 SCF Done:  E(RHF) =  -33.6532938891     A.U. after   11 cycles
 E2 =    -0.2283005585D+00 EUMP2 =    -0.33881594447599D+02
 CCSD(T)
 CCSD(T)= -0.33898552118D+02

 The electronic state is 1-A'.
 Alpha  occ. eigenvalues --   -1.36243  -1.34674  -0.71882  -0.70304  -0.56064
 Alpha  occ. eigenvalues --   -0.54457  -0.50837  -0.49270
 Alpha virt. eigenvalues --    0.19600   0.21227   0.29860   0.31507   0.79715
 Alpha virt. eigenvalues --    0.81248   0.82572   0.84239   0.85761   0.87353
 Alpha virt. eigenvalues --    1.16724   1.18294   1.21167   1.22797   2.56694

 Mulliken charges:
               1
     1  O   -0.746991
     2  H    0.378664
     3  H    0.368317
     4  O   -0.746452
     5  H    0.374254
     6  H    0.372208
 Sum of Mulliken charges =  -0.00000

 Dipole moment (field-independent basis, Debye):
    X=             -2.0590    Y=             -4.2301    Z=              0.0000  Tot=              4.7046
 Quadrupole moment (field-independent basis, Debye-Ang):
   XX=             -9.4287   YY=             -5.0456   ZZ=            -14.9917
   XY=             -7.5314   XZ=              0.0000   YZ=             -0.0000

 715\MP4DQ=-33.8929187\MP4SDQ=-33.8949426\CCSD=-33.8959949\CCSD(T)=-33.
 Normal termination of Gaussian 16 at Sun Dec 10 06:55:10 2023.
