 Gaussian 16, Revision A.03,
 Gaussian 16:  ES64L-G16RevA.03 25-Dec-2016

 ------------------
 #p CCSD(T)/CEP-31G
 ------------------

 ------------
 H2O_H2O_3000
 ------------
 Symbolic Z-matrix:
 Charge =  0 Multiplicity = 1

                         Standard orientation:
 ---------------------------------------------------------------------
 Center     Atomic      Atomic             Coordinates (Angstroms)
 Number     Number       Type             X           Y           Z
 ---------------------------------------------------------------------
      1          8           0        0.092949   -2.283504    0.000000
      2          1           0        0.092949   -1.300902    0.000000
      3          1           0       -0.836544   -2.602170    0.000000
      4          8           0        0.092949    2.150717    0.000000
      5          1           0        0.092949    3.133318    0.000000
      6          1           0       -0.836544    1.832049    0.000000
 ---------------------------------------------------------------------

 SCF Done:  E(RHF) =  -33.6523008964     A.U. after   11 cycles
 E2 =    -0.2284393544D+00 EUMP2 =    -0.33880740250829D+02
 CCSD(T)
 CCSD(T)= -0.33897737728D+02

 The electronic state is 1-A'.
 Alpha  occ. eigenvalues --   -1.36795  -1.34924  -0.72472  -0.70514  -0.56574
 Alpha  occ. eigenvalues --   -0.54648  -0.51366  -0.49490
 Alpha virt. eigenvalues --    0.17552   0.22000   0.29247   0.31538   0.79215
 Alpha virt. eigenvalues --    0.81062   0.82450   0.84016   0.85530   0.87568
 Alpha virt. eigenvalues --    1.15683   1.18506   1.20598   1.25904   2.55702

 Mulliken charges:
               1
     1  O   -0.743471
     2  H    0.378896
     3  H    0.364192
     4  O   -0.744091
     5  H    0.378787
     6  H    0.365686
 Sum of Mulliken charges =  -0.00000

 Dipole moment (field-independent basis, Debye):
    X=             -4.2523    Y=              3.1723    Z=              0.0000  Tot=              5.3053
 Quadrupole moment (field-independent basis, Debye-Ang):
   XX=            -11.2951   YY=             -9.5903   ZZ=            -14.9880
   XY=              2.2957   XZ=              0.0000   YZ=              0.0000

 63\MP4DQ=-33.8920758\MP4SDQ=-33.8941166\CCSD=-33.8951625\CCSD(T)=-33.8
 Normal termination of Gaussian 16 at Sun Dec 10 06:27:03 2023.
