 Gaussian 16, Revision A.03,
 Gaussian 16:  ES64L-G16RevA.03 25-Dec-2016

 ------------------
 #p CCSD(T)/CEP-31G
 ------------------

 ------------
 H2O_H2O_1875
 ------------
 Symbolic Z-matrix:
 Charge =  0 Multiplicity = 1

                         Standard orientation:
 ---------------------------------------------------------------------
 Center     Atomic      Atomic             Coordinates (Angstroms)
 Number     Number       Type             X           Y           Z
 ---------------------------------------------------------------------
      1          8           0        0.092949   -1.834767    0.000000
      2          1           0        0.092949   -0.852165    0.000000
      3          1           0       -0.836544   -2.153433    0.000000
      4          8           0        0.092949    1.701979    0.000000
      5          1           0        0.092950    2.684582    0.000000
      6          1           0       -0.836544    1.383313    0.000000
 ---------------------------------------------------------------------

 SCF Done:  E(RHF) =  -33.6528695145     A.U. after   11 cycles
 E2 =    -0.2289067519D+00 EUMP2 =    -0.33881776266392D+02
 CCSD(T)
 CCSD(T)= -0.33898837445D+02

 The electronic state is 1-A'.
 Alpha  occ. eigenvalues --   -1.37641  -1.34461  -0.73480  -0.69946  -0.57491
 Alpha  occ. eigenvalues --   -0.54143  -0.52198  -0.49010
 Alpha virt. eigenvalues --    0.16517   0.23707   0.28551   0.34570   0.77903
 Alpha virt. eigenvalues --    0.82118   0.82312   0.84448   0.87975   0.96048
 Alpha virt. eigenvalues --    1.15399   1.17973   1.21068   1.37901   2.53920

 Mulliken charges:
               1
     1  O   -0.748832
     2  H    0.388265
     3  H    0.357927
     4  O   -0.749356
     5  H    0.388759
     6  H    0.363238
 Sum of Mulliken charges =   0.00000

 Dipole moment (field-independent basis, Debye):
    X=             -4.2072    Y=              3.2949    Z=              0.0000  Tot=              5.3439
 Quadrupole moment (field-independent basis, Debye-Ang):
   XX=            -11.3206   YY=             -9.5596   ZZ=            -14.9872
   XY=              2.2752   XZ=              0.0000   YZ=              0.0000

 08\MP4DQ=-33.8930524\MP4SDQ=-33.8951712\CCSD=-33.8961916\CCSD(T)=-33.8
 Normal termination of Gaussian 16 at Sun Dec 10 06:54:17 2023.
