 Gaussian 16, Revision A.03,
 Gaussian 16:  ES64L-G16RevA.03 25-Dec-2016

 ------------------
 #p CCSD(T)/CEP-31G
 ------------------

 -----------
 H2O_H2O_753
 -----------
 Symbolic Z-matrix:
 Charge =  0 Multiplicity = 1

                         Standard orientation:
 ---------------------------------------------------------------------
 Center     Atomic      Atomic             Coordinates (Angstroms)
 Number     Number       Type             X           Y           Z
 ---------------------------------------------------------------------
      1          8           0        0.085616   -1.395143    0.000000
      2          1           0        0.085144   -0.412542    0.000000
      3          1           0       -0.843724   -1.714256    0.000000
      4          8           0        0.085616    1.245580    0.000000
      5          1           0        0.276850    2.209394    0.000000
      6          1           0       -0.888122    1.113904    0.000000
 ---------------------------------------------------------------------

 SCF Done:  E(RHF) =  -33.6495078981     A.U. after   11 cycles
 E2 =    -0.2290167691D+00 EUMP2 =    -0.33878524667163D+02
 CCSD(T)
 CCSD(T)= -0.33895169459D+02

 The electronic state is 1-A'.
 Alpha  occ. eigenvalues --   -1.40175  -1.32002  -0.76810  -0.68603  -0.59263
 Alpha  occ. eigenvalues --   -0.54533  -0.51276  -0.46444
 Alpha virt. eigenvalues --    0.16650   0.25543   0.27634   0.47640   0.74358
 Alpha virt. eigenvalues --    0.77899   0.85173   0.86898   0.93707   1.10896
 Alpha virt. eigenvalues --    1.14847   1.23186   1.31214   1.36396   2.57553

 Mulliken charges:
               1
     1  O   -0.737499
     2  H    0.378771
     3  H    0.336712
     4  O   -0.796325
     5  H    0.442821
     6  H    0.375521
 Sum of Mulliken charges =   0.00000

 Dipole moment (field-independent basis, Debye):
    X=             -3.7265    Y=              4.1674    Z=              0.0000  Tot=              5.5905
 Quadrupole moment (field-independent basis, Debye-Ang):
   XX=            -10.8708   YY=             -9.3956   ZZ=            -14.9922
   XY=              2.7711   XZ=              0.0000   YZ=              0.0000

 78\MP4DQ=-33.8891193\MP4SDQ=-33.8913939\CCSD=-33.892308\CCSD(T)=-33.89
 Normal termination of Gaussian 16 at Sun Dec 10 06:32:41 2023.
