 Gaussian 16, Revision A.03,
 Gaussian 16:  ES64L-G16RevA.03 25-Dec-2016

 ------------------
 #p CCSD(T)/CEP-31G
 ------------------

 ------------
 H2O_H2O_3490
 ------------
 Symbolic Z-matrix:
 Charge =  0 Multiplicity = 1

                         Standard orientation:
 ---------------------------------------------------------------------
 Center     Atomic      Atomic             Coordinates (Angstroms)
 Number     Number       Type             X           Y           Z
 ---------------------------------------------------------------------
      1          8           0        0.044848    2.498842   -0.000000
      2          1           0        0.043153    1.516242   -0.000000
      3          1           0       -0.884094    2.819111   -0.000000
      4          8           0        0.044848   -2.318432    0.000000
      5          1           0        0.860909   -2.865744    0.000000
      6          1           0       -0.737539   -2.912887    0.000000
 ---------------------------------------------------------------------

 SCF Done:  E(RHF) =  -33.6544337897     A.U. after   11 cycles
 E2 =    -0.2282918772D+00 EUMP2 =    -0.33882725666933D+02
 CCSD(T)
 CCSD(T)= -0.33899651285D+02

 The electronic state is 1-A'.
 Alpha  occ. eigenvalues --   -1.36517  -1.34269  -0.72160  -0.69895  -0.56406
 Alpha  occ. eigenvalues --   -0.54080  -0.51127  -0.48880
 Alpha virt. eigenvalues --    0.19213   0.21823   0.29647   0.32023   0.79436
 Alpha virt. eigenvalues --    0.81612   0.82226   0.84633   0.85439   0.87766
 Alpha virt. eigenvalues --    1.16496   1.18850   1.20927   1.23870   2.56450

 Mulliken charges:
               1
     1  O   -0.751421
     2  H    0.384390
     3  H    0.366743
     4  O   -0.750088
     5  H    0.376690
     6  H    0.373686
 Sum of Mulliken charges =  -0.00000

 Dipole moment (field-independent basis, Debye):
    X=             -2.0506    Y=             -4.2730    Z=              0.0000  Tot=              4.7396
 Quadrupole moment (field-independent basis, Debye-Ang):
   XX=             -9.4262   YY=             -6.0205   ZZ=            -14.9940
   XY=             -6.5723   XZ=              0.0000   YZ=             -0.0000

 2674\MP4DQ=-33.8940192\MP4SDQ=-33.8960463\CCSD=-33.8970922\CCSD(T)=-33
 Normal termination of Gaussian 16 at Sun Dec 10 06:35:50 2023.
