 Gaussian 16, Revision A.03,
 Gaussian 16:  ES64L-G16RevA.03 25-Dec-2016

 ------------------
 #p CCSD(T)/CEP-31G
 ------------------

 -----------
 H2O_H2O_841
 -----------
 Symbolic Z-matrix:
 Charge =  0 Multiplicity = 1

                         Standard orientation:
 ---------------------------------------------------------------------
 Center     Atomic      Atomic             Coordinates (Angstroms)
 Number     Number       Type             X           Y           Z
 ---------------------------------------------------------------------
      1          8           0        0.041261    1.441502    0.000000
      2          1           0        0.038007    0.458906    0.000000
      3          1           0       -0.887172    1.763245    0.000000
      4          8           0        0.041261   -1.261688   -0.000000
      5          1           0        0.890588   -1.755804   -0.000000
      6          1           0       -0.701593   -1.904863   -0.000000
 ---------------------------------------------------------------------

 SCF Done:  E(RHF) =  -33.6624313060     A.U. after   11 cycles
 E2 =    -0.2290592112D+00 EUMP2 =    -0.33891490517265D+02
 CCSD(T)
 CCSD(T)= -0.33907694761D+02

 The electronic state is 1-A'.
 Alpha  occ. eigenvalues --   -1.39498  -1.30536  -0.74988  -0.68822  -0.59287
 Alpha  occ. eigenvalues --   -0.54233  -0.49901  -0.45146
 Alpha virt. eigenvalues --    0.17479   0.27150   0.27643   0.48420   0.74935
 Alpha virt. eigenvalues --    0.76038   0.85626   0.87436   0.96449   0.99352
 Alpha virt. eigenvalues --    1.15164   1.18535   1.23351   1.36591   2.56691

 Mulliken charges:
               1
     1  O   -0.785208
     2  H    0.435503
     3  H    0.344294
     4  O   -0.820955
     5  H    0.413927
     6  H    0.412438
 Sum of Mulliken charges =  -0.00000

 Dipole moment (field-independent basis, Debye):
    X=             -1.7993    Y=             -4.8217    Z=             -0.0000  Tot=              5.1465
 Quadrupole moment (field-independent basis, Debye-Ang):
   XX=             -9.3486   YY=             -9.0757   ZZ=            -15.0197
   XY=             -4.2029   XZ=             -0.0000   YZ=              0.0000

 507\MP4DQ=-33.9018135\MP4SDQ=-33.9039427\CCSD=-33.9048378\CCSD(T)=-33.
 Normal termination of Gaussian 16 at Sun Dec 10 06:34:20 2023.
