 Gaussian 16, Revision A.03,
 Gaussian 16:  ES64L-G16RevA.03 25-Dec-2016

 ------------------
 #p CCSD(T)/CEP-31G
 ------------------

 -----------
 H2O_H2O_350
 -----------
 Symbolic Z-matrix:
 Charge =  0 Multiplicity = 1

                         Standard orientation:
 ---------------------------------------------------------------------
 Center     Atomic      Atomic             Coordinates (Angstroms)
 Number     Number       Type             X           Y           Z
 ---------------------------------------------------------------------
      1          8           0        0.092949   -1.226479    0.000000
      2          1           0        0.092949   -0.243877    0.000000
      3          1           0       -0.836544   -1.545145    0.000000
      4          8           0        0.092949    1.093692    0.000000
      5          1           0        0.092949    2.076293    0.000000
      6          1           0       -0.836544    0.775025    0.000000
 ---------------------------------------------------------------------

 SCF Done:  E(RHF) =  -33.6145872736     A.U. after   11 cycles
 E2 =    -0.2291129057D+00 EUMP2 =    -0.33843700179228D+02
 CCSD(T)
 CCSD(T)= -0.33859825495D+02

 The electronic state is 1-A'.
 Alpha  occ. eigenvalues --   -1.43498  -1.31361  -0.81784  -0.68920  -0.58791
 Alpha  occ. eigenvalues --   -0.56638  -0.50064  -0.45577
 Alpha virt. eigenvalues --    0.16236   0.23951   0.28759   0.54902   0.73118
 Alpha virt. eigenvalues --    0.77133   0.87005   0.88563   0.94403   1.11373
 Alpha virt. eigenvalues --    1.12485   1.24503   1.27696   1.46533   2.73431

 Mulliken charges:
               1
     1  O   -0.677838
     2  H    0.271402
     3  H    0.321973
     4  O   -0.748334
     5  H    0.463900
     6  H    0.368896
 Sum of Mulliken charges =  -0.00000

 Dipole moment (field-independent basis, Debye):
    X=             -3.9632    Y=              4.1364    Z=              0.0000  Tot=              5.7286
 Quadrupole moment (field-independent basis, Debye-Ang):
   XX=            -11.3691   YY=            -10.1849   ZZ=            -14.9396
   XY=              2.1284   XZ=              0.0000   YZ=              0.0000

 7\MP4DQ=-33.8534783\MP4SDQ=-33.8559659\CCSD=-33.8567101\CCSD(T)=-33.85
 Normal termination of Gaussian 16 at Sun Dec 10 06:24:57 2023.
