 Gaussian 16, Revision A.03,
 Gaussian 16:  ES64L-G16RevA.03 25-Dec-2016

 ------------------
 #p CCSD(T)/CEP-31G
 ------------------

 -----------
 H2O_H2O_400
 -----------
 Symbolic Z-matrix:
 Charge =  0 Multiplicity = 1

                         Standard orientation:
 ---------------------------------------------------------------------
 Center     Atomic      Atomic             Coordinates (Angstroms)
 Number     Number       Type             X           Y           Z
 ---------------------------------------------------------------------
      1          8           0        0.092949   -1.246422    0.000000
      2          1           0        0.092949   -0.263821    0.000000
      3          1           0       -0.836544   -1.565089    0.000000
      4          8           0        0.092949    1.113635    0.000000
      5          1           0        0.092950    2.096238    0.000000
      6          1           0       -0.836544    0.794969    0.000000
 ---------------------------------------------------------------------

 SCF Done:  E(RHF) =  -33.6203452113     A.U. after   11 cycles
 E2 =    -0.2291638833D+00 EUMP2 =    -0.33849509094598D+02
 CCSD(T)
 CCSD(T)= -0.33865749472D+02

 The electronic state is 1-A'.
 Alpha  occ. eigenvalues --   -1.42954  -1.31602  -0.81123  -0.68716  -0.59008
 Alpha  occ. eigenvalues --   -0.56306  -0.50413  -0.45846
 Alpha virt. eigenvalues --    0.16271   0.24151   0.28582   0.53845   0.73205
 Alpha virt. eigenvalues --    0.77324   0.86603   0.88295   0.94133   1.11394
 Alpha virt. eigenvalues --    1.12615   1.24483   1.28754   1.45675   2.70243

 Mulliken charges:
               1
     1  O   -0.683427
     2  H    0.284405
     3  H    0.324618
     4  O   -0.753227
     5  H    0.459626
     6  H    0.368005
 Sum of Mulliken charges =  -0.00000

 Dipole moment (field-independent basis, Debye):
    X=             -3.9797    Y=              4.0720    Z=              0.0000  Tot=              5.6938
 Quadrupole moment (field-independent basis, Debye-Ang):
   XX=            -11.3729   YY=            -10.1169   ZZ=            -14.9481
   XY=              2.1398   XZ=              0.0000   YZ=              0.0000

 18\MP4DQ=-33.859437\MP4SDQ=-33.8618999\CCSD=-33.8626681\CCSD(T)=-33.86
 Normal termination of Gaussian 16 at Sun Dec 10 06:25:56 2023.
