 Gaussian 16, Revision A.03,
 Gaussian 16:  ES64L-G16RevA.03 25-Dec-2016

 ------------------
 #p CCSD(T)/CEP-31G
 ------------------

 ------------
 H2O_H2O_4274
 ------------
 Symbolic Z-matrix:
 Charge =  0 Multiplicity = 1

                         Standard orientation:
 ---------------------------------------------------------------------
 Center     Atomic      Atomic             Coordinates (Angstroms)
 Number     Number       Type             X           Y           Z
 ---------------------------------------------------------------------
      1          8           0       -0.013479    2.796496    0.000000
      2          1           0       -0.010998    1.813898    0.000000
      3          1           0        0.915207    3.117508    0.000000
      4          8           0       -0.013479   -2.637221    0.000000
      5          1           0       -0.996077   -2.639702    0.000000
      6          1           0        0.307533   -3.565906    0.000000
 ---------------------------------------------------------------------

 SCF Done:  E(RHF) =  -33.6535319946     A.U. after   11 cycles
 E2 =    -0.2282831170D+00 EUMP2 =    -0.33881815111559D+02
 CCSD(T)
 CCSD(T)= -0.33898768147D+02

 The electronic state is 1-A'.
 Alpha  occ. eigenvalues --   -1.36294  -1.34793  -0.71937  -0.70434  -0.56126
 Alpha  occ. eigenvalues --   -0.54591  -0.50891  -0.49396
 Alpha virt. eigenvalues --    0.19517   0.21142   0.29822   0.31396   0.79662
 Alpha virt. eigenvalues --    0.81121   0.82492   0.84101   0.85659   0.87205
 Alpha virt. eigenvalues --    1.16679   1.18203   1.21115   1.22738   2.56605

 Mulliken charges:
               1
     1  O   -0.747914
     2  H    0.377695
     3  H    0.370200
     4  O   -0.747557
     5  H    0.373369
     6  H    0.374208
 Sum of Mulliken charges =  -0.00000

 Dipole moment (field-independent basis, Debye):
    X=              0.6186    Y=             -3.7373    Z=              0.0000  Tot=              3.7881
 Quadrupole moment (field-independent basis, Debye-Ang):
   XX=             -9.8761   YY=             -7.1026   ZZ=            -14.9919
   XY=             10.1345   XZ=              0.0000   YZ=              0.0000

 71\MP4DQ=-33.8931353\MP4SDQ=-33.8951589\CCSD=-33.8962108\CCSD(T)=-33.8
 Normal termination of Gaussian 16 at Sun Dec 10 06:49:56 2023.
