 Gaussian 16, Revision A.03,
 Gaussian 16:  ES64L-G16RevA.03 25-Dec-2016

 ------------------
 #p CCSD(T)/CEP-31G
 ------------------

 ------------
 H2O_H2O_1405
 ------------
 Symbolic Z-matrix:
 Charge =  0 Multiplicity = 1

                         Standard orientation:
 ---------------------------------------------------------------------
 Center     Atomic      Atomic             Coordinates (Angstroms)
 Number     Number       Type             X           Y           Z
 ---------------------------------------------------------------------
      1          8           0        0.079869   -1.659554    0.000000
      2          1           0        0.079166   -0.676953    0.000000
      3          1           0       -0.849396   -1.978886    0.000000
      4          8           0        0.079869    1.500528    0.000000
      5          1           0        0.395051    2.431209    0.000000
      6          1           0       -0.902726    1.496845    0.000000
 ---------------------------------------------------------------------

 SCF Done:  E(RHF) =  -33.6569803109     A.U. after   11 cycles
 E2 =    -0.2289569561D+00 EUMP2 =    -0.33885937267002D+02
 CCSD(T)
 CCSD(T)= -0.33902873135D+02

 The electronic state is 1-A'.
 Alpha  occ. eigenvalues --   -1.38221  -1.33028  -0.74060  -0.68721  -0.58387
 Alpha  occ. eigenvalues --   -0.52827  -0.52692  -0.47611
 Alpha virt. eigenvalues --    0.17211   0.24908   0.28159   0.38905   0.76736
 Alpha virt. eigenvalues --    0.80583   0.84104   0.85169   0.90593   1.06084
 Alpha virt. eigenvalues --    1.15115   1.17826   1.21536   1.38329   2.50295

 Mulliken charges:
               1
     1  O   -0.764233
     2  H    0.409616
     3  H    0.350868
     4  O   -0.775067
     5  H    0.405484
     6  H    0.373333
 Sum of Mulliken charges =   0.00000

 Dipole moment (field-independent basis, Debye):
    X=             -3.5664    Y=              4.0714    Z=              0.0000  Tot=              5.4126
 Quadrupole moment (field-independent basis, Debye-Ang):
   XX=            -10.5080   YY=             -8.6581   ZZ=            -14.9986
   XY=              3.2765   XZ=              0.0000   YZ=              0.0000

 204\MP4DQ=-33.8970299\MP4SDQ=-33.8991733\CCSD=-33.9001782\CCSD(T)=-33.
 Normal termination of Gaussian 16 at Sun Dec 10 06:45:11 2023.
