 Gaussian 16, Revision A.03,
 Gaussian 16:  ES64L-G16RevA.03 25-Dec-2016

 ------------------
 #p CCSD(T)/CEP-31G
 ------------------

 ------------
 H2O_H2O_1419
 ------------
 Symbolic Z-matrix:
 Charge =  0 Multiplicity = 1

                         Standard orientation:
 ---------------------------------------------------------------------
 Center     Atomic      Atomic             Coordinates (Angstroms)
 Number     Number       Type             X           Y           Z
 ---------------------------------------------------------------------
      1          8           0        0.030280    1.668537    0.000000
      2          1           0        0.026910    0.685942    0.000000
      3          1           0       -0.898115    1.990390    0.000000
      4          8           0        0.030280   -1.492993   -0.000000
      5          1           0        0.959645   -1.812028   -0.000000
      6          1           0       -0.572915   -2.268662   -0.000000
 ---------------------------------------------------------------------

 SCF Done:  E(RHF) =  -33.6619342868     A.U. after   11 cycles
 E2 =    -0.2288051264D+00 EUMP2 =    -0.33890739413132D+02
 CCSD(T)
 CCSD(T)= -0.33907481323D+02

 The electronic state is 1-A'.
 Alpha  occ. eigenvalues --   -1.38063  -1.32209  -0.73728  -0.68171  -0.58618
 Alpha  occ. eigenvalues --   -0.52771  -0.51992  -0.46895
 Alpha virt. eigenvalues --    0.17882   0.25439   0.28533   0.39877   0.76879
 Alpha virt. eigenvalues --    0.79943   0.84596   0.86408   0.90595   1.00622
 Alpha virt. eigenvalues --    1.15300   1.18776   1.21776   1.34972   2.50061

 Mulliken charges:
               1
     1  O   -0.783260
     2  H    0.422358
     3  H    0.358712
     4  O   -0.786899
     5  H    0.392019
     6  H    0.397069
 Sum of Mulliken charges =  -0.00000

 Dipole moment (field-independent basis, Debye):
    X=             -1.3533    Y=             -4.4592    Z=             -0.0000  Tot=              4.6600
 Quadrupole moment (field-independent basis, Debye-Ang):
   XX=             -9.4408   YY=             -8.2426   ZZ=            -15.0107
   XY=             -5.1731   XZ=             -0.0000   YZ=              0.0000

 8\MP4DQ=-33.9016986\MP4SDQ=-33.9037949\CCSD=-33.9047915\CCSD(T)=-33.90
 Normal termination of Gaussian 16 at Sun Dec 10 06:45:28 2023.
