 Gaussian 16, Revision A.03,
 Gaussian 16:  ES64L-G16RevA.03 25-Dec-2016

 ------------------
 #p CCSD(T)/CEP-31G
 ------------------

 ------------
 H2O_H2O_2898
 ------------
 Symbolic Z-matrix:
 Charge =  0 Multiplicity = 1

                         Standard orientation:
 ---------------------------------------------------------------------
 Center     Atomic      Atomic             Coordinates (Angstroms)
 Number     Number       Type             X           Y           Z
 ---------------------------------------------------------------------
      1          8           0       -0.016637    2.250274    0.000000
      2          1           0       -0.013650    1.267678    0.000000
      3          1           0        0.911883    2.571764    0.000000
      4          8           0       -0.016637   -2.086889    0.000000
      5          1           0       -0.996935   -2.154134    0.000000
      6          1           0        0.364894   -2.992395    0.000000
 ---------------------------------------------------------------------

 SCF Done:  E(RHF) =  -33.6555459519     A.U. after   11 cycles
 E2 =    -0.2283165594D+00 EUMP2 =    -0.33883862511389D+02
 CCSD(T)
 CCSD(T)= -0.33900771240D+02

 The electronic state is 1-A'.
 Alpha  occ. eigenvalues --   -1.36747  -1.34182  -0.72401  -0.69828  -0.56698
 Alpha  occ. eigenvalues --   -0.54029  -0.51370  -0.48815
 Alpha virt. eigenvalues --    0.18482   0.22362   0.29438   0.32337   0.79189
 Alpha virt. eigenvalues --    0.81678   0.82633   0.84384   0.85792   0.87764
 Alpha virt. eigenvalues --    1.16231   1.19272   1.20702   1.26755   2.56066

 Mulliken charges:
               1
     1  O   -0.756151
     2  H    0.386412
     3  H    0.368901
     4  O   -0.754046
     5  H    0.376877
     6  H    0.378008
 Sum of Mulliken charges =   0.00000

 Dipole moment (field-independent basis, Debye):
    X=              0.7562    Y=             -3.9055    Z=              0.0000  Tot=              3.9781
 Quadrupole moment (field-independent basis, Debye-Ang):
   XX=             -9.7656   YY=             -7.5248   ZZ=            -14.9957
   XY=              7.8737   XZ=              0.0000   YZ=              0.0000

 05\MP4DQ=-33.8951252\MP4SDQ=-33.8971645\CCSD=-33.8982025\CCSD(T)=-33.9
 Normal termination of Gaussian 16 at Sun Dec 10 06:25:09 2023.
