 Gaussian 16, Revision A.03,
 Gaussian 16:  ES64L-G16RevA.03 25-Dec-2016

 ------------------
 #p CCSD(T)/CEP-31G
 ------------------

 ------------
 H2O_H2O_1034
 ------------
 Symbolic Z-matrix:
 Charge =  0 Multiplicity = 1

                         Standard orientation:
 ---------------------------------------------------------------------
 Center     Atomic      Atomic             Coordinates (Angstroms)
 Number     Number       Type             X           Y           Z
 ---------------------------------------------------------------------
      1          8           0        0.066811    1.517584    0.000000
      2          1           0        0.065257    0.534983    0.000000
      3          1           0       -0.862178    1.837719    0.000000
      4          8           0        0.066811   -1.344557    0.000000
      5          1           0        0.611423   -2.162422    0.000000
      6          1           0       -0.883473   -1.594492    0.000000
 ---------------------------------------------------------------------

 SCF Done:  E(RHF) =  -33.6603049771     A.U. after   11 cycles
 E2 =    -0.2290755682D+00 EUMP2 =    -0.33889380545257D+02
 CCSD(T)
 CCSD(T)= -0.33905969057D+02

 The electronic state is 1-A'.
 Alpha  occ. eigenvalues --   -1.38961  -1.31620  -0.74697  -0.68302  -0.59150
 Alpha  occ. eigenvalues --   -0.53632  -0.51141  -0.46211
 Alpha virt. eigenvalues --    0.17362   0.26162   0.27792   0.44416   0.75548
 Alpha virt. eigenvalues --    0.77981   0.85303   0.86127   0.94077   1.06159
 Alpha virt. eigenvalues --    1.15642   1.18112   1.22024   1.36136   2.52547

 Mulliken charges:
               1
     1  O   -0.774925
     2  H    0.428293
     3  H    0.344005
     4  O   -0.804707
     5  H    0.421322
     6  H    0.386012
 Sum of Mulliken charges =   0.00000

 Dipole moment (field-independent basis, Debye):
    X=             -2.9186    Y=             -4.5600    Z=              0.0000  Tot=              5.4140
 Quadrupole moment (field-independent basis, Debye-Ang):
   XX=             -9.8895   YY=             -8.7744   ZZ=            -15.0107
   XY=             -3.7626   XZ=              0.0000   YZ=              0.0000

 083\MP4DQ=-33.9000884\MP4SDQ=-33.9022336\CCSD=-33.9031869\CCSD(T)=-33.
 Normal termination of Gaussian 16 at Sun Dec 10 06:37:57 2023.
