 Gaussian 16, Revision A.03,
 Gaussian 16:  ES64L-G16RevA.03 25-Dec-2016

 ------------------
 #p CCSD(T)/CEP-31G
 ------------------

 ------------
 H2O_H2O_1233
 ------------
 Symbolic Z-matrix:
 Charge =  0 Multiplicity = 1

                         Standard orientation:
 ---------------------------------------------------------------------
 Center     Atomic      Atomic             Coordinates (Angstroms)
 Number     Number       Type             X           Y           Z
 ---------------------------------------------------------------------
      1          8           0        0.070235    1.595814   -0.000000
      2          1           0        0.068957    0.613213   -0.000000
      3          1           0       -0.858843    1.915689   -0.000000
      4          8           0        0.070235   -1.425629    0.000000
      5          1           0        0.560430   -2.277226    0.000000
      6          1           0       -0.894307   -1.613148    0.000000
 ---------------------------------------------------------------------

 SCF Done:  E(RHF) =  -33.6595562790     A.U. after   11 cycles
 E2 =    -0.2290029792D+00 EUMP2 =    -0.33888559258147D+02
 CCSD(T)
 CCSD(T)= -0.33905327472D+02

 The electronic state is 1-A'.
 Alpha  occ. eigenvalues --   -1.38498  -1.32236  -0.74256  -0.68294  -0.58821
 Alpha  occ. eigenvalues --   -0.53153  -0.51866  -0.46841
 Alpha virt. eigenvalues --    0.17427   0.25558   0.28049   0.41457   0.76229
 Alpha virt. eigenvalues --    0.79341   0.85107   0.85362   0.92409   1.06003
 Alpha virt. eigenvalues --    1.15153   1.18109   1.21640   1.36363   2.50467

 Mulliken charges:
               1
     1  O   -0.772950
     2  H    0.422573
     3  H    0.348023
     4  O   -0.790508
     5  H    0.412355
     6  H    0.380507
 Sum of Mulliken charges =   0.00000

 Dipole moment (field-independent basis, Debye):
    X=             -3.1029    Y=             -4.4051    Z=              0.0000  Tot=              5.3882
 Quadrupole moment (field-independent basis, Debye-Ang):
   XX=            -10.0334   YY=             -8.5591   ZZ=            -15.0064
   XY=             -3.7188   XZ=              0.0000   YZ=             -0.0000

 7806\MP4DQ=-33.8994785\MP4SDQ=-33.9016129\CCSD=-33.9025981\CCSD(T)=-33
 Normal termination of Gaussian 16 at Sun Dec 10 06:41:47 2023.
