 Gaussian 16, Revision A.03,
 Gaussian 16:  ES64L-G16RevA.03 25-Dec-2016

 ------------------
 #p CCSD(T)/CEP-31G
 ------------------

 ------------
 H2O_H2O_4635
 ------------
 Symbolic Z-matrix:
 Charge =  0 Multiplicity = 1

                         Standard orientation:
 ---------------------------------------------------------------------
 Center     Atomic      Atomic             Coordinates (Angstroms)
 Number     Number       Type             X           Y           Z
 ---------------------------------------------------------------------
      1          8           0        0.063215    2.954901   -0.000000
      2          1           0        0.062335    1.972300   -0.000000
      3          1           0       -0.865992    3.274399   -0.000000
      4          8           0        0.063215   -2.779363    0.000000
      5          1           0        0.660688   -3.559448    0.000000
      6          1           0       -0.868474   -3.091553    0.000000
 ---------------------------------------------------------------------

 SCF Done:  E(RHF) =  -33.6529572873     A.U. after   11 cycles
 E2 =    -0.2283160775D+00 EUMP2 =    -0.33881273364785D+02
 CCSD(T)
 CCSD(T)= -0.33898240497D+02

 The electronic state is 1-A'.
 Alpha  occ. eigenvalues --   -1.36242  -1.34758  -0.71882  -0.70384  -0.56044
 Alpha  occ. eigenvalues --   -0.54528  -0.50830  -0.49347
 Alpha virt. eigenvalues --    0.19582   0.21124   0.29840   0.31399   0.79724
 Alpha virt. eigenvalues --    0.81177   0.82614   0.84175   0.85768   0.87309
 Alpha virt. eigenvalues --    1.16711   1.18193   1.21155   1.22699   2.56692

 Mulliken charges:
               1
     1  O   -0.745698
     2  H    0.377973
     3  H    0.367719
     4  O   -0.745419
     5  H    0.374419
     6  H    0.371006
 Sum of Mulliken charges =   0.00000

 Dipole moment (field-independent basis, Debye):
    X=             -2.9058    Y=             -4.1152    Z=              0.0000  Tot=              5.0377
 Quadrupole moment (field-independent basis, Debye-Ang):
   XX=             -9.7751   YY=             -5.4304   ZZ=            -14.9909
   XY=             -5.8596   XZ=              0.0000   YZ=             -0.0000

 8589\MP4DQ=-33.8926046\MP4SDQ=-33.8946293\CCSD=-33.8956823\CCSD(T)=-33
 Normal termination of Gaussian 16 at Sun Dec 10 06:56:26 2023.
