 Gaussian 16, Revision A.03,
 Gaussian 16:  ES64L-G16RevA.03 25-Dec-2016

 ------------------
 #p CCSD(T)/CEP-31G
 ------------------

 -----------
 H2O_H2O_458
 -----------
 Symbolic Z-matrix:
 Charge =  0 Multiplicity = 1

                         Standard orientation:
 ---------------------------------------------------------------------
 Center     Atomic      Atomic             Coordinates (Angstroms)
 Number     Number       Type             X           Y           Z
 ---------------------------------------------------------------------
      1          8           0        0.070264    1.286661   -0.000000
      2          1           0        0.068657    0.304060   -0.000000
      3          1           0       -0.858707    1.606847   -0.000000
      4          8           0        0.070264   -1.116524    0.000000
      5          1           0        0.560172   -1.968284    0.000000
      6          1           0       -0.894342   -1.303720   -0.000000
 ---------------------------------------------------------------------

 SCF Done:  E(RHF) =  -33.6456391780     A.U. after   11 cycles
 E2 =    -0.2287810471D+00 EUMP2 =    -0.33874420225069D+02
 CCSD(T)
 CCSD(T)= -0.33890150610D+02

 The electronic state is 1-A'.
 Alpha  occ. eigenvalues --   -1.41694  -1.29660  -0.77720  -0.71206  -0.58052
 Alpha  occ. eigenvalues --   -0.55991  -0.48348  -0.44015
 Alpha virt. eigenvalues --    0.16680   0.25848   0.28421   0.55013   0.73744
 Alpha virt. eigenvalues --    0.75135   0.85915   0.89236   0.96548   1.06434
 Alpha virt. eigenvalues --    1.15000   1.21069   1.23923   1.35532   2.75104

 Mulliken charges:
               1
     1  O   -0.749185
     2  H    0.396975
     3  H    0.323255
     4  O   -0.834223
     5  H    0.463312
     6  H    0.399865
 Sum of Mulliken charges =  -0.00000

 Dipole moment (field-independent basis, Debye):
    X=             -2.9386    Y=             -4.9381    Z=             -0.0000  Tot=              5.7463
 Quadrupole moment (field-independent basis, Debye-Ang):
   XX=            -10.0082   YY=             -9.7395   ZZ=            -14.9916
   XY=             -3.3608   XZ=              0.0000   YZ=             -0.0000

 4\MP4DQ=-33.8840748\MP4SDQ=-33.8863436\CCSD=-33.8871374\CCSD(T)=-33.89
 Normal termination of Gaussian 16 at Sun Dec 10 06:27:07 2023.
