 Gaussian 16, Revision A.03,
 Gaussian 16:  ES64L-G16RevA.03 25-Dec-2016

 ------------------
 #p CCSD(T)/CEP-31G
 ------------------

 -----------
 H2O_H2O_821
 -----------
 Symbolic Z-matrix:
 Charge =  0 Multiplicity = 1

                         Standard orientation:
 ---------------------------------------------------------------------
 Center     Atomic      Atomic             Coordinates (Angstroms)
 Number     Number       Type             X           Y           Z
 ---------------------------------------------------------------------
      1          8           0       -0.023365    1.426368    0.000000
      2          1           0       -0.018952    0.443776    0.000000
      3          1           0        0.904687    1.749205    0.000000
      4          8           0       -0.023365   -1.256067    0.000000
      5          1           0       -0.986216   -1.452088    0.000000
      6          1           0        0.474323   -2.103304    0.000000
 ---------------------------------------------------------------------

 SCF Done:  E(RHF) =  -33.6611711843     A.U. after   11 cycles
 E2 =    -0.2286907514D+00 EUMP2 =    -0.33889861935778D+02
 CCSD(T)
 CCSD(T)= -0.33906149619D+02

 The electronic state is 1-A'.
 Alpha  occ. eigenvalues --   -1.39575  -1.30732  -0.75418  -0.68554  -0.59479
 Alpha  occ. eigenvalues --   -0.54245  -0.50093  -0.45367
 Alpha virt. eigenvalues --    0.17518   0.27073   0.27597   0.48273   0.74833
 Alpha virt. eigenvalues --    0.76712   0.86385   0.87379   0.93303   1.05341
 Alpha virt. eigenvalues --    1.16090   1.19907   1.24169   1.37178   2.57769

 Mulliken charges:
               1
     1  O   -0.781449
     2  H    0.418902
     3  H    0.351807
     4  O   -0.824954
     5  H    0.404974
     6  H    0.430720
 Sum of Mulliken charges =   0.00000

 Dipole moment (field-independent basis, Debye):
    X=              1.0414    Y=             -4.6189    Z=              0.0000  Tot=              4.7348
 Quadrupole moment (field-independent basis, Debye-Ang):
   XX=             -9.5384   YY=             -9.0959   ZZ=            -15.0172
   XY=              4.5935   XZ=              0.0000   YZ=              0.0000

 \MP4DQ=-33.9002559\MP4SDQ=-33.9024042\CCSD=-33.9033137\CCSD(T)=-33.906
 Normal termination of Gaussian 16 at Sun Dec 10 06:33:57 2023.
