 Gaussian 16, Revision A.03,
 Gaussian 16:  ES64L-G16RevA.03 25-Dec-2016

 ------------------
 #p CCSD(T)/CEP-31G
 ------------------

 ------------
 H2O_H2O_4363
 ------------
 Symbolic Z-matrix:
 Charge =  0 Multiplicity = 1

                         Standard orientation:
 ---------------------------------------------------------------------
 Center     Atomic      Atomic             Coordinates (Angstroms)
 Number     Number       Type             X           Y           Z
 ---------------------------------------------------------------------
      1          8           0        0.052273    2.847591    0.000000
      2          1           0        0.051022    1.864990    0.000000
      3          1           0       -0.876813    3.167441    0.000000
      4          8           0        0.052273   -2.667671   -0.000000
      5          1           0        0.790207   -3.316486   -0.000000
      6          1           0       -0.800792   -3.155304   -0.000000
 ---------------------------------------------------------------------

 SCF Done:  E(RHF) =  -33.6533401220     A.U. after   11 cycles
 E2 =    -0.2283010860D+00 EUMP2 =    -0.33881641207973D+02
 CCSD(T)
 CCSD(T)= -0.33898597398D+02

 The electronic state is 1-A'.
 Alpha  occ. eigenvalues --   -1.36287  -1.34626  -0.71927  -0.70253  -0.56112
 Alpha  occ. eigenvalues --   -0.54408  -0.50881  -0.49221
 Alpha virt. eigenvalues --    0.19548   0.21290   0.29817   0.31568   0.79673
 Alpha virt. eigenvalues --    0.81294   0.82513   0.84291   0.85709   0.87414
 Alpha virt. eigenvalues --    1.16682   1.18346   1.21124   1.22872   2.56648

 Mulliken charges:
               1
     1  O   -0.747183
     2  H    0.379411
     3  H    0.367752
     4  O   -0.746646
     5  H    0.374745
     6  H    0.371920
 Sum of Mulliken charges =   0.00000

 Dipole moment (field-independent basis, Debye):
    X=             -2.4000    Y=             -4.2243    Z=             -0.0000  Tot=              4.8585
 Quadrupole moment (field-independent basis, Debye-Ang):
   XX=             -9.5147   YY=             -5.2747   ZZ=            -14.9917
   XY=             -6.7004   XZ=             -0.0000   YZ=              0.0000

 67\MP4DQ=-33.892964\MP4SDQ=-33.894988\CCSD=-33.8960399\CCSD(T)=-33.898
 Normal termination of Gaussian 16 at Sun Dec 10 06:51:32 2023.
