 Gaussian 16, Revision A.03,
 Gaussian 16:  ES64L-G16RevA.03 25-Dec-2016

 ------------------
 #p CCSD(T)/CEP-31G
 ------------------

 ------------
 H2O_H2O_1163
 ------------
 Symbolic Z-matrix:
 Charge =  0 Multiplicity = 1

                         Standard orientation:
 ---------------------------------------------------------------------
 Center     Atomic      Atomic             Coordinates (Angstroms)
 Number     Number       Type             X           Y           Z
 ---------------------------------------------------------------------
      1          8           0        0.052372    1.571128   -0.000000
      2          1           0        0.050043    0.588529   -0.000000
      3          1           0       -0.876363    1.891997   -0.000000
      4          8           0        0.052372   -1.391323    0.000000
      5          1           0        0.789593   -2.040947    0.000000
      6          1           0       -0.801228   -1.878020    0.000000
 ---------------------------------------------------------------------

 SCF Done:  E(RHF) =  -33.6624171905     A.U. after   11 cycles
 E2 =    -0.2290631413D+00 EUMP2 =    -0.33891480331854D+02
 CCSD(T)
 CCSD(T)= -0.33908064222D+02

 The electronic state is 1-A'.
 Alpha  occ. eigenvalues --   -1.38588  -1.31595  -0.74195  -0.68075  -0.59072
 Alpha  occ. eigenvalues --   -0.53313  -0.51229  -0.46239
 Alpha virt. eigenvalues --    0.17673   0.26059   0.28151   0.43118   0.76045
 Alpha virt. eigenvalues --    0.78352   0.85639   0.85725   0.94070   1.00306
 Alpha virt. eigenvalues --    1.14901   1.19320   1.21819   1.34799   2.50856

 Mulliken charges:
               1
     1  O   -0.783511
     2  H    0.433509
     3  H    0.348989
     4  O   -0.798905
     5  H    0.407682
     6  H    0.392235
 Sum of Mulliken charges =   0.00000

 Dipole moment (field-independent basis, Debye):
    X=             -2.3031    Y=             -4.6548    Z=              0.0000  Tot=              5.1934
 Quadrupole moment (field-independent basis, Debye-Ang):
   XX=             -9.4818   YY=             -8.5385   ZZ=            -15.0143
   XY=             -4.2668   XZ=              0.0000   YZ=             -0.0000

 5467\MP4DQ=-33.9022378\MP4SDQ=-33.9043457\CCSD=-33.9053095\CCSD(T)=-33
 Normal termination of Gaussian 16 at Sun Dec 10 06:40:24 2023.
