 Gaussian 16, Revision A.03,
 Gaussian 16:  ES64L-G16RevA.03 25-Dec-2016

 ------------------
 #p CCSD(T)/CEP-31G
 ------------------

 ------------
 H2O_H2O_3372
 ------------
 Symbolic Z-matrix:
 Charge =  0 Multiplicity = 1

                         Standard orientation:
 ---------------------------------------------------------------------
 Center     Atomic      Atomic             Coordinates (Angstroms)
 Number     Number       Type             X           Y           Z
 ---------------------------------------------------------------------
      1          8           0       -0.019852    2.441761    0.000000
      2          1           0       -0.017222    1.459163    0.000000
      3          1           0        0.908785    2.762914    0.000000
      4          8           0       -0.019852   -2.274653    0.000000
      5          1           0       -0.993701   -2.405515    0.000000
      6          1           0        0.419765   -3.153426    0.000000
 ---------------------------------------------------------------------

 SCF Done:  E(RHF) =  -33.6546915063     A.U. after   11 cycles
 E2 =    -0.2282788798D+00 EUMP2 =    -0.33882970386100D+02
 CCSD(T)
 CCSD(T)= -0.33899892291D+02

 The electronic state is 1-A'.
 Alpha  occ. eigenvalues --   -1.36546  -1.34377  -0.72193  -0.70017  -0.56446
 Alpha  occ. eigenvalues --   -0.54204  -0.51159  -0.48997
 Alpha virt. eigenvalues --    0.19030   0.21825   0.29593   0.31969   0.79404
 Alpha virt. eigenvalues --    0.81496   0.82236   0.84398   0.85491   0.87640
 Alpha virt. eigenvalues --    1.16454   1.18825   1.20849   1.24278   2.56435

 Mulliken charges:
               1
     1  O   -0.752479
     2  H    0.383175
     3  H    0.368979
     4  O   -0.751297
     5  H    0.375643
     6  H    0.375979
 Sum of Mulliken charges =  -0.00000

 Dipole moment (field-independent basis, Debye):
    X=              0.9064    Y=             -3.9602    Z=              0.0000  Tot=              4.0626
 Quadrupole moment (field-independent basis, Debye-Ang):
   XX=             -9.6756   YY=             -6.9990   ZZ=            -14.9943
   XY=              8.2762   XZ=              0.0000   YZ=              0.0000

 063\MP4DQ=-33.894259\MP4SDQ=-33.8962871\CCSD=-33.897332\CCSD(T)=-33.89
 Normal termination of Gaussian 16 at Sun Dec 10 06:33:44 2023.
