 Gaussian 16, Revision A.03,
 Gaussian 16:  ES64L-G16RevA.03 25-Dec-2016

 ------------------
 #p CCSD(T)/CEP-31G
 ------------------

 -----------
 H2O_H2O_102
 -----------
 Symbolic Z-matrix:
 Charge =  0 Multiplicity = 1

                         Standard orientation:
 ---------------------------------------------------------------------
 Center     Atomic      Atomic             Coordinates (Angstroms)
 Number     Number       Type             X           Y           Z
 ---------------------------------------------------------------------
      1          8           0        0.088246   -1.133006    0.000000
      2          1           0        0.087869   -0.150404    0.000000
      3          1           0       -0.841124   -1.452029    0.000000
      4          8           0        0.088246    0.988722    0.000000
      5          1           0        0.216128    1.962967    0.000000
      6          1           0       -0.874814    0.793735    0.000000
 ---------------------------------------------------------------------

 SCF Done:  E(RHF) =  -33.5793157518     A.U. after   11 cycles
 E2 =    -0.2282248473D+00 EUMP2 =    -0.33807540599131D+02
 CCSD(T)
 CCSD(T)= -0.33822902445D+02

 The electronic state is 1-A'.
 Alpha  occ. eigenvalues --   -1.46750  -1.29202  -0.84847  -0.71941  -0.58720
 Alpha  occ. eigenvalues --   -0.56294  -0.46978  -0.43228
 Alpha virt. eigenvalues --    0.15934   0.22907   0.29972   0.60105   0.72978
 Alpha virt. eigenvalues --    0.75591   0.89682   0.90318   0.96789   1.09684
 Alpha virt. eigenvalues --    1.10963   1.21254   1.27109   1.49263   2.99710

 Mulliken charges:
               1
     1  O   -0.666769
     2  H    0.209306
     3  H    0.303476
     4  O   -0.731908
     5  H    0.498226
     6  H    0.387670
 Sum of Mulliken charges =  -0.00000

 Dipole moment (field-independent basis, Debye):
    X=             -3.6353    Y=              4.8319    Z=              0.0000  Tot=              6.0467
 Quadrupole moment (field-independent basis, Debye-Ang):
   XX=            -10.9966   YY=            -10.4724   ZZ=            -14.8897
   XY=              2.3998   XZ=              0.0000   YZ=              0.0000

 61\MP4DQ=-33.8164296\MP4SDQ=-33.8190121\CCSD=-33.8196539\CCSD(T)=-33.8
 Normal termination of Gaussian 16 at Sun Dec 10 06:20:03 2023.
