 Gaussian 16, Revision A.03,
 Gaussian 16:  ES64L-G16RevA.03 25-Dec-2016

 ------------------
 #p CCSD(T)/CEP-31G
 ------------------

 ------------
 H2O_H2O_4029
 ------------
 Symbolic Z-matrix:
 Charge =  0 Multiplicity = 1

                         Standard orientation:
 ---------------------------------------------------------------------
 Center     Atomic      Atomic             Coordinates (Angstroms)
 Number     Number       Type             X           Y           Z
 ---------------------------------------------------------------------
      1          8           0        0.082800    2.704161    0.000000
      2          1           0        0.082472    1.721560    0.000000
      3          1           0       -0.846587    3.023137    0.000000
      4          8           0        0.082800   -2.549635   -0.000000
      5          1           0        0.336799   -3.498839   -0.000000
      6          1           0       -0.897476   -2.482069   -0.000000
 ---------------------------------------------------------------------

 SCF Done:  E(RHF) =  -33.6526316661     A.U. after   11 cycles
 E2 =    -0.2283374469D+00 EUMP2 =    -0.33880969112938D+02
 CCSD(T)
 CCSD(T)= -0.33897946567D+02

 The electronic state is 1-A'.
 Alpha  occ. eigenvalues --   -1.36397  -1.34856  -0.72046  -0.70471  -0.56184
 Alpha  occ. eigenvalues --   -0.54608  -0.50979  -0.49436
 Alpha virt. eigenvalues --    0.19280   0.21105   0.29660   0.31297   0.79586
 Alpha virt. eigenvalues --    0.81093   0.82466   0.84106   0.85572   0.87325
 Alpha virt. eigenvalues --    1.16525   1.18116   1.20976   1.22753   2.56436

 Mulliken charges:
               1
     1  O   -0.744483
     2  H    0.377974
     3  H    0.366471
     4  O   -0.744683
     5  H    0.375641
     6  H    0.369081
 Sum of Mulliken charges =   0.00000

 Dipole moment (field-independent basis, Debye):
    X=             -3.8020    Y=             -3.6400    Z=             -0.0000  Tot=              5.2636
 Quadrupole moment (field-independent basis, Debye-Ang):
   XX=            -10.6396   YY=             -7.6674   ZZ=            -14.9899
   XY=             -3.6022   XZ=             -0.0000   YZ=              0.0000

 626\MP4DQ=-33.8923063\MP4SDQ=-33.8943329\CCSD=-33.8953856\CCSD(T)=-33.
 Normal termination of Gaussian 16 at Sun Dec 10 06:45:31 2023.
