 Gaussian 16, Revision A.03,
 Gaussian 16:  ES64L-G16RevA.03 25-Dec-2016

 ------------------
 #p CCSD(T)/CEP-31G
 ------------------

 -----------
 H2O_H2O_280
 -----------
 Symbolic Z-matrix:
 Charge =  0 Multiplicity = 1

                         Standard orientation:
 ---------------------------------------------------------------------
 Center     Atomic      Atomic             Coordinates (Angstroms)
 Number     Number       Type             X           Y           Z
 ---------------------------------------------------------------------
      1          8           0        0.079892   -1.210795    0.000000
      2          1           0        0.078909   -0.228194    0.000000
      3          1           0       -0.849282   -1.530391    0.000000
      4          8           0        0.079892    1.051814    0.000000
      5          1           0        0.394808    1.982584    0.000000
      6          1           0       -0.902702    1.047852    0.000000
 ---------------------------------------------------------------------

 SCF Done:  E(RHF) =  -33.6231840595     A.U. after   11 cycles
 E2 =    -0.2283851906D+00 EUMP2 =    -0.33851569250187D+02
 CCSD(T)
 CCSD(T)= -0.33867131676D+02

 The electronic state is 1-A'.
 Alpha  occ. eigenvalues --   -1.43610  -1.29405  -0.80722  -0.71753  -0.57217
 Alpha  occ. eigenvalues --   -0.57176  -0.47682  -0.43595
 Alpha virt. eigenvalues --    0.16266   0.24482   0.29149   0.57949   0.73316
 Alpha virt. eigenvalues --    0.75367   0.87360   0.89868   0.96922   1.08133
 Alpha virt. eigenvalues --    1.13414   1.23684   1.25286   1.39172   2.88777

 Mulliken charges:
               1
     1  O   -0.713907
     2  H    0.331484
     3  H    0.313751
     4  O   -0.813021
     5  H    0.486190
     6  H    0.395504
 Sum of Mulliken charges =  -0.00000

 Dipole moment (field-independent basis, Debye):
    X=             -3.3113    Y=              4.9070    Z=              0.0000  Tot=              5.9198
 Quadrupole moment (field-independent basis, Debye-Ang):
   XX=            -10.4933   YY=            -10.0469   ZZ=            -14.9539
   XY=              2.9291   XZ=              0.0000   YZ=              0.0000

 9\MP4DQ=-33.8608997\MP4SDQ=-33.8632929\CCSD=-33.864033\CCSD(T)=-33.867
 Normal termination of Gaussian 16 at Sun Dec 10 06:23:34 2023.
