 Gaussian 16, Revision A.03,
 Gaussian 16:  ES64L-G16RevA.03 25-Dec-2016

 ------------------
 #p CCSD(T)/CEP-31G
 ------------------

 ------------
 H2O_H2O_3038
 ------------
 Symbolic Z-matrix:
 Charge =  0 Multiplicity = 1

                         Standard orientation:
 ---------------------------------------------------------------------
 Center     Atomic      Atomic             Coordinates (Angstroms)
 Number     Number       Type             X           Y           Z
 ---------------------------------------------------------------------
      1          8           0        0.052301    2.319063    0.000000
      2          1           0        0.050753    1.336463    0.000000
      3          1           0       -0.876689    2.639194    0.000000
      4          8           0        0.052301   -2.139175   -0.000000
      5          1           0        0.790038   -2.788212   -0.000000
      6          1           0       -0.800912   -2.626549   -0.000000
 ---------------------------------------------------------------------

 SCF Done:  E(RHF) =  -33.6550744756     A.U. after   11 cycles
 E2 =    -0.2283317379D+00 EUMP2 =    -0.33883406213520D+02
 CCSD(T)
 CCSD(T)= -0.33900318518D+02

 The electronic state is 1-A'.
 Alpha  occ. eigenvalues --   -1.36707  -1.34036  -0.72354  -0.69653  -0.56636
 Alpha  occ. eigenvalues --   -0.53853  -0.51326  -0.48653
 Alpha virt. eigenvalues --    0.18859   0.22239   0.29485   0.32363   0.79244
 Alpha virt. eigenvalues --    0.81832   0.82558   0.84790   0.85258   0.88031
 Alpha virt. eigenvalues --    1.16329   1.19240   1.20751   1.25446   2.56002

 Mulliken charges:
               1
     1  O   -0.754058
     2  H    0.388258
     3  H    0.365023
     4  O   -0.751859
     5  H    0.378679
     6  H    0.373957
 Sum of Mulliken charges =   0.00000

 Dipole moment (field-independent basis, Debye):
    X=             -2.3852    Y=             -4.2962    Z=             -0.0000  Tot=              4.9139
 Quadrupole moment (field-independent basis, Debye-Ang):
   XX=             -9.5126   YY=             -6.4628   ZZ=            -14.9952
   XY=             -5.6999   XZ=             -0.0000   YZ=              0.0000

 238\MP4DQ=-33.8946771\MP4SDQ=-33.8967134\CCSD=-33.8977532\CCSD(T)=-33.
 Normal termination of Gaussian 16 at Sun Dec 10 06:27:44 2023.
