 Gaussian 16, Revision A.03,
 Gaussian 16:  ES64L-G16RevA.03 25-Dec-2016

 ------------------
 #p CCSD(T)/CEP-31G
 ------------------

 ------------
 H2O_H2O_4436
 ------------
 Symbolic Z-matrix:
 Charge =  0 Multiplicity = 1

                         Standard orientation:
 ---------------------------------------------------------------------
 Center     Atomic      Atomic             Coordinates (Angstroms)
 Number     Number       Type             X           Y           Z
 ---------------------------------------------------------------------
      1          8           0        0.059620    2.876177    0.000000
      2          1           0        0.058605    1.893576    0.000000
      3          1           0       -0.869544    3.195803   -0.000000
      4          8           0        0.059620   -2.698704    0.000000
      5          1           0        0.706732   -3.438130    0.000000
      6          1           0       -0.849706   -3.071036   -0.000000
 ---------------------------------------------------------------------

 SCF Done:  E(RHF) =  -33.6531520222     A.U. after   11 cycles
 E2 =    -0.2283087786D+00 EUMP2 =    -0.33881460800819D+02
 CCSD(T)
 CCSD(T)= -0.33898422334D+02

 The electronic state is 1-A'.
 Alpha  occ. eigenvalues --   -1.36277  -1.34681  -0.71918  -0.70306  -0.56091
 Alpha  occ. eigenvalues --   -0.54456  -0.50869  -0.49273
 Alpha virt. eigenvalues --    0.19549   0.21221   0.29815   0.31499   0.79686
 Alpha virt. eigenvalues --    0.81246   0.82548   0.84245   0.85723   0.87378
 Alpha virt. eigenvalues --    1.16684   1.18281   1.21125   1.22804   2.56656

 Mulliken charges:
               1
     1  O   -0.746458
     2  H    0.378874
     3  H    0.367570
     4  O   -0.746066
     5  H    0.374723
     6  H    0.371358
 Sum of Mulliken charges =  -0.00000

 Dipole moment (field-independent basis, Debye):
    X=             -2.7386    Y=             -4.1655    Z=             -0.0000  Tot=              4.9850
 Quadrupole moment (field-independent basis, Debye-Ang):
   XX=             -9.6721   YY=             -5.4223   ZZ=            -14.9913
   XY=             -6.0874   XZ=              0.0000   YZ=             -0.0000

 412\MP4DQ=-33.8927877\MP4SDQ=-33.894812\CCSD=-33.8958644\CCSD(T)=-33.8
 Normal termination of Gaussian 16 at Sun Dec 10 06:52:50 2023.
