 Gaussian 16, Revision A.03,
 Gaussian 16:  ES64L-G16RevA.03 25-Dec-2016

 ------------------
 #p CCSD(T)/CEP-31G
 ------------------

 ----------
 H2O_H2O_42
 ----------
 Symbolic Z-matrix:
 Charge =  0 Multiplicity = 1

                         Standard orientation:
 ---------------------------------------------------------------------
 Center     Atomic      Atomic             Coordinates (Angstroms)
 Number     Number       Type             X           Y           Z
 ---------------------------------------------------------------------
      1          8           0        0.037672    1.121843    0.000000
      2          1           0        0.033109    0.139252    0.000000
      3          1           0       -0.890331    1.444822   -0.000000
      4          8           0        0.037672   -0.943068    0.000000
      5          1           0        0.916913   -1.381750    0.000000
      6          1           0       -0.662445   -1.632519   -0.000000
 ---------------------------------------------------------------------

 SCF Done:  E(RHF) =  -33.5893531283     A.U. after   11 cycles
 E2 =    -0.2270441975D+00 EUMP2 =    -0.33816397325774D+02
 CCSD(T)
 CCSD(T)= -0.33830791813D+02

 The electronic state is 1-A'.
 Alpha  occ. eigenvalues --   -1.46639  -1.26222  -0.81631  -0.78527  -0.59504
 Alpha  occ. eigenvalues --   -0.54062  -0.42727  -0.40067
 Alpha virt. eigenvalues --    0.16223   0.24761   0.30655   0.62609   0.73210
 Alpha virt. eigenvalues --    0.73613   0.85148   0.91890   0.92344   1.06092
 Alpha virt. eigenvalues --    1.13029   1.17287   1.31217   1.37540   2.97544

 Mulliken charges:
               1
     1  O   -0.746257
     2  H    0.273078
     3  H    0.305245
     4  O   -0.751283
     5  H    0.454588
     6  H    0.464628
 Sum of Mulliken charges =   0.00000

 Dipole moment (field-independent basis, Debye):
    X=             -1.5327    Y=             -5.8361    Z=             -0.0000  Tot=              6.0340
 Quadrupole moment (field-independent basis, Debye-Ang):
   XX=             -9.2485   YY=            -10.8383   ZZ=            -14.9144
   XY=             -3.2901   XZ=              0.0000   YZ=             -0.0000

 03\MP4DQ=-33.824592\MP4SDQ=-33.8269573\CCSD=-33.827521\CCSD(T)=-33.830
 Normal termination of Gaussian 16 at Sun Dec 10 06:18:51 2023.
