 Gaussian 16, Revision A.03,
 Gaussian 16:  ES64L-G16RevA.03 25-Dec-2016

 ------------------
 #p CCSD(T)/CEP-31G
 ------------------

 ------------
 H2O_H2O_1929
 ------------
 Symbolic Z-matrix:
 Charge =  0 Multiplicity = 1

                         Standard orientation:
 ---------------------------------------------------------------------
 Center     Atomic      Atomic             Coordinates (Angstroms)
 Number     Number       Type             X           Y           Z
 ---------------------------------------------------------------------
      1          8           0        0.082812   -1.866505    0.000000
      2          1           0        0.082330   -0.883904    0.000000
      3          1           0       -0.846525   -2.185627    0.000000
      4          8           0        0.082812    1.712005    0.000000
      5          1           0        0.336663    2.661250    0.000000
      6          1           0       -0.897454    1.644287    0.000000
 ---------------------------------------------------------------------

 SCF Done:  E(RHF) =  -33.6551880465     A.U. after   11 cycles
 E2 =    -0.2287437047D+00 EUMP2 =    -0.33883931751182D+02
 CCSD(T)
 CCSD(T)= -0.33900923185D+02

 The electronic state is 1-A'.
 Alpha  occ. eigenvalues --   -1.37531  -1.33835  -0.73272  -0.69401  -0.57524
 Alpha  occ. eigenvalues --   -0.53570  -0.52129  -0.48423
 Alpha virt. eigenvalues --    0.17247   0.23742   0.28699   0.34687   0.78090
 Alpha virt. eigenvalues --    0.82431   0.82501   0.84964   0.88655   0.94301
 Alpha virt. eigenvalues --    1.15303   1.18943   1.20720   1.36534   2.52790

 Mulliken charges:
               1
     1  O   -0.757195
     2  H    0.397465
     3  H    0.357313
     4  O   -0.756961
     5  H    0.389672
     6  H    0.369707
 Sum of Mulliken charges =   0.00000

 Dipole moment (field-independent basis, Debye):
    X=             -3.7452    Y=              3.8259    Z=              0.0000  Tot=              5.3539
 Quadrupole moment (field-independent basis, Debye-Ang):
   XX=            -10.6637   YY=             -8.5240   ZZ=            -14.9936
   XY=              3.1897   XZ=              0.0000   YZ=              0.0000

 342\MP4DQ=-33.8951669\MP4SDQ=-33.8972685\CCSD=-33.8982931\CCSD(T)=-33.
 Normal termination of Gaussian 16 at Sun Dec 10 06:55:17 2023.
