 Gaussian 16, Revision A.03,
 Gaussian 16:  ES64L-G16RevA.03 25-Dec-2016

 ------------------
 #p CCSD(T)/CEP-31G
 ------------------

 ------------
 H2O_H2O_3624
 ------------
 Symbolic Z-matrix:
 Charge =  0 Multiplicity = 1

                         Standard orientation:
 ---------------------------------------------------------------------
 Center     Atomic      Atomic             Coordinates (Angstroms)
 Number     Number       Type             X           Y           Z
 ---------------------------------------------------------------------
      1          8           0       -0.013500    2.537223    0.000000
      2          1           0       -0.010758    1.554625    0.000000
      3          1           0        0.915100    2.858482    0.000000
      4          8           0       -0.013500   -2.377955    0.000000
      5          1           0       -0.996098   -2.380697    0.000000
      6          1           0        0.307759   -3.306555    0.000000
 ---------------------------------------------------------------------

 SCF Done:  E(RHF) =  -33.6542037611     A.U. after   11 cycles
 E2 =    -0.2282722036D+00 EUMP2 =    -0.33882475964706D+02
 CCSD(T)
 CCSD(T)= -0.33899411314D+02

 The electronic state is 1-A'.
 Alpha  occ. eigenvalues --   -1.36461  -1.34590  -0.72108  -0.70233  -0.56331
 Alpha  occ. eigenvalues --   -0.54407  -0.51066  -0.49203
 Alpha virt. eigenvalues --    0.19155   0.21545   0.29672   0.31687   0.79493
 Alpha virt. eigenvalues --    0.81300   0.82261   0.84243   0.85487   0.87445
 Alpha virt. eigenvalues --    1.16511   1.18540   1.20939   1.23523   2.56445

 Mulliken charges:
               1
     1  O   -0.750553
     2  H    0.380441
     3  H    0.369960
     4  O   -0.749947
     5  H    0.374439
     6  H    0.375660
 Sum of Mulliken charges =  -0.00000

 Dipole moment (field-independent basis, Debye):
    X=              0.6176    Y=             -3.7595    Z=              0.0000  Tot=              3.8098
 Quadrupole moment (field-independent basis, Debye-Ang):
   XX=             -9.8734   YY=             -7.4215   ZZ=            -14.9932
   XY=              9.1805   XZ=              0.0000   YZ=              0.0000

 1\MP4DQ=-33.8937789\MP4SDQ=-33.8958043\CCSD=-33.8968525\CCSD(T)=-33.89
 Normal termination of Gaussian 16 at Sun Dec 10 06:38:12 2023.
