 Gaussian 16, Revision A.03,
 Gaussian 16:  ES64L-G16RevA.03 25-Dec-2016

 ------------------
 #p CCSD(T)/CEP-31G
 ------------------

 ------------
 H2O_H2O_2306
 ------------
 Symbolic Z-matrix:
 Charge =  0 Multiplicity = 1

                         Standard orientation:
 ---------------------------------------------------------------------
 Center     Atomic      Atomic             Coordinates (Angstroms)
 Number     Number       Type             X           Y           Z
 ---------------------------------------------------------------------
      1          8           0        0.076767    2.020806    0.000000
      2          1           0        0.076058    1.038205    0.000000
      3          1           0       -0.852496    2.340143    0.000000
      4          8           0        0.076767   -1.857614   -0.000000
      5          1           0        0.452138   -2.765690   -0.000000
      6          1           0       -0.903966   -1.918199   -0.000000
 ---------------------------------------------------------------------

 SCF Done:  E(RHF) =  -33.6551822513     A.U. after   11 cycles
 E2 =    -0.2285511850D+00 EUMP2 =    -0.33883733436228D+02
 CCSD(T)
 CCSD(T)= -0.33900685941D+02

 The electronic state is 1-A'.
 Alpha  occ. eigenvalues --   -1.37180  -1.33913  -0.72864  -0.69498  -0.57142
 Alpha  occ. eigenvalues --   -0.53687  -0.51789  -0.48514
 Alpha virt. eigenvalues --    0.17749   0.23093   0.29009   0.33337   0.78685
 Alpha virt. eigenvalues --    0.82105   0.83182   0.84978   0.87967   0.88599
 Alpha virt. eigenvalues --    1.15698   1.19533   1.20407   1.32023   2.54178

 Mulliken charges:
               1
     1  O   -0.755911
     2  H    0.393903
     3  H    0.360223
     4  O   -0.753730
     5  H    0.384290
     6  H    0.371224
 Sum of Mulliken charges =  -0.00000

 Dipole moment (field-independent basis, Debye):
    X=             -3.4860    Y=             -3.9782    Z=             -0.0000  Tot=              5.2895
 Quadrupole moment (field-independent basis, Debye-Ang):
   XX=            -10.3310   YY=             -7.9169   ZZ=            -14.9943
   XY=             -3.7257   XZ=             -0.0000   YZ=              0.0000

 2416\MP4DQ=-33.8949856\MP4SDQ=-33.8970569\CCSD=-33.8980876\CCSD(T)=-33
 Normal termination of Gaussian 16 at Sun Dec 10 07:03:52 2023.
