 Gaussian 16, Revision A.03,
 Gaussian 16:  ES64L-G16RevA.03 25-Dec-2016

 ------------------
 #p CCSD(T)/CEP-31G
 ------------------

 ------------
 H2O_H2O_3106
 ------------
 Symbolic Z-matrix:
 Charge =  0 Multiplicity = 1

                         Standard orientation:
 ---------------------------------------------------------------------
 Center     Atomic      Atomic             Coordinates (Angstroms)
 Number     Number       Type             X           Y           Z
 ---------------------------------------------------------------------
      1          8           0        0.076758    2.339916   -0.000000
      2          1           0        0.076150    1.357314   -0.000000
      3          1           0       -0.852537    2.659158   -0.000000
      4          8           0        0.076758   -2.176707    0.000000
      5          1           0        0.452222   -3.084746    0.000000
      6          1           0       -0.903968   -2.237392    0.000000
 ---------------------------------------------------------------------

 SCF Done:  E(RHF) =  -33.6537601643     A.U. after   11 cycles
 E2 =    -0.2283661210D+00 EUMP2 =    -0.33882126285264D+02
 CCSD(T)
 CCSD(T)= -0.33899076215D+02

 The electronic state is 1-A'.
 Alpha  occ. eigenvalues --   -1.36706  -1.34406  -0.72365  -0.70008  -0.56559
 Alpha  occ. eigenvalues --   -0.54178  -0.51302  -0.48998
 Alpha virt. eigenvalues --    0.18580   0.21933   0.29363   0.31962   0.79273
 Alpha virt. eigenvalues --    0.81512   0.82419   0.84550   0.85303   0.87885
 Alpha virt. eigenvalues --    1.16212   1.18861   1.20656   1.25266   2.56238

 Mulliken charges:
               1
     1  O   -0.748994
     2  H    0.384344
     3  H    0.364120
     4  O   -0.748480
     5  H    0.378789
     6  H    0.370221
 Sum of Mulliken charges =  -0.00000

 Dipole moment (field-independent basis, Debye):
    X=             -3.5085    Y=             -3.8935    Z=             -0.0000  Tot=              5.2411
 Quadrupole moment (field-independent basis, Debye-Ang):
   XX=            -10.3239   YY=             -7.4476   ZZ=            -14.9920
   XY=             -3.9719   XZ=              0.0000   YZ=             -0.0000

 09\MP4DQ=-33.8934283\MP4SDQ=-33.8954646\CCSD=-33.8965083\CCSD(T)=-33.8
 Normal termination of Gaussian 16 at Sun Dec 10 06:28:58 2023.
