 Gaussian 16, Revision A.03,
 Gaussian 16:  ES64L-G16RevA.03 25-Dec-2016

 ------------------
 #p CCSD(T)/CEP-31G
 ------------------

 ----------
 H2O_H2O_75
 ----------
 Symbolic Z-matrix:
 Charge =  0 Multiplicity = 1

                         Standard orientation:
 ---------------------------------------------------------------------
 Center     Atomic      Atomic             Coordinates (Angstroms)
 Number     Number       Type             X           Y           Z
 ---------------------------------------------------------------------
      1          8           0        0.092949   -1.116788    0.000000
      2          1           0        0.092949   -0.134186    0.000000
      3          1           0       -0.836544   -1.435454    0.000000
      4          8           0        0.092949    0.984001    0.000000
      5          1           0        0.092949    1.966602    0.000000
      6          1           0       -0.836544    0.665333    0.000000
 ---------------------------------------------------------------------

 SCF Done:  E(RHF) =  -33.5605085977     A.U. after   11 cycles
 E2 =    -0.2287415400D+00 EUMP2 =    -0.33789250137705D+02
 CCSD(T)
 CCSD(T)= -0.33804619950D+02

 The electronic state is 1-A'.
 Alpha  occ. eigenvalues --   -1.47824  -1.29725  -0.86232  -0.71002  -0.58962
 Alpha  occ. eigenvalues --   -0.56668  -0.47514  -0.43758
 Alpha virt. eigenvalues --    0.15976   0.22495   0.30008   0.59649   0.72851
 Alpha virt. eigenvalues --    0.76183   0.90021   0.90143   0.95601   1.09896
 Alpha virt. eigenvalues --    1.11401   1.21445   1.27174   1.51391   2.93319

 Mulliken charges:
               1
     1  O   -0.645691
     2  H    0.158270
     3  H    0.303668
     4  O   -0.680014
     5  H    0.487802
     6  H    0.375966
 Sum of Mulliken charges =   0.00000

 Dipole moment (field-independent basis, Debye):
    X=             -3.8531    Y=              4.5768    Z=              0.0000  Tot=              5.9827
 Quadrupole moment (field-independent basis, Debye-Ang):
   XX=            -11.3206   YY=            -10.6660   ZZ=            -14.8655
   XY=              2.0467   XZ=              0.0000   YZ=              0.0000

 \MP4DQ=-33.7980189\MP4SDQ=-33.8006944\CCSD=-33.8012782\CCSD(T)=-33.804
 Normal termination of Gaussian 16 at Sun Dec 10 06:19:30 2023.
