 Gaussian 16, Revision A.03,
 Gaussian 16:  ES64L-G16RevA.03 25-Dec-2016

 ------------------
 #p CCSD(T)/CEP-31G
 ------------------

 ------------
 H2O_H2O_2619
 ------------
 Symbolic Z-matrix:
 Charge =  0 Multiplicity = 1

                         Standard orientation:
 ---------------------------------------------------------------------
 Center     Atomic      Atomic             Coordinates (Angstroms)
 Number     Number       Type             X           Y           Z
 ---------------------------------------------------------------------
      1          8           0        0.030210    2.147212   -0.000000
      2          1           0        0.027623    1.164614   -0.000000
      3          1           0       -0.898441    2.468324   -0.000000
      4          8           0        0.030210   -1.971619    0.000000
      5          1           0        0.959830   -2.289913    0.000000
      6          1           0       -0.572367   -2.747769    0.000000
 ---------------------------------------------------------------------

 SCF Done:  E(RHF) =  -33.6564925739     A.U. after   11 cycles
 E2 =    -0.2283725761D+00 EUMP2 =    -0.33884865150002D+02
 CCSD(T)
 CCSD(T)= -0.33901756390D+02

 The electronic state is 1-A'.
 Alpha  occ. eigenvalues --   -1.36908  -1.33772  -0.72558  -0.69408  -0.56929
 Alpha  occ. eigenvalues --   -0.53627  -0.51546  -0.48413
 Alpha virt. eigenvalues --    0.18478   0.22824   0.29352   0.32986   0.78997
 Alpha virt. eigenvalues --    0.82084   0.83430   0.84642   0.85952   0.88098
 Alpha virt. eigenvalues --    1.16156   1.19704   1.20595   1.28420   2.54971

 Mulliken charges:
               1
     1  O   -0.760207
     2  H    0.392620
     3  H    0.366111
     4  O   -0.756143
     5  H    0.379507
     6  H    0.378112
 Sum of Mulliken charges =  -0.00000

 Dipole moment (field-independent basis, Debye):
    X=             -1.3704    Y=             -4.2325    Z=              0.0000  Tot=              4.4489
 Quadrupole moment (field-independent basis, Debye-Ang):
   XX=             -9.4653   YY=             -7.0540   ZZ=            -14.9978
   XY=             -6.6141   XZ=              0.0000   YZ=             -0.0000

 421\MP4DQ=-33.8960979\MP4SDQ=-33.8981476\CCSD=-33.8991799\CCSD(T)=-33.
 Normal termination of Gaussian 16 at Sun Dec 10 06:20:09 2023.
