 Gaussian 16, Revision A.03,
 Gaussian 16:  ES64L-G16RevA.03 25-Dec-2016

 ------------------
 #p CCSD(T)/CEP-31G
 ------------------

 ------------
 H2O_H2O_3199
 ------------
 Symbolic Z-matrix:
 Charge =  0 Multiplicity = 1

                         Standard orientation:
 ---------------------------------------------------------------------
 Center     Atomic      Atomic             Coordinates (Angstroms)
 Number     Number       Type             X           Y           Z
 ---------------------------------------------------------------------
      1          8           0       -0.013517    2.367698    0.000000
      2          1           0       -0.010571    1.385101    0.000000
      3          1           0        0.915017    2.689149    0.000000
      4          8           0       -0.013517   -2.208435    0.000000
      5          1           0       -0.996114   -2.211381    0.000000
      6          1           0        0.307935   -3.136970    0.000000
 ---------------------------------------------------------------------

 SCF Done:  E(RHF) =  -33.6548504047     A.U. after   11 cycles
 E2 =    -0.2282857341D+00 EUMP2 =    -0.33883136138799D+02
 CCSD(T)
 CCSD(T)= -0.33900057295D+02

 The electronic state is 1-A'.
 Alpha  occ. eigenvalues --   -1.36611  -1.34411  -0.72263  -0.70057  -0.56518
 Alpha  occ. eigenvalues --   -0.54245  -0.51225  -0.49034
 Alpha virt. eigenvalues --    0.18734   0.21969   0.29543   0.31963   0.79338
 Alpha virt. eigenvalues --    0.81460   0.82300   0.84292   0.85529   0.87622
 Alpha virt. eigenvalues --    1.16342   1.18915   1.20804   1.24964   2.56381

 Mulliken charges:
               1
     1  O   -0.753186
     2  H    0.383044
     3  H    0.369709
     4  O   -0.752070
     5  H    0.375490
     6  H    0.377014
 Sum of Mulliken charges =  -0.00000

 Dipole moment (field-independent basis, Debye):
    X=              0.6163    Y=             -3.7827    Z=              0.0000  Tot=              3.8326
 Quadrupole moment (field-independent basis, Debye-Ang):
   XX=             -9.8709   YY=             -7.6277   ZZ=            -14.9944
   XY=              8.5571   XZ=              0.0000   YZ=              0.0000

 71\MP4DQ=-33.89442\MP4SDQ=-33.896451\CCSD=-33.8974943\CCSD(T)=-33.9000
 Normal termination of Gaussian 16 at Sun Dec 10 06:30:39 2023.
