 Gaussian 16, Revision A.03,
 Gaussian 16:  ES64L-G16RevA.03 25-Dec-2016

 ------------------
 #p CCSD(T)/CEP-31G
 ------------------

 ------------
 H2O_H2O_4995
 ------------
 Symbolic Z-matrix:
 Charge =  0 Multiplicity = 1

                         Standard orientation:
 ---------------------------------------------------------------------
 Center     Atomic      Atomic             Coordinates (Angstroms)
 Number     Number       Type             X           Y           Z
 ---------------------------------------------------------------------
      1          8           0        0.026603    3.093274   -0.000000
      2          1           0        0.024731    2.110674   -0.000000
      3          1           0       -0.902282    3.413710   -0.000000
      4          8           0        0.026603   -2.920015    0.000000
      5          1           0        0.975236   -3.176138    0.000000
      6          1           0       -0.523329   -3.734314    0.000000
 ---------------------------------------------------------------------

 SCF Done:  E(RHF) =  -33.6531198132     A.U. after   11 cycles
 E2 =    -0.2283039524D+00 EUMP2 =    -0.33881423765649D+02
 CCSD(T)
 CCSD(T)= -0.33898386973D+02

 The electronic state is 1-A'.
 Alpha  occ. eigenvalues --   -1.36166  -1.34838  -0.71804  -0.70474  -0.55975
 Alpha  occ. eigenvalues --   -0.54620  -0.50758  -0.49433
 Alpha virt. eigenvalues --    0.19678   0.21035   0.29928   0.31309   0.79792
 Alpha virt. eigenvalues --    0.81091   0.82685   0.84079   0.85846   0.87178
 Alpha virt. eigenvalues --    1.16794   1.18123   1.21239   1.22600   2.56774

 Mulliken charges:
               1
     1  O   -0.746286
     2  H    0.376729
     3  H    0.369556
     4  O   -0.745890
     5  H    0.373203
     6  H    0.372689
 Sum of Mulliken charges =  -0.00000

 Dipole moment (field-independent basis, Debye):
    X=             -1.2231    Y=             -4.0512    Z=              0.0000  Tot=              4.2318
 Quadrupole moment (field-independent basis, Debye-Ang):
   XX=             -9.5306   YY=             -5.3459   ZZ=            -14.9912
   XY=             -9.7438   XZ=              0.0000   YZ=             -0.0000

 58\MP4DQ=-33.8927524\MP4SDQ=-33.8947765\CCSD=-33.8958296\CCSD(T)=-33.8
 Normal termination of Gaussian 16 at Sun Dec 10 07:04:11 2023.
