 Gaussian 16, Revision A.03,
 Gaussian 16:  ES64L-G16RevA.03 25-Dec-2016

 ------------------
 #p CCSD(T)/CEP-31G
 ------------------

 ------------
 H2O_H2O_2369
 ------------
 Symbolic Z-matrix:
 Charge =  0 Multiplicity = 1

                         Standard orientation:
 ---------------------------------------------------------------------
 Center     Atomic      Atomic             Coordinates (Angstroms)
 Number     Number       Type             X           Y           Z
 ---------------------------------------------------------------------
      1          8           0        0.030221    2.047489   -0.000000
      2          1           0        0.027503    1.064892   -0.000000
      3          1           0       -0.898387    2.368726   -0.000000
      4          8           0        0.030221   -1.871904    0.000000
      5          1           0        0.959800   -2.190324    0.000000
      6          1           0       -0.572458   -2.647973    0.000000
 ---------------------------------------------------------------------

 SCF Done:  E(RHF) =  -33.6573101307     A.U. after   11 cycles
 E2 =    -0.2284324408D+00 EUMP2 =    -0.33885742571497D+02
 CCSD(T)
 CCSD(T)= -0.33902627344D+02

 The electronic state is 1-A'.
 Alpha  occ. eigenvalues --   -1.37068  -1.33550  -0.72720  -0.69192  -0.57157
 Alpha  occ. eigenvalues --   -0.53412  -0.51716  -0.48201
 Alpha virt. eigenvalues --    0.18299   0.23256   0.29247   0.33631   0.78774
 Alpha virt. eigenvalues --    0.82343   0.83418   0.85431   0.86715   0.88397
 Alpha virt. eigenvalues --    1.16010   1.19952   1.20503   1.30482   2.53926

 Mulliken charges:
               1
     1  O   -0.764004
     2  H    0.396832
     3  H    0.365235
     4  O   -0.758853
     5  H    0.381009
     6  H    0.379782
 Sum of Mulliken charges =  -0.00000

 Dipole moment (field-independent basis, Debye):
    X=             -1.3670    Y=             -4.2642    Z=              0.0000  Tot=              4.4780
 Quadrupole moment (field-independent basis, Debye-Ang):
   XX=             -9.4626   YY=             -7.2728   ZZ=            -14.9994
   XY=             -6.3209   XZ=              0.0000   YZ=             -0.0000

 1965\MP4DQ=-33.8969507\MP4SDQ=-33.8990108\CCSD=-33.9000392\CCSD(T)=-33
 Normal termination of Gaussian 16 at Sun Dec 10 07:05:02 2023.
