 Gaussian 16, Revision A.03,
 Gaussian 16:  ES64L-G16RevA.03 25-Dec-2016

 ------------------
 #p CCSD(T)/CEP-31G
 ------------------

 ------------
 H2O_H2O_2483
 ------------
 Symbolic Z-matrix:
 Charge =  0 Multiplicity = 1

                         Standard orientation:
 ---------------------------------------------------------------------
 Center     Atomic      Atomic             Coordinates (Angstroms)
 Number     Number       Type             X           Y           Z
 ---------------------------------------------------------------------
      1          8           0        0.070208    2.094432    0.000000
      2          1           0        0.069247    1.111832    0.000000
      3          1           0       -0.858973    2.414008   -0.000000
      4          8           0        0.070208   -1.924203    0.000000
      5          1           0        0.560677   -2.775642    0.000000
      6          1           0       -0.894274   -2.112033   -0.000000
 ---------------------------------------------------------------------

 SCF Done:  E(RHF) =  -33.6553920403     A.U. after   11 cycles
 E2 =    -0.2284728951D+00 EUMP2 =    -0.33883864935409D+02
 CCSD(T)
 CCSD(T)= -0.33900795035D+02

 The electronic state is 1-A'.
 Alpha  occ. eigenvalues --   -1.37041  -1.33873  -0.72708  -0.69469  -0.57006
 Alpha  occ. eigenvalues --   -0.53668  -0.51658  -0.48483
 Alpha virt. eigenvalues --    0.18116   0.22854   0.29138   0.33048   0.78870
 Alpha virt. eigenvalues --    0.82062   0.83469   0.85011   0.86240   0.88371
 Alpha virt. eigenvalues --    1.15924   1.19590   1.20445   1.29823   2.54606

 Mulliken charges:
               1
     1  O   -0.756199
     2  H    0.393113
     3  H    0.361497
     4  O   -0.753453
     5  H    0.382547
     6  H    0.372494
 Sum of Mulliken charges =   0.00000

 Dipole moment (field-independent basis, Debye):
    X=             -3.1916    Y=             -4.1257    Z=             -0.0000  Tot=              5.2161
 Quadrupole moment (field-independent basis, Debye-Ang):
   XX=            -10.0313   YY=             -7.4469   ZZ=            -14.9952
   XY=             -4.2364   XZ=              0.0000   YZ=             -0.0000

 678\MP4DQ=-33.8951162\MP4SDQ=-33.8971758\CCSD=-33.8982084\CCSD(T)=-33.
 Normal termination of Gaussian 16 at Sun Dec 10 07:07:10 2023.
