 Gaussian 16, Revision A.03,
 Gaussian 16:  ES64L-G16RevA.03 25-Dec-2016

 ------------------
 #p CCSD(T)/CEP-31G
 ------------------

 -----------
 H2O_H2O_600
 -----------
 Symbolic Z-matrix:
 Charge =  0 Multiplicity = 1

                         Standard orientation:
 ---------------------------------------------------------------------
 Center     Atomic      Atomic             Coordinates (Angstroms)
 Number     Number       Type             X           Y           Z
 ---------------------------------------------------------------------
      1          8           0        0.092949   -1.326198    0.000000
      2          1           0        0.092949   -0.343596    0.000000
      3          1           0       -0.836544   -1.644864    0.000000
      4          8           0        0.092949    1.193411    0.000000
      5          1           0        0.092950    2.176013    0.000000
      6          1           0       -0.836544    0.874744    0.000000
 ---------------------------------------------------------------------

 SCF Done:  E(RHF) =  -33.6362099656     A.U. after   11 cycles
 E2 =    -0.2293266519D+00 EUMP2 =    -0.33865536617495D+02
 CCSD(T)
 CCSD(T)= -0.33882147068D+02

 The electronic state is 1-A'.
 Alpha  occ. eigenvalues --   -1.41269  -1.32412  -0.78894  -0.68348  -0.59415
 Alpha  occ. eigenvalues --   -0.55197  -0.51545  -0.46749
 Alpha virt. eigenvalues --    0.16377   0.24756   0.28031   0.49677   0.73677
 Alpha virt. eigenvalues --    0.78108   0.85487   0.87217   0.92974   1.11574
 Alpha virt. eigenvalues --    1.13132   1.24184   1.32723   1.41146   2.59886

 Mulliken charges:
               1
     1  O   -0.704773
     2  H    0.325473
     3  H    0.333516
     4  O   -0.763106
     5  H    0.443550
     6  H    0.365339
 Sum of Mulliken charges =  -0.00000

 Dipole moment (field-independent basis, Debye):
    X=             -4.0369    Y=              3.8559    Z=              0.0000  Tot=              5.5825
 Quadrupole moment (field-independent basis, Debye-Ang):
   XX=            -11.3781   YY=             -9.8985   ZZ=            -14.9708
   XY=              2.1774   XZ=              0.0000   YZ=              0.0000

 MP4DQ=-33.8759531\MP4SDQ=-33.8783328\CCSD=-33.8791817\CCSD(T)=-33.8821
 Normal termination of Gaussian 16 at Sun Dec 10 06:29:49 2023.
