 Gaussian 16, Revision A.03,
 Gaussian 16:  ES64L-G16RevA.03 25-Dec-2016

 ------------------
 #p CCSD(T)/CEP-31G
 ------------------

 ------------
 H2O_H2O_4657
 ------------
 Symbolic Z-matrix:
 Charge =  0 Multiplicity = 1

                         Standard orientation:
 ---------------------------------------------------------------------
 Center     Atomic      Atomic             Coordinates (Angstroms)
 Number     Number       Type             X           Y           Z
 ---------------------------------------------------------------------
      1          8           0        0.073523    2.960215   -0.000000
      2          1           0        0.072950    1.977614   -0.000000
      3          1           0       -0.855784    3.279423    0.000000
      4          8           0        0.073523   -2.793250   -0.000000
      5          1           0        0.507602   -3.674773   -0.000000
      6          1           0       -0.901130   -2.917983    0.000000
 ---------------------------------------------------------------------

 SCF Done:  E(RHF) =  -33.6526953258     A.U. after   11 cycles
 E2 =    -0.2283276519D+00 EUMP2 =    -0.33881022977730D+02
 CCSD(T)
 CCSD(T)= -0.33897997805D+02

 The electronic state is 1-A'.
 Alpha  occ. eigenvalues --   -1.36247  -1.34858  -0.71890  -0.70481  -0.56035
 Alpha  occ. eigenvalues --   -0.54617  -0.50831  -0.49442
 Alpha virt. eigenvalues --    0.19557   0.21011   0.29819   0.31277   0.79725
 Alpha virt. eigenvalues --    0.81087   0.82640   0.84091   0.85765   0.87238
 Alpha virt. eigenvalues --    1.16695   1.18081   1.21140   1.22588   2.56680

 Mulliken charges:
               1
     1  O   -0.744693
     2  H    0.377160
     3  H    0.367528
     4  O   -0.744620
     5  H    0.374428
     6  H    0.370197
 Sum of Mulliken charges =  -0.00000

 Dipole moment (field-independent basis, Debye):
    X=             -3.3810    Y=             -3.9145    Z=              0.0000  Tot=              5.1724
 Quadrupole moment (field-independent basis, Debye-Ang):
   XX=            -10.1654   YY=             -6.2125   ZZ=            -14.9903
   XY=             -4.8027   XZ=             -0.0000   YZ=              0.0000

 4\MP4DQ=-33.8923598\MP4SDQ=-33.8943852\CCSD=-33.8954387\CCSD(T)=-33.89
 Normal termination of Gaussian 16 at Sun Dec 10 06:56:50 2023.
