 Gaussian 16, Revision A.03,
 Gaussian 16:  ES64L-G16RevA.03 25-Dec-2016

 ------------------
 #p CCSD(T)/CEP-31G
 ------------------

 ------------
 H2O_H2O_3502
 ------------
 Symbolic Z-matrix:
 Charge =  0 Multiplicity = 1

                         Standard orientation:
 ---------------------------------------------------------------------
 Center     Atomic      Atomic             Coordinates (Angstroms)
 Number     Number       Type             X           Y           Z
 ---------------------------------------------------------------------
      1          8           0        0.088231   -2.489207    0.000000
      2          1           0        0.088065   -1.506606    0.000000
      3          1           0       -0.841208   -2.808030    0.000000
      4          8           0        0.088231    2.344886    0.000000
      5          1           0        0.216322    3.319103    0.000000
      6          1           0       -0.874872    2.150106    0.000000
 ---------------------------------------------------------------------

 SCF Done:  E(RHF) =  -33.6525500266     A.U. after   11 cycles
 E2 =    -0.2283644697D+00 EUMP2 =    -0.33880914496310D+02
 CCSD(T)
 CCSD(T)= -0.33897896432D+02

 The electronic state is 1-A'.
 Alpha  occ. eigenvalues --   -1.36569  -1.34864  -0.72228  -0.70470  -0.56356
 Alpha  occ. eigenvalues --   -0.54606  -0.51148  -0.49439
 Alpha virt. eigenvalues --    0.18664   0.21415   0.29493   0.31323   0.79428
 Alpha virt. eigenvalues --    0.81092   0.82323   0.84094   0.85398   0.87474
 Alpha virt. eigenvalues --    1.16219   1.18288   1.20813   1.23473   2.56040

 Mulliken charges:
               1
     1  O   -0.744203
     2  H    0.378653
     3  H    0.365400
     4  O   -0.744686
     5  H    0.377051
     6  H    0.367785
 Sum of Mulliken charges =   0.00000

 Dipole moment (field-independent basis, Debye):
    X=             -4.0448    Y=              3.4199    Z=              0.0000  Tot=              5.2967
 Quadrupole moment (field-independent basis, Debye-Ang):
   XX=            -10.9724   YY=             -8.6704   ZZ=            -14.9893
   XY=              2.8998   XZ=              0.0000   YZ=              0.0000

 79\MP4DQ=-33.8922505\MP4SDQ=-33.8942809\CCSD=-33.8953313\CCSD(T)=-33.8
 Normal termination of Gaussian 16 at Sun Dec 10 06:36:02 2023.
