 Gaussian 16, Revision A.03,
 Gaussian 16:  ES64L-G16RevA.03 25-Dec-2016

 ------------------
 #p CCSD(T)/CEP-31G
 ------------------

 ------------
 H2O_H2O_3293
 ------------
 Symbolic Z-matrix:
 Charge =  0 Multiplicity = 1

                         Standard orientation:
 ---------------------------------------------------------------------
 Center     Atomic      Atomic             Coordinates (Angstroms)
 Number     Number       Type             X           Y           Z
 ---------------------------------------------------------------------
      1          8           0        0.033785    2.417502   -0.000000
      2          1           0        0.031628    1.434903   -0.000000
      3          1           0       -0.895007    2.738208   -0.000000
      4          8           0        0.033785   -2.239975    0.000000
      5          1           0        0.940763   -2.617992    0.000000
      6          1           0       -0.617942   -2.975339    0.000000
 ---------------------------------------------------------------------

 SCF Done:  E(RHF) =  -33.6548931918     A.U. after   11 cycles
 E2 =    -0.2282912532D+00 EUMP2 =    -0.33883184444968D+02
 CCSD(T)
 CCSD(T)= -0.33900099296D+02

 The electronic state is 1-A'.
 Alpha  occ. eigenvalues --   -1.36583  -1.34195  -0.72226  -0.69826  -0.56497
 Alpha  occ. eigenvalues --   -0.54020  -0.51199  -0.48814
 Alpha virt. eigenvalues --    0.19070   0.21985   0.29591   0.32152   0.79366
 Alpha virt. eigenvalues --    0.81672   0.82266   0.84605   0.85448   0.87809
 Alpha virt. eigenvalues --    1.16446   1.19008   1.20851   1.24480   2.56350

 Mulliken charges:
               1
     1  O   -0.753248
     2  H    0.385497
     3  H    0.367302
     4  O   -0.751521
     5  H    0.376844
     6  H    0.375125
 Sum of Mulliken charges =  -0.00000

 Dipole moment (field-independent basis, Debye):
    X=             -1.5422    Y=             -4.2161    Z=              0.0000  Tot=              4.4893
 Quadrupole moment (field-independent basis, Debye-Ang):
   XX=             -9.4325   YY=             -6.3759   ZZ=            -14.9948
   XY=             -7.1475   XZ=              0.0000   YZ=             -0.0000

 122\MP4DQ=-33.8944657\MP4SDQ=-33.8964953\CCSD=-33.8975387\CCSD(T)=-33.
 Normal termination of Gaussian 16 at Sun Dec 10 06:32:20 2023.
