 Gaussian 16, Revision A.03,
 Gaussian 16:  ES64L-G16RevA.03 25-Dec-2016

 ------------------
 #p CCSD(T)/CEP-31G
 ------------------

 ------------
 H2O_H2O_1779
 ------------
 Symbolic Z-matrix:
 Charge =  0 Multiplicity = 1

                         Standard orientation:
 ---------------------------------------------------------------------
 Center     Atomic      Atomic             Coordinates (Angstroms)
 Number     Number       Type             X           Y           Z
 ---------------------------------------------------------------------
      1          8           0        0.082813   -1.806673    0.000000
      2          1           0        0.082315   -0.824071    0.000000
      3          1           0       -0.846519   -2.125810    0.000000
      4          8           0        0.082813    1.652175    0.000000
      5          1           0        0.336648    2.601424    0.000000
      6          1           0       -0.897451    1.584440    0.000000
 ---------------------------------------------------------------------

 SCF Done:  E(RHF) =  -33.6555214243     A.U. after   11 cycles
 E2 =    -0.2288162383D+00 EUMP2 =    -0.33884337662600D+02
 CCSD(T)
 CCSD(T)= -0.33901331622D+02

 The electronic state is 1-A'.
 Alpha  occ. eigenvalues --   -1.37697  -1.33686  -0.73465  -0.69255  -0.57728
 Alpha  occ. eigenvalues --   -0.53407  -0.52295  -0.48271
 Alpha virt. eigenvalues --    0.17198   0.24042   0.28559   0.35596   0.77766
 Alpha virt. eigenvalues --    0.82037   0.82835   0.85018   0.88988   0.97419
 Alpha virt. eigenvalues --    1.15193   1.18649   1.20932   1.37726   2.51971

 Mulliken charges:
               1
     1  O   -0.758866
     2  H    0.400260
     3  H    0.355823
     4  O   -0.760207
     5  H    0.392956
     6  H    0.370035
 Sum of Mulliken charges =   0.00000

 Dipole moment (field-independent basis, Debye):
    X=             -3.7355    Y=              3.8567    Z=              0.0000  Tot=              5.3692
 Quadrupole moment (field-independent basis, Debye-Ang):
   XX=            -10.6671   YY=             -8.5956   ZZ=            -14.9942
   XY=              3.1602   XZ=              0.0000   YZ=              0.0000

 8234\MP4DQ=-33.8955508\MP4SDQ=-33.8976651\CCSD=-33.8986861\CCSD(T)=-33
 Normal termination of Gaussian 16 at Sun Dec 10 06:52:28 2023.
