 Gaussian 16, Revision A.03,
 Gaussian 16:  ES64L-G16RevA.03 25-Dec-2016

 ------------------
 #p CCSD(T)/CEP-31G
 ------------------

 ------------
 H2O_H2O_1327
 ------------
 Symbolic Z-matrix:
 Charge =  0 Multiplicity = 1

                         Standard orientation:
 ---------------------------------------------------------------------
 Center     Atomic      Atomic             Coordinates (Angstroms)
 Number     Number       Type             X           Y           Z
 ---------------------------------------------------------------------
      1          8           0        0.088238   -1.621641    0.000000
      2          1           0        0.087979   -0.639039    0.000000
      3          1           0       -0.841172   -1.940552    0.000000
      4          8           0        0.088238    1.477336    0.000000
      5          1           0        0.216237    2.451565    0.000000
      6          1           0       -0.874847    1.282466    0.000000
 ---------------------------------------------------------------------

 SCF Done:  E(RHF) =  -33.6542569044     A.U. after   11 cycles
 E2 =    -0.2291031342D+00 EUMP2 =    -0.33883360038576D+02
 CCSD(T)
 CCSD(T)= -0.33900376254D+02

 The electronic state is 1-A'.
 Alpha  occ. eigenvalues --   -1.38432  -1.33501  -0.74476  -0.69027  -0.58412
 Alpha  occ. eigenvalues --   -0.53113  -0.52976  -0.48040
 Alpha virt. eigenvalues --    0.16796   0.24814   0.27984   0.39149   0.76371
 Alpha virt. eigenvalues --    0.80619   0.84022   0.84831   0.89988   1.09580
 Alpha virt. eigenvalues --    1.15873   1.17445   1.22051   1.39688   2.50436

 Mulliken charges:
               1
     1  O   -0.754294
     2  H    0.397105
     3  H    0.350429
     4  O   -0.767222
     5  H    0.406367
     6  H    0.367615
 Sum of Mulliken charges =   0.00000

 Dipole moment (field-independent basis, Debye):
    X=             -3.9450    Y=              3.7285    Z=              0.0000  Tot=              5.4281
 Quadrupole moment (field-independent basis, Debye-Ang):
   XX=            -11.0202   YY=             -9.1644   ZZ=            -14.9923
   XY=              2.6726   XZ=              0.0000   YZ=              0.0000

 \MP4DQ=-33.8944854\MP4SDQ=-33.8966636\CCSD=-33.8976603\CCSD(T)=-33.900
 Normal termination of Gaussian 16 at Sun Dec 10 06:43:38 2023.
