 Gaussian 16, Revision A.03,
 Gaussian 16:  ES64L-G16RevA.03 25-Dec-2016

 ------------------
 #p CCSD(T)/CEP-31G
 ------------------

 ------------
 H2O_H2O_1412
 ------------
 Symbolic Z-matrix:
 Charge =  0 Multiplicity = 1

                         Standard orientation:
 ---------------------------------------------------------------------
 Center     Atomic      Atomic             Coordinates (Angstroms)
 Number     Number       Type             X           Y           Z
 ---------------------------------------------------------------------
      1          8           0        0.056044    1.670321    0.000000
      2          1           0        0.054060    0.687722    0.000000
      3          1           0       -0.872803    1.990864    0.000000
      4          8           0        0.056044   -1.491482   -0.000000
      5          1           0        0.749444   -2.187688   -0.000000
      6          1           0       -0.827408   -1.921618   -0.000000
 ---------------------------------------------------------------------

 SCF Done:  E(RHF) =  -33.6610457422     A.U. after   11 cycles
 E2 =    -0.2289312507D+00 EUMP2 =    -0.33889976992961D+02
 CCSD(T)
 CCSD(T)= -0.33906725781D+02

 The electronic state is 1-A'.
 Alpha  occ. eigenvalues --   -1.38115  -1.32215  -0.73762  -0.68159  -0.58596
 Alpha  occ. eigenvalues --   -0.52812  -0.51950  -0.46865
 Alpha virt. eigenvalues --    0.17797   0.25337   0.28442   0.39942   0.76861
 Alpha virt. eigenvalues --    0.80063   0.84625   0.85747   0.92038   0.98823
 Alpha virt. eigenvalues --    1.15023   1.19575   1.21164   1.34408   2.49684

 Mulliken charges:
               1
     1  O   -0.779232
     2  H    0.425319
     3  H    0.352653
     4  O   -0.784141
     5  H    0.400530
     6  H    0.384871
 Sum of Mulliken charges =   0.00000

 Dipole moment (field-independent basis, Debye):
    X=             -2.4881    Y=             -4.5443    Z=             -0.0000  Tot=              5.1808
 Quadrupole moment (field-independent basis, Debye-Ang):
   XX=             -9.5674   YY=             -8.1987   ZZ=            -15.0089
   XY=             -4.3418   XZ=             -0.0000   YZ=              0.0000

 6\MP4DQ=-33.9009353\MP4SDQ=-33.9030334\CCSD=-33.9040288\CCSD(T)=-33.90
 Normal termination of Gaussian 16 at Sun Dec 10 06:45:20 2023.
