 Gaussian 16, Revision A.03,
 Gaussian 16:  ES64L-G16RevA.03 25-Dec-2016

 ------------------
 #p CCSD(T)/CEP-31G
 ------------------

 -----------
 H2O_H2O_394
 -----------
 Symbolic Z-matrix:
 Charge =  0 Multiplicity = 1

                         Standard orientation:
 ---------------------------------------------------------------------
 Center     Atomic      Atomic             Coordinates (Angstroms)
 Number     Number       Type             X           Y           Z
 ---------------------------------------------------------------------
      1          8           0        0.030385    1.259655    0.000000
      2          1           0        0.025839    0.277064    0.000000
      3          1           0       -0.897624    1.582618    0.000000
      4          8           0        0.030385   -1.084183   -0.000000
      5          1           0        0.959369   -1.404330   -0.000000
      6          1           0       -0.573737   -1.859129   -0.000000
 ---------------------------------------------------------------------

 SCF Done:  E(RHF) =  -33.6456347546     A.U. after   11 cycles
 E2 =    -0.2283032935D+00 EUMP2 =    -0.33873938048061D+02
 CCSD(T)
 CCSD(T)= -0.33889271201D+02

 The electronic state is 1-A'.
 Alpha  occ. eigenvalues --   -1.42070  -1.28595  -0.77621  -0.72459  -0.57713
 Alpha  occ. eigenvalues --   -0.56396  -0.46996  -0.42991
 Alpha virt. eigenvalues --    0.17028   0.26287   0.28892   0.57338   0.73718
 Alpha virt. eigenvalues --    0.74298   0.86880   0.90030   0.94453   1.00772
 Alpha virt. eigenvalues --    1.15350   1.19252   1.26417   1.36718   2.76496

 Mulliken charges:
               1
     1  O   -0.768274
     2  H    0.391026
     3  H    0.332630
     4  O   -0.835138
     5  H    0.427698
     6  H    0.452058
 Sum of Mulliken charges =  -0.00000

 Dipole moment (field-independent basis, Debye):
    X=             -1.3125    Y=             -5.1513    Z=             -0.0000  Tot=              5.3159
 Quadrupole moment (field-independent basis, Debye-Ang):
   XX=             -9.3654   YY=             -9.9364   ZZ=            -14.9963
   XY=             -3.8267   XZ=             -0.0000   YZ=              0.0000

 \MP4DQ=-33.883261\MP4SDQ=-33.8854709\CCSD=-33.8862186\CCSD(T)=-33.8892
 Normal termination of Gaussian 16 at Sun Dec 10 06:25:49 2023.
