 Gaussian 16, Revision A.03,
 Gaussian 16:  ES64L-G16RevA.03 25-Dec-2016

 ------------------
 #p CCSD(T)/CEP-31G
 ------------------

 -----------
 H2O_H2O_151
 -----------
 Symbolic Z-matrix:
 Charge =  0 Multiplicity = 1

                         Standard orientation:
 ---------------------------------------------------------------------
 Center     Atomic      Atomic             Coordinates (Angstroms)
 Number     Number       Type             X           Y           Z
 ---------------------------------------------------------------------
      1          8           0        0.090691   -1.149911    0.000000
      2          1           0        0.090513   -0.167309    0.000000
      3          1           0       -0.838744   -1.468745    0.000000
      4          8           0        0.090691    1.011219    0.000000
      5          1           0        0.154779    1.991730    0.000000
      6          1           0       -0.857607    0.753856    0.000000
 ---------------------------------------------------------------------

 SCF Done:  E(RHF) =  -33.5859101959     A.U. after   11 cycles
 E2 =    -0.2285585214D+00 EUMP2 =    -0.33814468717272D+02
 CCSD(T)
 CCSD(T)= -0.33830025856D+02

 The electronic state is 1-A'.
 Alpha  occ. eigenvalues --   -1.46104  -1.29867  -0.84414  -0.70841  -0.58239
 Alpha  occ. eigenvalues --   -0.57080  -0.47926  -0.43948
 Alpha virt. eigenvalues --    0.16022   0.23061   0.29664   0.59058   0.72958
 Alpha virt. eigenvalues --    0.76086   0.89105   0.89840   0.96101   1.10498
 Alpha virt. eigenvalues --    1.11595   1.22075   1.26514   1.49353   2.91892

 Mulliken charges:
               1
     1  O   -0.663378
     2  H    0.216310
     3  H    0.308261
     4  O   -0.729717
     5  H    0.488512
     6  H    0.380013
 Sum of Mulliken charges =  -0.00000

 Dipole moment (field-independent basis, Debye):
    X=             -3.7762    Y=              4.5985    Z=              0.0000  Tot=              5.9503
 Quadrupole moment (field-independent basis, Debye-Ang):
   XX=            -11.1779   YY=            -10.4261   ZZ=            -14.8987
   XY=              2.2508   XZ=              0.0000   YZ=              0.0000

 22\MP4DQ=-33.8235569\MP4SDQ=-33.8261346\CCSD=-33.82679\CCSD(T)=-33.830
 Normal termination of Gaussian 16 at Sun Dec 10 06:21:01 2023.
