 Gaussian 16, Revision A.03,
 Gaussian 16:  ES64L-G16RevA.03 25-Dec-2016

 ------------------
 #p CCSD(T)/CEP-31G
 ------------------

 -----------
 H2O_H2O_642
 -----------
 Symbolic Z-matrix:
 Charge =  0 Multiplicity = 1

                         Standard orientation:
 ---------------------------------------------------------------------
 Center     Atomic      Atomic             Coordinates (Angstroms)
 Number     Number       Type             X           Y           Z
 ---------------------------------------------------------------------
      1          8           0        0.037594    1.361200    0.000000
      2          1           0        0.033890    0.378605    0.000000
      3          1           0       -0.890691    1.683368    0.000000
      4          8           0        0.037594   -1.182360   -0.000000
      5          1           0        0.917219   -1.620273   -0.000000
      6          1           0       -0.661920   -1.872423   -0.000000
 ---------------------------------------------------------------------

 SCF Done:  E(RHF) =  -33.6588747774     A.U. after   11 cycles
 E2 =    -0.2288909721D+00 EUMP2 =    -0.33887765749469D+02
 CCSD(T)
 CCSD(T)= -0.33903629500D+02

 The electronic state is 1-A'.
 Alpha  occ. eigenvalues --   -1.40373  -1.29754  -0.75767  -0.70142  -0.58871
 Alpha  occ. eigenvalues --   -0.55036  -0.48805  -0.44298
 Alpha virt. eigenvalues --    0.17289   0.27164   0.27875   0.52279   0.74313
 Alpha virt. eigenvalues --    0.74927   0.85755   0.88579   0.96269   0.99701
 Alpha virt. eigenvalues --    1.15428   1.18188   1.24374   1.37219   2.63672

 Mulliken charges:
               1
     1  O   -0.780520
     2  H    0.426479
     3  H    0.339313
     4  O   -0.832064
     5  H    0.420233
     6  H    0.426558
 Sum of Mulliken charges =   0.00000

 Dipole moment (field-independent basis, Debye):
    X=             -1.6294    Y=             -4.9529    Z=             -0.0000  Tot=              5.2141
 Quadrupole moment (field-independent basis, Debye-Ang):
   XX=             -9.3339   YY=             -9.4516   ZZ=            -15.0165
   XY=             -4.0355   XZ=             -0.0000   YZ=              0.0000

 23\MP4DQ=-33.8976992\MP4SDQ=-33.8998555\CCSD=-33.9006913\CCSD(T)=-33.9
 Normal termination of Gaussian 16 at Sun Dec 10 06:30:36 2023.
