 Gaussian 16, Revision A.03,
 Gaussian 16:  ES64L-G16RevA.03 25-Dec-2016

 ------------------
 #p CCSD(T)/CEP-31G
 ------------------

 ------------
 H2O_H2O_3722
 ------------
 Symbolic Z-matrix:
 Charge =  0 Multiplicity = 1

                         Standard orientation:
 ---------------------------------------------------------------------
 Center     Atomic      Atomic             Coordinates (Angstroms)
 Number     Number       Type             X           Y           Z
 ---------------------------------------------------------------------
      1          8           0       -0.019839    2.581371    0.000000
      2          1           0       -0.017356    1.598773    0.000000
      3          1           0        0.908845    2.902385    0.000000
      4          8           0       -0.019839   -2.414257    0.000000
      5          1           0       -0.993707   -2.544974    0.000000
      6          1           0        0.419647   -3.293096    0.000000
 ---------------------------------------------------------------------

 SCF Done:  E(RHF) =  -33.6541795783     A.U. after   11 cycles
 E2 =    -0.2282732772D+00 EUMP2 =    -0.33882452855506D+02
 CCSD(T)
 CCSD(T)= -0.33899387473D+02

 The electronic state is 1-A'.
 Alpha  occ. eigenvalues --   -1.36431  -1.34526  -0.72076  -0.70166  -0.56301
 Alpha  occ. eigenvalues --   -0.54340  -0.51037  -0.49138
 Alpha virt. eigenvalues --    0.19293   0.21532   0.29696   0.31753   0.79521
 Alpha virt. eigenvalues --    0.81364   0.82275   0.84330   0.85524   0.87487
 Alpha virt. eigenvalues --    1.16563   1.18553   1.20964   1.23411   2.56512

 Mulliken charges:
               1
     1  O   -0.750446
     2  H    0.381023
     3  H    0.369293
     4  O   -0.749658
     5  H    0.374774
     6  H    0.375015
 Sum of Mulliken charges =   0.00000

 Dipole moment (field-independent basis, Debye):
    X=              0.9078    Y=             -3.9420    Z=              0.0000  Tot=              4.0452
 Quadrupole moment (field-independent basis, Debye-Ang):
   XX=             -9.6775   YY=             -6.7746   ZZ=            -14.9933
   XY=              8.7495   XZ=              0.0000   YZ=              0.0000

 055\MP4DQ=-33.8937563\MP4SDQ=-33.895781\CCSD=-33.8968296\CCSD(T)=-33.8
 Normal termination of Gaussian 16 at Sun Dec 10 06:39:58 2023.
