 Gaussian 16, Revision A.03,
 Gaussian 16:  ES64L-G16RevA.03 25-Dec-2016

 ------------------
 #p CCSD(T)/CEP-31G
 ------------------

 ------------
 H2O_H2O_1985
 ------------
 Symbolic Z-matrix:
 Charge =  0 Multiplicity = 1

                         Standard orientation:
 ---------------------------------------------------------------------
 Center     Atomic      Atomic             Coordinates (Angstroms)
 Number     Number       Type             X           Y           Z
 ---------------------------------------------------------------------
      1          8           0        0.063261    1.897843    0.000000
      2          1           0        0.061868    0.915243    0.000000
      3          1           0       -0.865779    2.217828   -0.000000
      4          8           0        0.063261   -1.722372    0.000000
      5          1           0        0.660326   -2.502769    0.000000
      6          1           0       -0.868591   -2.034075   -0.000000
 ---------------------------------------------------------------------

 SCF Done:  E(RHF) =  -33.6575885840     A.U. after   11 cycles
 E2 =    -0.2286345820D+00 EUMP2 =    -0.33886223166064D+02
 CCSD(T)
 CCSD(T)= -0.33903123391D+02

 The electronic state is 1-A'.
 Alpha  occ. eigenvalues --   -1.37421  -1.33240  -0.73089  -0.68866  -0.57581
 Alpha  occ. eigenvalues --   -0.53044  -0.52067  -0.47872
 Alpha virt. eigenvalues --    0.17967   0.23884   0.28907   0.35131   0.78239
 Alpha virt. eigenvalues --    0.82827   0.82887   0.85529   0.89243   0.90894
 Alpha virt. eigenvalues --    1.15597   1.20021   1.20356   1.33412   2.51857

 Mulliken charges:
               1
     1  O   -0.765976
     2  H    0.405351
     3  H    0.358399
     4  O   -0.762161
     5  H    0.388267
     6  H    0.376120
 Sum of Mulliken charges =  -0.00000

 Dipole moment (field-independent basis, Debye):
    X=             -2.8532    Y=             -4.3291    Z=             -0.0000  Tot=              5.1847
 Quadrupole moment (field-independent basis, Debye-Ang):
   XX=             -9.7771   YY=             -7.6453   ZZ=            -14.9998
   XY=             -4.3939   XZ=              0.0000   YZ=             -0.0000

 591\MP4DQ=-33.8974001\MP4SDQ=-33.8994807\CCSD=-33.9005046\CCSD(T)=-33.
 Normal termination of Gaussian 16 at Sun Dec 10 06:56:21 2023.
