 Gaussian 16, Revision A.03,
 Gaussian 16:  ES64L-G16RevA.03 25-Dec-2016

 ------------------
 #p CCSD(T)/CEP-31G
 ------------------

 ------------
 H2O_H2O_2743
 ------------
 Symbolic Z-matrix:
 Charge =  0 Multiplicity = 1

                         Standard orientation:
 ---------------------------------------------------------------------
 Center     Atomic      Atomic             Coordinates (Angstroms)
 Number     Number       Type             X           Y           Z
 ---------------------------------------------------------------------
      1          8           0        0.033805    2.198113    0.000000
      2          1           0        0.031425    1.215514    0.000000
      3          1           0       -0.894913    2.519030   -0.000000
      4          8           0        0.033805   -2.020601    0.000000
      5          1           0        0.940697   -2.398824    0.000000
      6          1           0       -0.618089   -2.755815   -0.000000
 ---------------------------------------------------------------------

 SCF Done:  E(RHF) =  -33.6561352755     A.U. after   11 cycles
 E2 =    -0.2283525995D+00 EUMP2 =    -0.33884487875024D+02
 CCSD(T)
 CCSD(T)= -0.33901381815D+02

 The electronic state is 1-A'.
 Alpha  occ. eigenvalues --   -1.36840  -1.33839  -0.72488  -0.69470  -0.56836
 Alpha  occ. eigenvalues --   -0.53686  -0.51474  -0.48474
 Alpha virt. eigenvalues --    0.18612   0.22645   0.29403   0.32775   0.79082
 Alpha virt. eigenvalues --    0.82011   0.83233   0.84518   0.85685   0.88076
 Alpha virt. eigenvalues --    1.16224   1.19586   1.20645   1.27367   2.55331

 Mulliken charges:
               1
     1  O   -0.758559
     2  H    0.391314
     3  H    0.365980
     4  O   -0.754955
     5  H    0.379138
     6  H    0.377083
 Sum of Mulliken charges =  -0.00000

 Dipole moment (field-independent basis, Debye):
    X=             -1.5359    Y=             -4.2656    Z=             -0.0000  Tot=              4.5337
 Quadrupole moment (field-independent basis, Debye-Ang):
   XX=             -9.4289   YY=             -6.8494   ZZ=            -14.9972
   XY=             -6.5431   XZ=              0.0000   YZ=             -0.0000

 748\MP4DQ=-33.8957306\MP4SDQ=-33.8977755\CCSD=-33.8988098\CCSD(T)=-33.
 Normal termination of Gaussian 16 at Sun Dec 10 06:22:22 2023.
