 Gaussian 16, Revision A.03,
 Gaussian 16:  ES64L-G16RevA.03 25-Dec-2016

 ------------------
 #p CCSD(T)/CEP-31G
 ------------------

 -----------
 H2O_H2O_473
 -----------
 Symbolic Z-matrix:
 Charge =  0 Multiplicity = 1

                         Standard orientation:
 ---------------------------------------------------------------------
 Center     Atomic      Atomic             Coordinates (Angstroms)
 Number     Number       Type             X           Y           Z
 ---------------------------------------------------------------------
      1          8           0        0.016837   -1.282964    0.000000
      2          1           0        0.011446   -0.300378    0.000000
      3          1           0       -0.910894   -1.606725    0.000000
      4          8           0        0.016837    1.119660    0.000000
      5          1           0        0.996968    1.189304    0.000000
      6          1           0       -0.366908    2.024230    0.000000
 ---------------------------------------------------------------------

 SCF Done:  E(RHF) =  -33.6477730333     A.U. after   11 cycles
 E2 =    -0.2280196491D+00 EUMP2 =    -0.33875792682431D+02
 CCSD(T)
 CCSD(T)= -0.33891535436D+02

 The electronic state is 1-A'.
 Alpha  occ. eigenvalues --   -1.41533  -1.29483  -0.78094  -0.70042  -0.58869
 Alpha  occ. eigenvalues --   -0.55811  -0.48172  -0.43988
 Alpha virt. eigenvalues --    0.17278   0.26239   0.28515   0.54992   0.73841
 Alpha virt. eigenvalues --    0.75812   0.87516   0.89256   0.93432   1.04941
 Alpha virt. eigenvalues --    1.15117   1.21978   1.28320   1.38969   2.73801

 Mulliken charges:
               1
     1  O   -0.760894
     2  H    0.372968
     3  H    0.346193
     4  O   -0.838159
     5  H    0.416379
     6  H    0.463513
 Sum of Mulliken charges =  -0.00000

 Dipole moment (field-independent basis, Debye):
    X=             -0.7504    Y=              4.7705    Z=              0.0000  Tot=              4.8292
 Quadrupole moment (field-independent basis, Debye-Ang):
   XX=             -9.6873   YY=             -9.6788   ZZ=            -14.9988
   XY=              4.2866   XZ=              0.0000   YZ=              0.0000

 37\MP4DQ=-33.8855286\MP4SDQ=-33.8877547\CCSD=-33.8885682\CCSD(T)=-33.8
 Normal termination of Gaussian 16 at Sun Dec 10 06:27:25 2023.
