 Gaussian 16, Revision A.03,
 Gaussian 16:  ES64L-G16RevA.03 25-Dec-2016

 ------------------
 #p CCSD(T)/CEP-31G
 ------------------

 -----------
 H2O_H2O_430
 -----------
 Symbolic Z-matrix:
 Charge =  0 Multiplicity = 1

                         Standard orientation:
 ---------------------------------------------------------------------
 Center     Atomic      Atomic             Coordinates (Angstroms)
 Number     Number       Type             X           Y           Z
 ---------------------------------------------------------------------
      1          8           0        0.079888   -1.270631    0.000000
      2          1           0        0.078955   -0.288030    0.000000
      3          1           0       -0.849302   -1.590179    0.000000
      4          8           0        0.079888    1.111641    0.000000
      5          1           0        0.394852    2.042396    0.000000
      6          1           0       -0.902706    1.107729    0.000000
 ---------------------------------------------------------------------

 SCF Done:  E(RHF) =  -33.6383293952     A.U. after   11 cycles
 E2 =    -0.2286377654D+00 EUMP2 =    -0.33866967160631D+02
 CCSD(T)
 CCSD(T)= -0.33882895803D+02

 The electronic state is 1-A'.
 Alpha  occ. eigenvalues --   -1.42103  -1.30196  -0.78921  -0.70417  -0.58237
 Alpha  occ. eigenvalues --   -0.56132  -0.48904  -0.44507
 Alpha virt. eigenvalues --    0.16476   0.25133   0.28486   0.54804   0.73582
 Alpha virt. eigenvalues --    0.75929   0.86240   0.89007   0.96507   1.08451
 Alpha virt. eigenvalues --    1.14574   1.23636   1.26500   1.37666   2.76771

 Mulliken charges:
               1
     1  O   -0.726870
     2  H    0.363125
     3  H    0.322405
     4  O   -0.821285
     5  H    0.472459
     6  H    0.390166
 Sum of Mulliken charges =   0.00000

 Dipole moment (field-independent basis, Debye):
    X=             -3.3639    Y=              4.7089    Z=              0.0000  Tot=              5.7870
 Quadrupole moment (field-independent basis, Debye-Ang):
   XX=            -10.5085   YY=             -9.7556   ZZ=            -14.9779
   XY=              2.9970   XZ=              0.0000   YZ=              0.0000

 38\MP4DQ=-33.8767492\MP4SDQ=-33.8790808\CCSD=-33.8798869\CCSD(T)=-33.8
 Normal termination of Gaussian 16 at Sun Dec 10 06:26:31 2023.
