 Gaussian 16, Revision A.03,
 Gaussian 16:  ES64L-G16RevA.03 25-Dec-2016

 ------------------
 #p CCSD(T)/CEP-31G
 ------------------

 ------------
 H2O_H2O_2403
 ------------
 Symbolic Z-matrix:
 Charge =  0 Multiplicity = 1

                         Standard orientation:
 ---------------------------------------------------------------------
 Center     Atomic      Atomic             Coordinates (Angstroms)
 Number     Number       Type             X           Y           Z
 ---------------------------------------------------------------------
      1          8           0        0.085604   -2.053304    0.000000
      2          1           0        0.085289   -1.070703    0.000000
      3          1           0       -0.843787   -2.372269    0.000000
      4          8           0        0.085604    1.903714    0.000000
      5          1           0        0.276990    2.867498    0.000000
      6          1           0       -0.888157    1.772193    0.000000
 ---------------------------------------------------------------------

 SCF Done:  E(RHF) =  -33.6538602698     A.U. after   11 cycles
 E2 =    -0.2285591467D+00 EUMP2 =    -0.33882419416541D+02
 CCSD(T)
 CCSD(T)= -0.33899403077D+02

 The electronic state is 1-A'.
 Alpha  occ. eigenvalues --   -1.37130  -1.34323  -0.72829  -0.69896  -0.57007
 Alpha  occ. eigenvalues --   -0.54068  -0.51719  -0.48905
 Alpha virt. eigenvalues --    0.17353   0.22863   0.29014   0.32704   0.78781
 Alpha virt. eigenvalues --    0.81718   0.82968   0.84643   0.87577   0.88298
 Alpha virt. eigenvalues --    1.15588   1.19117   1.20458   1.31599   2.55235

 Mulliken charges:
               1
     1  O   -0.750592
     2  H    0.388206
     3  H    0.360978
     4  O   -0.749708
     5  H    0.383013
     6  H    0.368103
 Sum of Mulliken charges =  -0.00000

 Dipole moment (field-independent basis, Debye):
    X=             -3.8959    Y=              3.6327    Z=              0.0000  Tot=              5.3268
 Quadrupole moment (field-independent basis, Debye-Ang):
   XX=            -10.8215   YY=             -8.5836   ZZ=            -14.9911
   XY=              3.0398   XZ=              0.0000   YZ=              0.0000

 9645\MP4DQ=-33.8937052\MP4SDQ=-33.8957735\CCSD=-33.8968071\CCSD(T)=-33
 Normal termination of Gaussian 16 at Sun Dec 10 07:05:40 2023.
