 Gaussian 16, Revision A.03,
 Gaussian 16:  ES64L-G16RevA.03 25-Dec-2016

 ------------------
 #p CCSD(T)/CEP-31G
 ------------------

 ------------
 H2O_H2O_3654
 ------------
 Symbolic Z-matrix:
 Charge =  0 Multiplicity = 1

                         Standard orientation:
 ---------------------------------------------------------------------
 Center     Atomic      Atomic             Coordinates (Angstroms)
 Number     Number       Type             X           Y           Z
 ---------------------------------------------------------------------
      1          8           0        0.082801    2.554580    0.000000
      2          1           0        0.082453    1.571979    0.000000
      3          1           0       -0.846579    2.873575   -0.000000
      4          8           0        0.082801   -2.400057    0.000000
      5          1           0        0.336783   -3.349267    0.000000
      6          1           0       -0.897473   -2.332472   -0.000000
 ---------------------------------------------------------------------

 SCF Done:  E(RHF) =  -33.6528419141     A.U. after   11 cycles
 E2 =    -0.2283426309D+00 EUMP2 =    -0.33881184545016D+02
 CCSD(T)
 CCSD(T)= -0.33898156540D+02

 The electronic state is 1-A'.
 Alpha  occ. eigenvalues --   -1.36506  -1.34755  -0.72160  -0.70365  -0.56306
 Alpha  occ. eigenvalues --   -0.54509  -0.51089  -0.49336
 Alpha virt. eigenvalues --    0.19005   0.21347   0.29553   0.31443   0.79481
 Alpha virt. eigenvalues --    0.81188   0.82334   0.84203   0.85444   0.87497
 Alpha virt. eigenvalues --    1.16393   1.18305   1.20858   1.23257   2.56323

 Mulliken charges:
               1
     1  O   -0.745311
     2  H    0.379512
     3  H    0.365679
     4  O   -0.745537
     5  H    0.376678
     6  H    0.368978
 Sum of Mulliken charges =   0.00000

 Dipole moment (field-independent basis, Debye):
    X=             -3.7967    Y=             -3.6544    Z=             -0.0000  Tot=              5.2697
 Quadrupole moment (field-independent basis, Debye-Ang):
   XX=            -10.6420   YY=             -7.8157   ZZ=            -14.9902
   XY=             -3.5299   XZ=              0.0000   YZ=             -0.0000

 707\MP4DQ=-33.892515\MP4SDQ=-33.8945433\CCSD=-33.895594\CCSD(T)=-33.89
 Normal termination of Gaussian 16 at Sun Dec 10 06:38:45 2023.
