 Gaussian 16, Revision A.03,
 Gaussian 16:  ES64L-G16RevA.03 25-Dec-2016

 ------------------
 #p CCSD(T)/CEP-31G
 ------------------

 -----------
 H2O_H2O_891
 -----------
 Symbolic Z-matrix:
 Charge =  0 Multiplicity = 1

                         Standard orientation:
 ---------------------------------------------------------------------
 Center     Atomic      Atomic             Coordinates (Angstroms)
 Number     Number       Type             X           Y           Z
 ---------------------------------------------------------------------
      1          8           0        0.041256    1.461448   -0.000000
      2          1           0        0.038050    0.478852   -0.000000
      3          1           0       -0.887192    1.783146   -0.000000
      4          8           0        0.041256   -1.281630    0.000000
      5          1           0        0.890607   -1.775705    0.000000
      6          1           0       -0.701566   -1.924841    0.000000
 ---------------------------------------------------------------------

 SCF Done:  E(RHF) =  -33.6628260587     A.U. after   11 cycles
 E2 =    -0.2290650446D+00 EUMP2 =    -0.33891891103367D+02
 CCSD(T)
 CCSD(T)= -0.33908166396D+02

 The electronic state is 1-A'.
 Alpha  occ. eigenvalues --   -1.39321  -1.30710  -0.74837  -0.68598  -0.59322
 Alpha  occ. eigenvalues --   -0.54062  -0.50136  -0.45334
 Alpha virt. eigenvalues --    0.17526   0.26984   0.27743   0.47520   0.75104
 Alpha virt. eigenvalues --    0.76372   0.85671   0.87159   0.96023   0.99631
 Alpha virt. eigenvalues --    1.15154   1.18624   1.23158   1.36325   2.55380

 Mulliken charges:
               1
     1  O   -0.785900
     2  H    0.435993
     3  H    0.345663
     4  O   -0.817821
     5  H    0.411877
     6  H    0.410188
 Sum of Mulliken charges =   0.00000

 Dipole moment (field-independent basis, Debye):
    X=             -1.8035    Y=             -4.7903    Z=              0.0000  Tot=              5.1185
 Quadrupole moment (field-independent basis, Debye-Ang):
   XX=             -9.3522   YY=             -8.9855   ZZ=            -15.0196
   XY=             -4.2573   XZ=              0.0000   YZ=             -0.0000

 289\MP4DQ=-33.9022964\MP4SDQ=-33.9044201\CCSD=-33.9053282\CCSD(T)=-33.
 Normal termination of Gaussian 16 at Sun Dec 10 06:35:16 2023.
