 Gaussian 16, Revision A.03,
 Gaussian 16:  ES64L-G16RevA.03 25-Dec-2016

 ------------------
 #p CCSD(T)/CEP-31G
 ------------------

 -----------
 H2O_H2O_103
 -----------
 Symbolic Z-matrix:
 Charge =  0 Multiplicity = 1

                         Standard orientation:
 ---------------------------------------------------------------------
 Center     Atomic      Atomic             Coordinates (Angstroms)
 Number     Number       Type             X           Y           Z
 ---------------------------------------------------------------------
      1          8           0        0.085625   -1.135863    0.000000
      2          1           0        0.085037   -0.153262    0.000000
      3          1           0       -0.843678   -1.455085    0.000000
      4          8           0        0.085625    0.986320    0.000000
      5          1           0        0.276745    1.950156    0.000000
      6          1           0       -0.888099    0.854530    0.000000
 ---------------------------------------------------------------------

 SCF Done:  E(RHF) =  -33.5841604743     A.U. after   11 cycles
 E2 =    -0.2280723912D+00 EUMP2 =    -0.33812232865566D+02
 CCSD(T)
 CCSD(T)= -0.33827519270D+02

 The electronic state is 1-A'.
 Alpha  occ. eigenvalues --   -1.46516  -1.28887  -0.84396  -0.72538  -0.58721
 Alpha  occ. eigenvalues --   -0.56025  -0.46581  -0.42901
 Alpha virt. eigenvalues --    0.15930   0.23092   0.30011   0.60409   0.73028
 Alpha virt. eigenvalues --    0.75283   0.89575   0.90517   0.97025   1.09193
 Alpha virt. eigenvalues --    1.10867   1.21226   1.27213   1.47343   3.02394

 Mulliken charges:
               1
     1  O   -0.676689
     2  H    0.228809
     3  H    0.302563
     4  O   -0.749247
     5  H    0.501392
     6  H    0.393172
 Sum of Mulliken charges =  -0.00000

 Dipole moment (field-independent basis, Debye):
    X=             -3.5097    Y=              4.9645    Z=              0.0000  Tot=              6.0798
 Quadrupole moment (field-independent basis, Debye-Ang):
   XX=            -10.8207   YY=            -10.4409   ZZ=            -14.8964
   XY=              2.5570   XZ=              0.0000   YZ=              0.0000

 096\MP4DQ=-33.8210876\MP4SDQ=-33.8236388\CCSD=-33.8242896\CCSD(T)=-33.
 Normal termination of Gaussian 16 at Sun Dec 10 06:20:04 2023.
