 Gaussian 16, Revision A.03,
 Gaussian 16:  ES64L-G16RevA.03 25-Dec-2016

 ------------------
 #p CCSD(T)/CEP-31G
 ------------------

 ------------
 H2O_H2O_1087
 ------------
 Symbolic Z-matrix:
 Charge =  0 Multiplicity = 1

                         Standard orientation:
 ---------------------------------------------------------------------
 Center     Atomic      Atomic             Coordinates (Angstroms)
 Number     Number       Type             X           Y           Z
 ---------------------------------------------------------------------
      1          8           0        0.056060    1.540677   -0.000000
      2          1           0        0.053899    0.558077   -0.000000
      3          1           0       -0.872729    1.861387   -0.000000
      4          8           0        0.056060   -1.361857    0.000000
      5          1           0        0.749334   -2.058188    0.000000
      6          1           0       -0.827470   -1.791834    0.000000
 ---------------------------------------------------------------------

 SCF Done:  E(RHF) =  -33.6621447505     A.U. after   11 cycles
 E2 =    -0.2290980425D+00 EUMP2 =    -0.33891242792928D+02
 CCSD(T)
 CCSD(T)= -0.33907782129D+02

 The electronic state is 1-A'.
 Alpha  occ. eigenvalues --   -1.38780  -1.31457  -0.74393  -0.68163  -0.59158
 Alpha  occ. eigenvalues --   -0.53499  -0.51036  -0.46085
 Alpha virt. eigenvalues --    0.17574   0.26229   0.28005   0.44109   0.75773
 Alpha virt. eigenvalues --    0.77911   0.85485   0.86052   0.94563   1.01470
 Alpha virt. eigenvalues --    1.14919   1.19080   1.21946   1.35273   2.51742

 Mulliken charges:
               1
     1  O   -0.782181
     2  H    0.434224
     3  H    0.346692
     4  O   -0.803344
     5  H    0.412781
     6  H    0.391827
 Sum of Mulliken charges =  -0.00000

 Dipole moment (field-independent basis, Debye):
    X=             -2.4543    Y=             -4.6660    Z=              0.0000  Tot=              5.2722
 Quadrupole moment (field-independent basis, Debye-Ang):
   XX=             -9.5551   YY=             -8.6608   ZZ=            -15.0145
   XY=             -4.1135   XZ=              0.0000   YZ=             -0.0000

 523\MP4DQ=-33.9019361\MP4SDQ=-33.9040544\CCSD=-33.9050073\CCSD(T)=-33.
 Normal termination of Gaussian 16 at Sun Dec 10 06:38:57 2023.
