 Gaussian 16, Revision A.03,
 Gaussian 16:  ES64L-G16RevA.03 25-Dec-2016

 ------------------
 #p CCSD(T)/CEP-31G
 ------------------

 -----------
 H2O_H2O_684
 -----------
 Symbolic Z-matrix:
 Charge =  0 Multiplicity = 1

                         Standard orientation:
 ---------------------------------------------------------------------
 Center     Atomic      Atomic             Coordinates (Angstroms)
 Number     Number       Type             X           Y           Z
 ---------------------------------------------------------------------
      1          8           0        0.066825    1.377965    0.000000
      2          1           0        0.065104    0.395365    0.000000
      3          1           0       -0.862108    1.698259    0.000000
      4          8           0        0.066825   -1.204961   -0.000000
      5          1           0        0.611298   -2.022920   -0.000000
      6          1           0       -0.883500   -1.454735   -0.000000
 ---------------------------------------------------------------------

 SCF Done:  E(RHF) =  -33.6563530690     A.U. after   11 cycles
 E2 =    -0.2290324685D+00 EUMP2 =    -0.33885385537423D+02
 CCSD(T)
 CCSD(T)= -0.33901515364D+02

 The electronic state is 1-A'.
 Alpha  occ. eigenvalues --   -1.40260  -1.30478  -0.76022  -0.69549  -0.58955
 Alpha  occ. eigenvalues --   -0.54841  -0.49611  -0.44971
 Alpha virt. eigenvalues --    0.17027   0.26625   0.27671   0.50569   0.74368
 Alpha virt. eigenvalues --    0.75902   0.85276   0.88020   0.96220   1.05716
 Alpha virt. eigenvalues --    1.15941   1.18959   1.23026   1.36478   2.62651

 Mulliken charges:
               1
     1  O   -0.766027
     2  H    0.422066
     3  H    0.333403
     4  O   -0.827854
     5  H    0.443252
     6  H    0.395160
 Sum of Mulliken charges =  -0.00000

 Dipole moment (field-independent basis, Debye):
    X=             -2.8491    Y=             -4.7839    Z=             -0.0000  Tot=              5.5680
 Quadrupole moment (field-independent basis, Debye-Ang):
   XX=             -9.8768   YY=             -9.3272   ZZ=            -15.0087
   XY=             -3.5822   XZ=             -0.0000   YZ=              0.0000

 932\MP4DQ=-33.8955405\MP4SDQ=-33.8977389\CCSD=-33.8986071\CCSD(T)=-33.
 Normal termination of Gaussian 16 at Sun Dec 10 06:31:23 2023.
