 Gaussian 16, Revision A.03,
 Gaussian 16:  ES64L-G16RevA.03 25-Dec-2016

 ------------------
 #p CCSD(T)/CEP-31G
 ------------------

 ------------
 H2O_H2O_1229
 ------------
 Symbolic Z-matrix:
 Charge =  0 Multiplicity = 1

                         Standard orientation:
 ---------------------------------------------------------------------
 Center     Atomic      Atomic             Coordinates (Angstroms)
 Number     Number       Type             X           Y           Z
 ---------------------------------------------------------------------
      1          8           0        0.082819   -1.587284    0.000000
      2          1           0        0.082248   -0.604683    0.000000
      3          1           0       -0.846489   -1.906490    0.000000
      4          8           0        0.082819    1.432798    0.000000
      5          1           0        0.336584    2.382066    0.000000
      6          1           0       -0.897440    1.364991    0.000000
 ---------------------------------------------------------------------

 SCF Done:  E(RHF) =  -33.6561072390     A.U. after   11 cycles
 E2 =    -0.2290341037D+00 EUMP2 =    -0.33885141342633D+02
 CCSD(T)
 CCSD(T)= -0.33902064541D+02

 The electronic state is 1-A'.
 Alpha  occ. eigenvalues --   -1.38589  -1.32912  -0.74567  -0.68661  -0.58677
 Alpha  occ. eigenvalues --   -0.53164  -0.52507  -0.47468
 Alpha virt. eigenvalues --    0.17017   0.25205   0.27884   0.40669   0.76105
 Alpha virt. eigenvalues --    0.79905   0.84692   0.85053   0.91177   1.10466
 Alpha virt. eigenvalues --    1.16178   1.17637   1.22012   1.38576   2.50434

 Mulliken charges:
               1
     1  O   -0.760322
     2  H    0.406235
     3  H    0.348047
     4  O   -0.779802
     5  H    0.413172
     6  H    0.372670
 Sum of Mulliken charges =  -0.00000

 Dipole moment (field-independent basis, Debye):
    X=             -3.6814    Y=              4.0237    Z=              0.0000  Tot=              5.4537
 Quadrupole moment (field-independent basis, Debye-Ang):
   XX=            -10.6827   YY=             -8.9042   ZZ=            -14.9978
   XY=              3.0510   XZ=              0.0000   YZ=              0.0000

 4764\MP4DQ=-33.8961726\MP4SDQ=-33.8983454\CCSD=-33.8993365\CCSD(T)=-33
 Normal termination of Gaussian 16 at Sun Dec 10 06:41:42 2023.
