 Gaussian 16, Revision A.03,
 Gaussian 16:  ES64L-G16RevA.03 25-Dec-2016

 ------------------
 #p CCSD(T)/CEP-31G
 ------------------

 -----------
 H2O_H2O_688
 -----------
 Symbolic Z-matrix:
 Charge =  0 Multiplicity = 1

                         Standard orientation:
 ---------------------------------------------------------------------
 Center     Atomic      Atomic             Coordinates (Angstroms)
 Number     Number       Type             X           Y           Z
 ---------------------------------------------------------------------
      1          8           0        0.052403    1.381644   -0.000000
      2          1           0        0.049732    0.399046   -0.000000
      3          1           0       -0.876220    1.702836   -0.000000
      4          8           0        0.052403   -1.201875    0.000000
      5          1           0        0.789399   -1.851755    0.000000
      6          1           0       -0.801366   -1.688274    0.000000
 ---------------------------------------------------------------------

 SCF Done:  E(RHF) =  -33.6592968436     A.U. after   11 cycles
 E2 =    -0.2290979109D+00 EUMP2 =    -0.33888394754525D+02
 CCSD(T)
 CCSD(T)= -0.33904368861D+02

 The electronic state is 1-A'.
 Alpha  occ. eigenvalues --   -1.40168  -1.30048  -0.75555  -0.69865  -0.58915
 Alpha  occ. eigenvalues --   -0.54846  -0.49178  -0.44580
 Alpha virt. eigenvalues --    0.17221   0.27149   0.27678   0.51226   0.74434
 Alpha virt. eigenvalues --    0.75149   0.85231   0.88256   0.97117   1.00408
 Alpha virt. eigenvalues --    1.14672   1.18347   1.23485   1.36809   2.62015

 Mulliken charges:
               1
     1  O   -0.778222
     2  H    0.432607
     3  H    0.335966
     4  O   -0.828568
     5  H    0.429924
     6  H    0.408294
 Sum of Mulliken charges =  -0.00000

 Dipole moment (field-independent basis, Debye):
    X=             -2.2406    Y=             -4.9322    Z=              0.0000  Tot=              5.4173
 Quadrupole moment (field-independent basis, Debye-Ang):
   XX=             -9.4530   YY=             -9.3676   ZZ=            -15.0159
   XY=             -3.8748   XZ=              0.0000   YZ=             -0.0000

 872\MP4DQ=-33.8984331\MP4SDQ=-33.9005949\CCSD=-33.9014446\CCSD(T)=-33.
 Normal termination of Gaussian 16 at Sun Dec 10 06:31:27 2023.
