 Gaussian 16, Revision A.03,
 Gaussian 16:  ES64L-G16RevA.03 25-Dec-2016

 ------------------
 #p CCSD(T)/CEP-31G
 ------------------

 ----------
 H2O_H2O_44
 ----------
 Symbolic Z-matrix:
 Charge =  0 Multiplicity = 1

                         Standard orientation:
 ---------------------------------------------------------------------
 Center     Atomic      Atomic             Coordinates (Angstroms)
 Number     Number       Type             X           Y           Z
 ---------------------------------------------------------------------
      1          8           0        0.030439    1.120031   -0.000000
      2          1           0        0.025280    0.137443   -0.000000
      3          1           0       -0.897367    1.443574   -0.000000
      4          8           0        0.030439   -0.944596    0.000000
      5          1           0        0.959223   -1.265325    0.000000
      6          1           0       -0.574167   -1.719165    0.000000
 ---------------------------------------------------------------------

 SCF Done:  E(RHF) =  -33.5883214718     A.U. after   11 cycles
 E2 =    -0.2268606157D+00 EUMP2 =    -0.33815182087497D+02
 CCSD(T)
 CCSD(T)= -0.33829617178D+02

 The electronic state is 1-A'.
 Alpha  occ. eigenvalues --   -1.46673  -1.26303  -0.82501  -0.77336  -0.59441
 Alpha  occ. eigenvalues --   -0.54370  -0.42836  -0.40194
 Alpha virt. eigenvalues --    0.16370   0.24624   0.30619   0.62633   0.73241
 Alpha virt. eigenvalues --    0.73704   0.86513   0.92045   0.92262   1.04825
 Alpha virt. eigenvalues --    1.12552   1.18683   1.31362   1.39446   2.98220

 Mulliken charges:
               1
     1  O   -0.744929
     2  H    0.262455
     3  H    0.310794
     4  O   -0.754396
     5  H    0.449249
     6  H    0.476827
 Sum of Mulliken charges =   0.00000

 Dipole moment (field-independent basis, Debye):
    X=             -1.2564    Y=             -5.7554    Z=              0.0000  Tot=              5.8909
 Quadrupole moment (field-independent basis, Debye-Ang):
   XX=             -9.2991   YY=            -10.7698   ZZ=            -14.9134
   XY=             -3.3533   XZ=              0.0000   YZ=             -0.0000

 5\MP4DQ=-33.8234297\MP4SDQ=-33.8257867\CCSD=-33.8263646\CCSD(T)=-33.82
 Normal termination of Gaussian 16 at Sun Dec 10 06:18:53 2023.
