 Gaussian 16, Revision A.03,
 Gaussian 16:  ES64L-G16RevA.03 25-Dec-2016

 ------------------
 #p CCSD(T)/CEP-31G
 ------------------

 ------------
 H2O_H2O_2638
 ------------
 Symbolic Z-matrix:
 Charge =  0 Multiplicity = 1

                         Standard orientation:
 ---------------------------------------------------------------------
 Center     Atomic      Atomic             Coordinates (Angstroms)
 Number     Number       Type             X           Y           Z
 ---------------------------------------------------------------------
      1          8           0        0.052312    2.159506    0.000000
      2          1           0        0.050644    1.176906    0.000000
      3          1           0       -0.876639    2.479749   -0.000000
      4          8           0        0.052312   -1.979631    0.000000
      5          1           0        0.789970   -2.628758    0.000000
      6          1           0       -0.800960   -2.466902   -0.000000
 ---------------------------------------------------------------------

 SCF Done:  E(RHF) =  -33.6560326172     A.U. after   11 cycles
 E2 =    -0.2283964775D+00 EUMP2 =    -0.33884429094728D+02
 CCSD(T)
 CCSD(T)= -0.33901328760D+02

 The electronic state is 1-A'.
 Alpha  occ. eigenvalues --   -1.36920  -1.33748  -0.72569  -0.69363  -0.56917
 Alpha  occ. eigenvalues --   -0.53578  -0.51551  -0.48376
 Alpha virt. eigenvalues --    0.18529   0.22772   0.29324   0.32952   0.79001
 Alpha virt. eigenvalues --    0.82121   0.83823   0.84539   0.85437   0.88292
 Alpha virt. eigenvalues --    1.16143   1.19656   1.20577   1.27938   2.54894

 Mulliken charges:
               1
     1  O   -0.758288
     2  H    0.393301
     3  H    0.363511
     4  O   -0.754510
     5  H    0.380809
     6  H    0.375177
 Sum of Mulliken charges =   0.00000

 Dipole moment (field-independent basis, Debye):
    X=             -2.3775    Y=             -4.3382    Z=             -0.0000  Tot=              4.9469
 Quadrupole moment (field-independent basis, Debye-Ang):
   XX=             -9.5115   YY=             -6.8312   ZZ=            -14.9970
   XY=             -5.3967   XZ=              0.0000   YZ=             -0.0000

 156\MP4DQ=-33.8956694\MP4SDQ=-33.8977191\CCSD=-33.8987523\CCSD(T)=-33.
 Normal termination of Gaussian 16 at Sun Dec 10 06:20:30 2023.
