 Gaussian 16, Revision A.03,
 Gaussian 16:  ES64L-G16RevA.03 25-Dec-2016

 ------------------
 #p CCSD(T)/CEP-31G
 ------------------

 -----------
 H2O_H2O_203
 -----------
 Symbolic Z-matrix:
 Charge =  0 Multiplicity = 1

                         Standard orientation:
 ---------------------------------------------------------------------
 Center     Atomic      Atomic             Coordinates (Angstroms)
 Number     Number       Type             X           Y           Z
 ---------------------------------------------------------------------
      1          8           0        0.085623   -1.175752    0.000000
      2          1           0        0.085057   -0.193151    0.000000
      3          1           0       -0.843686   -1.494954    0.000000
      4          8           0        0.085623    1.026206    0.000000
      5          1           0        0.276765    1.990038    0.000000
      6          1           0       -0.888103    0.894437    0.000000
 ---------------------------------------------------------------------

 SCF Done:  E(RHF) =  -33.6051622096     A.U. after   11 cycles
 E2 =    -0.2283077454D+00 EUMP2 =    -0.33833469954974D+02
 CCSD(T)
 CCSD(T)= -0.33849024842D+02

 The electronic state is 1-A'.
 Alpha  occ. eigenvalues --   -1.44884  -1.29528  -0.82683  -0.71471  -0.57791
 Alpha  occ. eigenvalues --   -0.56995  -0.47654  -0.43645
 Alpha virt. eigenvalues --    0.16088   0.23674   0.29475   0.58859   0.73123
 Alpha virt. eigenvalues --    0.75660   0.88316   0.89957   0.96846   1.09397
 Alpha virt. eigenvalues --    1.12345   1.22595   1.26162   1.45117   2.93359

 Mulliken charges:
               1
     1  O   -0.687942
     2  H    0.274504
     3  H    0.310006
     4  O   -0.778262
     5  H    0.492380
     6  H    0.389314
 Sum of Mulliken charges =  -0.00000

 Dipole moment (field-independent basis, Debye):
    X=             -3.5519    Y=              4.7927    Z=              0.0000  Tot=              5.9654
 Quadrupole moment (field-independent basis, Debye-Ang):
   XX=            -10.8406   YY=            -10.2219   ZZ=            -14.9261
   XY=              2.6042   XZ=              0.0000   YZ=              0.0000

 6\MP4DQ=-33.8426796\MP4SDQ=-33.8451632\CCSD=-33.8458685\CCSD(T)=-33.84
 Normal termination of Gaussian 16 at Sun Dec 10 06:22:03 2023.
