 Gaussian 16, Revision A.03,
 Gaussian 16:  ES64L-G16RevA.03 25-Dec-2016

 ------------------
 #p CCSD(T)/CEP-31G
 ------------------

 ------------
 H2O_H2O_1539
 ------------
 Symbolic Z-matrix:
 Charge =  0 Multiplicity = 1

                         Standard orientation:
 ---------------------------------------------------------------------
 Center     Atomic      Atomic             Coordinates (Angstroms)
 Number     Number       Type             X           Y           Z
 ---------------------------------------------------------------------
      1          8           0        0.048642    1.720989    0.000000
      2          1           0        0.046333    0.738390    0.000000
      3          1           0       -0.880100    2.041839    0.000000
      4          8           0        0.048642   -1.540664   -0.000000
      5          1           0        0.826784   -2.140665   -0.000000
      6          1           0       -0.771288   -2.082163   -0.000000
 ---------------------------------------------------------------------

 SCF Done:  E(RHF) =  -33.6609434284     A.U. after   11 cycles
 E2 =    -0.2288412866D+00 EUMP2 =    -0.33889784715004D+02
 CCSD(T)
 CCSD(T)= -0.33906559430D+02

 The electronic state is 1-A'.
 Alpha  occ. eigenvalues --   -1.37905  -1.32372  -0.73543  -0.68213  -0.58379
 Alpha  occ. eigenvalues --   -0.52603  -0.52157  -0.47035
 Alpha virt. eigenvalues --    0.17938   0.25083   0.28623   0.38763   0.77243
 Alpha virt. eigenvalues --    0.80732   0.84219   0.86010   0.91162   0.96414
 Alpha virt. eigenvalues --    1.15220   1.19789   1.21048   1.33864   2.49688

 Mulliken charges:
               1
     1  O   -0.779167
     2  H    0.421945
     3  H    0.355657
     4  O   -0.779045
     5  H    0.394727
     6  H    0.385882
 Sum of Mulliken charges =   0.00000

 Dipole moment (field-independent basis, Debye):
    X=             -2.1693    Y=             -4.5412    Z=             -0.0000  Tot=              5.0328
 Quadrupole moment (field-independent basis, Debye-Ang):
   XX=             -9.4402   YY=             -8.0062   ZZ=            -15.0081
   XY=             -4.6858   XZ=             -0.0000   YZ=              0.0000

 1\MP4DQ=-33.9007939\MP4SDQ=-33.9028817\CCSD=-33.9038857\CCSD(T)=-33.90
 Normal termination of Gaussian 16 at Sun Dec 10 06:47:52 2023.
