 Gaussian 16, Revision A.03,
 Gaussian 16:  ES64L-G16RevA.03 25-Dec-2016

 ------------------
 #p CCSD(T)/CEP-31G
 ------------------

 ------------
 H2O_H2O_1369
 ------------
 Symbolic Z-matrix:
 Charge =  0 Multiplicity = 1

                         Standard orientation:
 ---------------------------------------------------------------------
 Center     Atomic      Atomic             Coordinates (Angstroms)
 Number     Number       Type             X           Y           Z
 ---------------------------------------------------------------------
      1          8           0        0.030283    1.648592    0.000000
      2          1           0        0.026871    0.665997    0.000000
      3          1           0       -0.898097    1.970485    0.000000
      4          8           0        0.030283   -1.473050    0.000000
      5          1           0        0.959636   -1.792127    0.000000
      6          1           0       -0.572945   -2.248692    0.000000
 ---------------------------------------------------------------------

 SCF Done:  E(RHF) =  -33.6621901878     A.U. after   11 cycles
 E2 =    -0.2288246633D+00 EUMP2 =    -0.33891014851117D+02
 CCSD(T)
 CCSD(T)= -0.33907734381D+02

 The electronic state is 1-A'.
 Alpha  occ. eigenvalues --   -1.38147  -1.32105  -0.73812  -0.68129  -0.58721
 Alpha  occ. eigenvalues --   -0.52859  -0.51871  -0.46790
 Alpha virt. eigenvalues --    0.17859   0.25574   0.28473   0.40434   0.76723
 Alpha virt. eigenvalues --    0.79654   0.84794   0.86389   0.90894   1.01332
 Alpha virt. eigenvalues --    1.15298   1.18649   1.21909   1.35032   2.50126

 Mulliken charges:
               1
     1  O   -0.784094
     2  H    0.423763
     3  H    0.358125
     4  O   -0.789556
     5  H    0.392998
     6  H    0.398764
 Sum of Mulliken charges =  -0.00000

 Dipole moment (field-independent basis, Debye):
    X=             -1.3525    Y=             -4.4753    Z=              0.0000  Tot=              4.6753
 Quadrupole moment (field-independent basis, Debye-Ang):
   XX=             -9.4389   YY=             -8.3035   ZZ=            -15.0116
   XY=             -5.1103   XZ=              0.0000   YZ=              0.0000

 297\MP4DQ=-33.9019447\MP4SDQ=-33.904043\CCSD=-33.9050351\CCSD(T)=-33.9
 Normal termination of Gaussian 16 at Sun Dec 10 06:44:29 2023.
