 Gaussian 16, Revision A.03,
 Gaussian 16:  ES64L-G16RevA.03 25-Dec-2016

 ------------------
 #p CCSD(T)/CEP-31G
 ------------------

 -----------
 H2O_H2O_345
 -----------
 Symbolic Z-matrix:
 Charge =  0 Multiplicity = 1

                         Standard orientation:
 ---------------------------------------------------------------------
 Center     Atomic      Atomic             Coordinates (Angstroms)
 Number     Number       Type             X           Y           Z
 ---------------------------------------------------------------------
      1          8           0        0.026868    1.238421    0.000000
      2          1           0        0.021984    0.255832    0.000000
      3          1           0       -0.901029    1.561704    0.000000
      4          8           0        0.026868   -1.065327    0.000000
      5          1           0        0.974713   -1.324357    0.000000
      6          1           0       -0.525558   -1.877935    0.000000
 ---------------------------------------------------------------------

 SCF Done:  E(RHF) =  -33.6405982717     A.U. after   11 cycles
 E2 =    -0.2280623395D+00 EUMP2 =    -0.33868660611172D+02
 CCSD(T)
 CCSD(T)= -0.33883905392D+02

 The electronic state is 1-A'.
 Alpha  occ. eigenvalues --   -1.42542  -1.28389  -0.78400  -0.72662  -0.57499
 Alpha  occ. eigenvalues --   -0.56712  -0.46619  -0.42752
 Alpha virt. eigenvalues --    0.17001   0.26018   0.29101   0.58219   0.73630
 Alpha virt. eigenvalues --    0.74434   0.87457   0.90281   0.94094   1.01099
 Alpha virt. eigenvalues --    1.15104   1.20042   1.27302   1.36921   2.79885

 Mulliken charges:
               1
     1  O   -0.763669
     2  H    0.375397
     3  H    0.332605
     4  O   -0.833473
     5  H    0.428177
     6  H    0.460963
 Sum of Mulliken charges =   0.00000

 Dipole moment (field-independent basis, Debye):
    X=             -1.1651    Y=             -5.1650    Z=              0.0000  Tot=              5.2948
 Quadrupole moment (field-independent basis, Debye-Ang):
   XX=             -9.4138   YY=            -10.0134   ZZ=            -14.9882
   XY=             -3.8200   XZ=              0.0000   YZ=              0.0000

 41\MP4DQ=-33.8778746\MP4SDQ=-33.8801016\CCSD=-33.8808355\CCSD(T)=-33.8
 Normal termination of Gaussian 16 at Sun Dec 10 06:24:51 2023.
