 Gaussian 16, Revision A.03,
 Gaussian 16:  ES64L-G16RevA.03 25-Dec-2016

 ------------------
 #p CCSD(T)/CEP-31G
 ------------------

 ------------
 H2O_H2O_3711
 ------------
 Symbolic Z-matrix:
 Charge =  0 Multiplicity = 1

                         Standard orientation:
 ---------------------------------------------------------------------
 Center     Atomic      Atomic             Coordinates (Angstroms)
 Number     Number       Type             X           Y           Z
 ---------------------------------------------------------------------
      1          8           0        0.059630    2.586984    0.000000
      2          1           0        0.058498    1.604383    0.000000
      3          1           0       -0.869495    2.906721    0.000000
      4          8           0        0.059630   -2.409525   -0.000000
      5          1           0        0.706654   -3.149030   -0.000000
      6          1           0       -0.849741   -2.781749   -0.000000
 ---------------------------------------------------------------------

 SCF Done:  E(RHF) =  -33.6537905803     A.U. after   11 cycles
 E2 =    -0.2283025554D+00 EUMP2 =    -0.33882093135687D+02
 CCSD(T)
 CCSD(T)= -0.33899036382D+02

 The electronic state is 1-A'.
 Alpha  occ. eigenvalues --   -1.36457  -1.34431  -0.72102  -0.70051  -0.56310
 Alpha  occ. eigenvalues --   -0.54220  -0.51057  -0.49031
 Alpha virt. eigenvalues --    0.19293   0.21589   0.29659   0.31829   0.79505
 Alpha virt. eigenvalues --    0.81474   0.82282   0.84506   0.85494   0.87657
 Alpha virt. eigenvalues --    1.16530   1.18610   1.20948   1.23429   2.56500

 Mulliken charges:
               1
     1  O   -0.748937
     2  H    0.382443
     3  H    0.366343
     4  O   -0.748214
     5  H    0.376408
     6  H    0.371957
 Sum of Mulliken charges =   0.00000

 Dipole moment (field-independent basis, Debye):
    X=             -2.7314    Y=             -4.1925    Z=             -0.0000  Tot=              5.0037
 Quadrupole moment (field-independent basis, Debye-Ang):
   XX=             -9.6724   YY=             -6.0375   ZZ=            -14.9926
   XY=             -5.6390   XZ=             -0.0000   YZ=              0.0000

 6538\MP4DQ=-33.8934028\MP4SDQ=-33.8954287\CCSD=-33.8964775\CCSD(T)=-33
 Normal termination of Gaussian 16 at Sun Dec 10 06:39:46 2023.
