 Gaussian 16, Revision A.03,
 Gaussian 16:  ES64L-G16RevA.03 25-Dec-2016

 ------------------
 #p CCSD(T)/CEP-31G
 ------------------

 ------------
 H2O_H2O_3777
 ------------
 Symbolic Z-matrix:
 Charge =  0 Multiplicity = 1

                         Standard orientation:
 ---------------------------------------------------------------------
 Center     Atomic      Atomic             Coordinates (Angstroms)
 Number     Number       Type             X           Y           Z
 ---------------------------------------------------------------------
      1          8           0        0.088230   -2.598899    0.000000
      2          1           0        0.088072   -1.616298    0.000000
      3          1           0       -0.841211   -2.917716    0.000000
      4          8           0        0.088230    2.454576    0.000000
      5          1           0        0.216329    3.428793    0.000000
      6          1           0       -0.874874    2.259804    0.000000
 ---------------------------------------------------------------------

 SCF Done:  E(RHF) =  -33.6524242371     A.U. after   11 cycles
 E2 =    -0.2283544521D+00 EUMP2 =    -0.33880778689176D+02
 CCSD(T)
 CCSD(T)= -0.33897763227D+02

 The electronic state is 1-A'.
 Alpha  occ. eigenvalues --   -1.36478  -1.34931  -0.72133  -0.70542  -0.56257
 Alpha  occ. eigenvalues --   -0.54673  -0.51056  -0.49506
 Alpha virt. eigenvalues --    0.18975   0.21177   0.29576   0.31215   0.79515
 Alpha virt. eigenvalues --    0.81027   0.82399   0.84038   0.85476   0.87337
 Alpha virt. eigenvalues --    1.16369   1.18111   1.20900   1.22895   2.56132

 Mulliken charges:
               1
     1  O   -0.743692
     2  H    0.377583
     3  H    0.366039
     4  O   -0.744130
     5  H    0.376201
     6  H    0.367998
 Sum of Mulliken charges =  -0.00000

 Dipole moment (field-independent basis, Debye):
    X=             -4.0492    Y=              3.4084    Z=              0.0000  Tot=              5.2928
 Quadrupole moment (field-independent basis, Debye-Ang):
   XX=            -10.9700   YY=             -8.6177   ZZ=            -14.9892
   XY=              2.9258   XZ=              0.0000   YZ=              0.0000

 772\MP4DQ=-33.8921196\MP4SDQ=-33.8941479\CCSD=-33.8952002\CCSD(T)=-33.
 Normal termination of Gaussian 16 at Sun Dec 10 06:40:58 2023.
