 Gaussian 16, Revision A.03,
 Gaussian 16:  ES64L-G16RevA.03 25-Dec-2016

 ------------------
 #p CCSD(T)/CEP-31G
 ------------------

 ------------
 H2O_H2O_2211
 ------------
 Symbolic Z-matrix:
 Charge =  0 Multiplicity = 1

                         Standard orientation:
 ---------------------------------------------------------------------
 Center     Atomic      Atomic             Coordinates (Angstroms)
 Number     Number       Type             X           Y           Z
 ---------------------------------------------------------------------
      1          8           0        0.059662    1.988647    0.000000
      2          1           0        0.058174    1.006047    0.000000
      3          1           0       -0.869347    2.308721    0.000000
      4          8           0        0.059662   -1.811231   -0.000000
      5          1           0        0.706417   -2.550970   -0.000000
      6          1           0       -0.849843   -2.183125   -0.000000
 ---------------------------------------------------------------------

 SCF Done:  E(RHF) =  -33.6570041524     A.U. after   11 cycles
 E2 =    -0.2285332505D+00 EUMP2 =    -0.33885537402830D+02
 CCSD(T)
 CCSD(T)= -0.33902437878D+02

 The electronic state is 1-A'.
 Alpha  occ. eigenvalues --   -1.37221  -1.33430  -0.72880  -0.69044  -0.57313
 Alpha  occ. eigenvalues --   -0.53249  -0.51862  -0.48061
 Alpha virt. eigenvalues --    0.18152   0.23459   0.29070   0.34132   0.78581
 Alpha virt. eigenvalues --    0.82549   0.83519   0.85454   0.87761   0.88795
 Alpha virt. eigenvalues --    1.15827   1.20029   1.20330   1.31526   2.52992

 Mulliken charges:
               1
     1  O   -0.763098
     2  H    0.400526
     3  H    0.360462
     4  O   -0.758461
     5  H    0.384847
     6  H    0.375724
 Sum of Mulliken charges =  -0.00000

 Dipole moment (field-independent basis, Debye):
    X=             -2.6997    Y=             -4.3378    Z=             -0.0000  Tot=              5.1093
 Quadrupole moment (field-independent basis, Debye-Ang):
   XX=             -9.6716   YY=             -7.3510   ZZ=            -14.9987
   XY=             -4.7075   XZ=             -0.0000   YZ=              0.0000

 9939\MP4DQ=-33.8967416\MP4SDQ=-33.8988105\CCSD=-33.899838\CCSD(T)=-33.
 Normal termination of Gaussian 16 at Sun Dec 10 07:01:00 2023.
