 Gaussian 16, Revision A.03,
 Gaussian 16:  ES64L-G16RevA.03 25-Dec-2016

 ------------------
 #p CCSD(T)/CEP-31G
 ------------------

 -----------
 H2O_H2O_224
 -----------
 Symbolic Z-matrix:
 Charge =  0 Multiplicity = 1

                         Standard orientation:
 ---------------------------------------------------------------------
 Center     Atomic      Atomic             Coordinates (Angstroms)
 Number     Number       Type             X           Y           Z
 ---------------------------------------------------------------------
      1          8           0       -0.013774   -1.181005   -0.000000
      2          1           0       -0.007655   -0.198423   -0.000000
      3          1           0        0.913717   -1.505453   -0.000000
      4          8           0       -0.013774    1.021831    0.000000
      5          1           0       -0.996356    1.027949    0.000000
      6          1           0        0.310674    1.949321    0.000000
 ---------------------------------------------------------------------

 SCF Done:  E(RHF) =  -33.6194644479     A.U. after   11 cycles
 E2 =    -0.2272402690D+00 EUMP2 =    -0.33846704716846D+02
 CCSD(T)
 CCSD(T)= -0.33861870036D+02

 The electronic state is 1-A'.
 Alpha  occ. eigenvalues --   -1.44152  -1.28184  -0.81527  -0.71843  -0.57547
 Alpha  occ. eigenvalues --   -0.57456  -0.45970  -0.42503
 Alpha virt. eigenvalues --    0.17079   0.25068   0.29582   0.59931   0.73442
 Alpha virt. eigenvalues --    0.75231   0.89700   0.90651   0.93322   1.04892
 Alpha virt. eigenvalues --    1.13703   1.20341   1.29892   1.43505   2.91524

 Mulliken charges:
               1
     1  O   -0.740314
     2  H    0.300502
     3  H    0.338472
     4  O   -0.816563
     5  H    0.428888
     6  H    0.489015
 Sum of Mulliken charges =   0.00000

 Dipole moment (field-independent basis, Debye):
    X=              0.6018    Y=              5.0166    Z=              0.0000  Tot=              5.0526
 Quadrupole moment (field-independent basis, Debye-Ang):
   XX=             -9.7431   YY=            -10.1685   ZZ=            -14.9559
   XY=             -4.0085   XZ=             -0.0000   YZ=              0.0000

 036\MP4DQ=-33.8557451\MP4SDQ=-33.8580608\CCSD=-33.8587732\CCSD(T)=-33.
 Normal termination of Gaussian 16 at Sun Dec 10 06:22:28 2023.
