 Gaussian 16, Revision A.03,
 Gaussian 16:  ES64L-G16RevA.03 25-Dec-2016

 ------------------
 #p CCSD(T)/CEP-31G
 ------------------

 -----------
 H2O_H2O_374
 -----------
 Symbolic Z-matrix:
 Charge =  0 Multiplicity = 1

                         Standard orientation:
 ---------------------------------------------------------------------
 Center     Atomic      Atomic             Coordinates (Angstroms)
 Number     Number       Type             X           Y           Z
 ---------------------------------------------------------------------
      1          8           0        0.013748   -1.240840    0.000000
      2          1           0        0.007945   -0.258256    0.000000
      3          1           0       -0.913847   -1.564991    0.000000
      4          8           0        0.013748    1.081657    0.000000
      5          1           0        0.996333    1.087460    0.000000
      6          1           0       -0.310402    2.009252    0.000000
 ---------------------------------------------------------------------

 SCF Done:  E(RHF) =  -33.6384206863     A.U. after   11 cycles
 E2 =    -0.2276952003D+00 EUMP2 =    -0.33866115886539D+02
 CCSD(T)
 CCSD(T)= -0.33881686478D+02

 The electronic state is 1-A'.
 Alpha  occ. eigenvalues --   -1.42439  -1.29116  -0.79486  -0.70387  -0.58563
 Alpha  occ. eigenvalues --   -0.56412  -0.47515  -0.43568
 Alpha virt. eigenvalues --    0.17234   0.25765   0.28907   0.56929   0.73637
 Alpha virt. eigenvalues --    0.75799   0.88318   0.89742   0.93196   1.05682
 Alpha virt. eigenvalues --    1.14632   1.21535   1.29422   1.41240   2.80699

 Mulliken charges:
               1
     1  O   -0.750276
     2  H    0.343157
     3  H    0.345300
     4  O   -0.833387
     5  H    0.420138
     6  H    0.475068
 Sum of Mulliken charges =  -0.00000

 Dipole moment (field-independent basis, Debye):
    X=             -0.6104    Y=              4.7938    Z=              0.0000  Tot=              4.8325
 Quadrupole moment (field-independent basis, Debye-Ang):
   XX=             -9.7768   YY=             -9.8608   ZZ=            -14.9843
   XY=              4.2507   XZ=              0.0000   YZ=              0.0000

 764\MP4DQ=-33.8756286\MP4SDQ=-33.8778954\CCSD=-33.8786758\CCSD(T)=-33.
 Normal termination of Gaussian 16 at Sun Dec 10 06:25:26 2023.
