 Gaussian 16, Revision A.03,
 Gaussian 16:  ES64L-G16RevA.03 25-Dec-2016

 ------------------
 #p CCSD(T)/CEP-31G
 ------------------

 ------------
 H2O_H2O_1859
 ------------
 Symbolic Z-matrix:
 Charge =  0 Multiplicity = 1

                         Standard orientation:
 ---------------------------------------------------------------------
 Center     Atomic      Atomic             Coordinates (Angstroms)
 Number     Number       Type             X           Y           Z
 ---------------------------------------------------------------------
      1          8           0        0.066785    1.846677    0.000000
      2          1           0        0.065522    0.864076    0.000000
      3          1           0       -0.862298    2.166538   -0.000000
      4          8           0        0.066785   -1.673611    0.000000
      5          1           0        0.611639   -2.491315    0.000000
      6          1           0       -0.883425   -1.923826   -0.000000
 ---------------------------------------------------------------------

 SCF Done:  E(RHF) =  -33.6577490099     A.U. after   11 cycles
 E2 =    -0.2287025323D+00 EUMP2 =    -0.33886451542231D+02
 CCSD(T)
 CCSD(T)= -0.33903356436D+02

 The electronic state is 1-A'.
 Alpha  occ. eigenvalues --   -1.37554  -1.33165  -0.73235  -0.68801  -0.57741
 Alpha  occ. eigenvalues --   -0.52950  -0.52198  -0.47792
 Alpha virt. eigenvalues --    0.17828   0.24114   0.28789   0.35780   0.77996
 Alpha virt. eigenvalues --    0.82355   0.83097   0.85493   0.89529   0.93309
 Alpha virt. eigenvalues --    1.15429   1.19769   1.20534   1.34559   2.51325

 Mulliken charges:
               1
     1  O   -0.766907
     2  H    0.407722
     3  H    0.356955
     4  O   -0.764604
     5  H    0.390943
     6  H    0.375892
 Sum of Mulliken charges =  -0.00000

 Dipole moment (field-independent basis, Debye):
    X=             -3.0063    Y=             -4.2954    Z=             -0.0000  Tot=              5.2429
 Quadrupole moment (field-independent basis, Debye-Ang):
   XX=             -9.8987   YY=             -7.8500   ZZ=            -15.0001
   XY=             -4.1532   XZ=              0.0000   YZ=             -0.0000

 78\MP4DQ=-33.8976136\MP4SDQ=-33.8997029\CCSD=-33.9007245\CCSD(T)=-33.9
 Normal termination of Gaussian 16 at Sun Dec 10 06:53:59 2023.
