 Gaussian 16, Revision A.03,
 Gaussian 16:  ES64L-G16RevA.03 25-Dec-2016

 ------------------
 #p CCSD(T)/CEP-31G
 ------------------

 ----------
 H2O_H2O_79
 ----------
 Symbolic Z-matrix:
 Charge =  0 Multiplicity = 1

                         Standard orientation:
 ---------------------------------------------------------------------
 Center     Atomic      Atomic             Coordinates (Angstroms)
 Number     Number       Type             X           Y           Z
 ---------------------------------------------------------------------
      1          8           0        0.082838   -1.128554    0.000000
      2          1           0        0.082019   -0.145953    0.000000
      3          1           0       -0.846389   -1.447995    0.000000
      4          8           0        0.082838    0.974111    0.000000
      5          1           0        0.336363    1.923442    0.000000
      6          1           0       -0.897404    0.906056    0.000000
 ---------------------------------------------------------------------

 SCF Done:  E(RHF) =  -33.5821157083     A.U. after   11 cycles
 E2 =    -0.2279126460D+00 EUMP2 =    -0.33810028354314D+02
 CCSD(T)
 CCSD(T)= -0.33825161168D+02

 The electronic state is 1-A'.
 Alpha  occ. eigenvalues --   -1.46768  -1.28423  -0.84412  -0.73438  -0.58978
 Alpha  occ. eigenvalues --   -0.55513  -0.45900  -0.42395
 Alpha virt. eigenvalues --    0.15894   0.23149   0.30191   0.60967   0.73049
 Alpha virt. eigenvalues --    0.74902   0.89775   0.90846   0.96912   1.08660
 Alpha virt. eigenvalues --    1.10374   1.21001   1.27732   1.45734   3.06280

 Mulliken charges:
               1
     1  O   -0.683686
     2  H    0.233370
     3  H    0.299732
     4  O   -0.753267
     5  H    0.504459
     6  H    0.399391
 Sum of Mulliken charges =   0.00000

 Dipole moment (field-independent basis, Debye):
    X=             -3.3678    Y=              5.1317    Z=              0.0000  Tot=              6.1381
 Quadrupole moment (field-independent basis, Debye-Ang):
   XX=            -10.6361   YY=            -10.4917   ZZ=            -14.8939
   XY=              2.6862   XZ=              0.0000   YZ=              0.0000

 MP4DQ=-33.8187421\MP4SDQ=-33.8212842\CCSD=-33.8219234\CCSD(T)=-33.8251
 Normal termination of Gaussian 16 at Sun Dec 10 06:19:35 2023.
