 Gaussian 16, Revision A.03,
 Gaussian 16:  ES64L-G16RevA.03 25-Dec-2016

 ------------------
 #p CCSD(T)/CEP-31G
 ------------------

 -----------
 H2O_H2O_937
 -----------
 Symbolic Z-matrix:
 Charge =  0 Multiplicity = 1

                         Standard orientation:
 ---------------------------------------------------------------------
 Center     Atomic      Atomic             Coordinates (Angstroms)
 Number     Number       Type             X           Y           Z
 ---------------------------------------------------------------------
      1          8           0        0.056069    1.480840    0.000000
      2          1           0        0.053814    0.498241    0.000000
      3          1           0       -0.872691    1.801638    0.000000
      4          8           0        0.056069   -1.302031   -0.000000
      5          1           0        0.749277   -1.998428   -0.000000
      6          1           0       -0.827502   -1.731924   -0.000000
 ---------------------------------------------------------------------

 SCF Done:  E(RHF) =  -33.6618915724     A.U. after   11 cycles
 E2 =    -0.2291399427D+00 EUMP2 =    -0.33891031515095D+02
 CCSD(T)
 CCSD(T)= -0.33907413493D+02

 The electronic state is 1-A'.
 Alpha  occ. eigenvalues --   -1.39205  -1.31019  -0.74781  -0.68474  -0.59260
 Alpha  occ. eigenvalues --   -0.53923  -0.50473  -0.45621
 Alpha virt. eigenvalues --    0.17445   0.26670   0.27759   0.46484   0.75246
 Alpha virt. eigenvalues --    0.76879   0.85334   0.86820   0.95801   1.01527
 Alpha virt. eigenvalues --    1.14978   1.18834   1.22394   1.35984   2.54377

 Mulliken charges:
               1
     1  O   -0.781397
     2  H    0.435849
     3  H    0.343031
     4  O   -0.813333
     5  H    0.419793
     6  H    0.396058
 Sum of Mulliken charges =   0.00000

 Dipole moment (field-independent basis, Debye):
    X=             -2.4342    Y=             -4.7419    Z=             -0.0000  Tot=              5.3302
 Quadrupole moment (field-independent basis, Debye-Ang):
   XX=             -9.5477   YY=             -8.9035   ZZ=            -15.0163
   XY=             -4.0048   XZ=             -0.0000   YZ=              0.0000

 64\MP4DQ=-33.9015358\MP4SDQ=-33.9036687\CCSD=-33.9045911\CCSD(T)=-33.9
 Normal termination of Gaussian 16 at Sun Dec 10 06:36:08 2023.
