 Gaussian 16, Revision A.03,
 Gaussian 16:  ES64L-G16RevA.03 25-Dec-2016

 ------------------
 #p CCSD(T)/CEP-31G
 ------------------

 ------------
 H2O_H2O_1227
 ------------
 Symbolic Z-matrix:
 Charge =  0 Multiplicity = 1

                         Standard orientation:
 ---------------------------------------------------------------------
 Center     Atomic      Atomic             Coordinates (Angstroms)
 Number     Number       Type             X           Y           Z
 ---------------------------------------------------------------------
      1          8           0        0.088238   -1.581752    0.000000
      2          1           0        0.087973   -0.599151    0.000000
      3          1           0       -0.841169   -1.900670    0.000000
      4          8           0        0.088238    1.437449    0.000000
      5          1           0        0.216231    2.411679    0.000000
      6          1           0       -0.874845    1.242572    0.000000
 ---------------------------------------------------------------------

 SCF Done:  E(RHF) =  -33.6539579602     A.U. after   11 cycles
 E2 =    -0.2291361955D+00 EUMP2 =    -0.33883094155731D+02
 CCSD(T)
 CCSD(T)= -0.33900090070D+02

 The electronic state is 1-A'.
 Alpha  occ. eigenvalues --   -1.38647  -1.33346  -0.74776  -0.68898  -0.58601
 Alpha  occ. eigenvalues --   -0.53175  -0.52925  -0.47874
 Alpha virt. eigenvalues --    0.16771   0.24995   0.27861   0.40275   0.76014
 Alpha virt. eigenvalues --    0.80220   0.84430   0.84837   0.90444   1.11146
 Alpha virt. eigenvalues --    1.15868   1.18875   1.22298   1.39356   2.50365

 Mulliken charges:
               1
     1  O   -0.752792
     2  H    0.395679
     3  H    0.348728
     4  O   -0.770519
     5  H    0.410875
     6  H    0.368028
 Sum of Mulliken charges =  -0.00000

 Dipole moment (field-independent basis, Debye):
    X=             -3.9330    Y=              3.7667    Z=              0.0000  Tot=              5.4458
 Quadrupole moment (field-independent basis, Debye-Ang):
   XX=            -11.0247   YY=             -9.2043   ZZ=            -14.9926
   XY=              2.6597   XZ=              0.0000   YZ=              0.0000

 82\MP4DQ=-33.8941733\MP4SDQ=-33.8963669\CCSD=-33.8973547\CCSD(T)=-33.9
 Normal termination of Gaussian 16 at Sun Dec 10 06:41:40 2023.
