 Gaussian 16, Revision A.03,
 Gaussian 16:  ES64L-G16RevA.03 25-Dec-2016

 ------------------
 #p CCSD(T)/CEP-31G
 ------------------

 ------------
 H2O_H2O_2056
 ------------
 Symbolic Z-matrix:
 Charge =  0 Multiplicity = 1

                         Standard orientation:
 ---------------------------------------------------------------------
 Center     Atomic      Atomic             Coordinates (Angstroms)
 Number     Number       Type             X           Y           Z
 ---------------------------------------------------------------------
      1          8           0        0.076770    1.921084    0.000000
      2          1           0        0.076023    0.938483    0.000000
      3          1           0       -0.852481    2.240457    0.000000
      4          8           0        0.076770   -1.757897   -0.000000
      5          1           0        0.452104   -2.665989   -0.000000
      6          1           0       -0.903965   -1.818444   -0.000000
 ---------------------------------------------------------------------

 SCF Done:  E(RHF) =  -33.6558263002     A.U. after   11 cycles
 E2 =    -0.2286495771D+00 EUMP2 =    -0.33884475877241D+02
 CCSD(T)
 CCSD(T)= -0.33901433176D+02

 The electronic state is 1-A'.
 Alpha  occ. eigenvalues --   -1.37387  -1.33695  -0.73088  -0.69281  -0.57412
 Alpha  occ. eigenvalues --   -0.53461  -0.52002  -0.48298
 Alpha virt. eigenvalues --    0.17596   0.23565   0.28854   0.34313   0.78338
 Alpha virt. eigenvalues --    0.82465   0.82798   0.85115   0.88695   0.91424
 Alpha virt. eigenvalues --    1.15489   1.19482   1.20493   1.34515   2.52954

 Mulliken charges:
               1
     1  O   -0.759159
     2  H    0.398635
     3  H    0.358350
     4  O   -0.757307
     5  H    0.387661
     6  H    0.371819
 Sum of Mulliken charges =   0.00000

 Dipole moment (field-independent basis, Debye):
    X=             -3.4747    Y=             -4.0171    Z=             -0.0000  Tot=              5.3114
 Quadrupole moment (field-independent basis, Debye-Ang):
   XX=            -10.3340   YY=             -8.0758   ZZ=            -14.9955
   XY=             -3.6496   XZ=             -0.0000   YZ=              0.0000

 643\MP4DQ=-33.8957033\MP4SDQ=-33.8977901\CCSD=-33.8988169\CCSD(T)=-33.
 Normal termination of Gaussian 16 at Sun Dec 10 06:57:42 2023.
