 Gaussian 16, Revision A.03,
 Gaussian 16:  ES64L-G16RevA.03 25-Dec-2016

 ------------------
 #p CCSD(T)/CEP-31G
 ------------------

 ------------
 H2O_H2O_3225
 ------------
 Symbolic Z-matrix:
 Charge =  0 Multiplicity = 1

                         Standard orientation:
 ---------------------------------------------------------------------
 Center     Atomic      Atomic             Coordinates (Angstroms)
 Number     Number       Type             X           Y           Z
 ---------------------------------------------------------------------
      1          8           0        0.092949   -2.373251    0.000000
      2          1           0        0.092949   -1.390649    0.000000
      3          1           0       -0.836544   -2.691917    0.000000
      4          8           0        0.092949    2.240464    0.000000
      5          1           0        0.092949    3.223065    0.000000
      6          1           0       -0.836544    1.921797    0.000000
 ---------------------------------------------------------------------

 SCF Done:  E(RHF) =  -33.6522133685     A.U. after   11 cycles
 E2 =    -0.2284068973D+00 EUMP2 =    -0.33880620265792D+02
 CCSD(T)
 CCSD(T)= -0.33897615853D+02

 The electronic state is 1-A'.
 Alpha  occ. eigenvalues --   -1.36691  -1.34979  -0.72361  -0.70577  -0.56464
 Alpha  occ. eigenvalues --   -0.54706  -0.51263  -0.49546
 Alpha virt. eigenvalues --    0.17944   0.21709   0.29339   0.31352   0.79319
 Alpha virt. eigenvalues --    0.80997   0.82347   0.83965   0.85398   0.87477
 Alpha virt. eigenvalues --    1.15843   1.18354   1.20676   1.24518   2.55513

 Mulliken charges:
               1
     1  O   -0.742977
     2  H    0.377850
     3  H    0.364894
     4  O   -0.743686
     5  H    0.377846
     6  H    0.366072
 Sum of Mulliken charges =   0.00000

 Dipole moment (field-independent basis, Debye):
    X=             -4.2575    Y=              3.1593    Z=              0.0000  Tot=              5.3016
 Quadrupole moment (field-independent basis, Debye-Ang):
   XX=            -11.2921   YY=             -9.6000   ZZ=            -14.9881
   XY=              2.2982   XZ=              0.0000   YZ=              0.0000

 213\MP4DQ=-33.8919614\MP4SDQ=-33.8939966\CCSD=-33.8950455\CCSD(T)=-33.
 Normal termination of Gaussian 16 at Sun Dec 10 06:31:07 2023.
