 Gaussian 16, Revision A.03,
 Gaussian 16:  ES64L-G16RevA.03 25-Dec-2016

 ------------------
 #p CCSD(T)/CEP-31G
 ------------------

 ------------
 H2O_H2O_1207
 ------------
 Symbolic Z-matrix:
 Charge =  0 Multiplicity = 1

                         Standard orientation:
 ---------------------------------------------------------------------
 Center     Atomic      Atomic             Coordinates (Angstroms)
 Number     Number       Type             X           Y           Z
 ---------------------------------------------------------------------
      1          8           0        0.073567    1.584050   -0.000000
      2          1           0        0.072469    0.601449   -0.000000
      3          1           0       -0.855569    1.903754   -0.000000
      4          8           0        0.073567   -1.417164    0.000000
      5          1           0        0.507176   -2.298917    0.000000
      6          1           0       -0.901152   -1.541375    0.000000
 ---------------------------------------------------------------------

 SCF Done:  E(RHF) =  -33.6588234120     A.U. after   11 cycles
 E2 =    -0.2290046251D+00 EUMP2 =    -0.33887828037043D+02
 CCSD(T)
 CCSD(T)= -0.33904620883D+02

 The electronic state is 1-A'.
 Alpha  occ. eigenvalues --   -1.38571  -1.32327  -0.74382  -0.68360  -0.58832
 Alpha  occ. eigenvalues --   -0.53208  -0.51937  -0.46918
 Alpha virt. eigenvalues --    0.17323   0.25541   0.27963   0.41585   0.76118
 Alpha virt. eigenvalues --    0.79332   0.85129   0.85289   0.92283   1.07820
 Alpha virt. eigenvalues --    1.15523   1.17690   1.21759   1.36885   2.50628

 Mulliken charges:
               1
     1  O   -0.770092
     2  H    0.419537
     3  H    0.347380
     4  O   -0.790207
     5  H    0.414432
     6  H    0.378950
 Sum of Mulliken charges =   0.00000

 Dipole moment (field-independent basis, Debye):
    X=             -3.2510    Y=             -4.3370    Z=              0.0000  Tot=              5.4202
 Quadrupole moment (field-independent basis, Debye-Ang):
   XX=            -10.1849   YY=             -8.6444   ZZ=            -15.0048
   XY=             -3.5596   XZ=              0.0000   YZ=             -0.0000

 1\MP4DQ=-33.898757\MP4SDQ=-33.9009027\CCSD=-33.9018876\CCSD(T)=-33.904
 Normal termination of Gaussian 16 at Sun Dec 10 06:41:16 2023.
