 Gaussian 16, Revision A.03,
 Gaussian 16:  ES64L-G16RevA.03 25-Dec-2016

 ------------------
 #p CCSD(T)/CEP-31G
 ------------------

 ------------
 H2O_H2O_1000
 ------------
 Symbolic Z-matrix:
 Charge =  0 Multiplicity = 1

                         Standard orientation:
 ---------------------------------------------------------------------
 Center     Atomic      Atomic             Coordinates (Angstroms)
 Number     Number       Type             X           Y           Z
 ---------------------------------------------------------------------
      1          8           0        0.092949   -1.485749    0.000000
      2          1           0        0.092949   -0.503148    0.000000
      3          1           0       -0.836544   -1.804416    0.000000
      4          8           0        0.092949    1.352962    0.000000
      5          1           0        0.092949    2.335564    0.000000
      6          1           0       -0.836544    1.034296    0.000000
 ---------------------------------------------------------------------

 SCF Done:  E(RHF) =  -33.6491171180     A.U. after   11 cycles
 E2 =    -0.2293997502D+00 EUMP2 =    -0.33878516868179D+02
 CCSD(T)
 CCSD(T)= -0.33895500109D+02

 The electronic state is 1-A'.
 Alpha  occ. eigenvalues --   -1.39344  -1.33463  -0.76017  -0.68776  -0.58967
 Alpha  occ. eigenvalues --   -0.53732  -0.52932  -0.47922
 Alpha virt. eigenvalues --    0.16492   0.25017   0.27738   0.42804   0.75049
 Alpha virt. eigenvalues --    0.79699   0.84698   0.85155   0.90693   1.12199
 Alpha virt. eigenvalues --    1.14509   1.23287   1.27070   1.38070   2.50937

 Mulliken charges:
               1
     1  O   -0.735920
     2  H    0.372747
     3  H    0.345403
     4  O   -0.762729
     5  H    0.417628
     6  H    0.362871
 Sum of Mulliken charges =  -0.00000

 Dipole moment (field-independent basis, Debye):
    X=             -4.1180    Y=              3.5728    Z=              0.0000  Tot=              5.4519
 Quadrupole moment (field-independent basis, Debye-Ang):
   XX=            -11.3625   YY=             -9.6615   ZZ=            -14.9854
   XY=              2.2264   XZ=              0.0000   YZ=              0.0000

 217\MP4DQ=-33.8894809\MP4SDQ=-33.8917429\CCSD=-33.8926909\CCSD(T)=-33.
 Normal termination of Gaussian 16 at Sun Dec 10 06:37:19 2023.
