 Gaussian 16, Revision A.03,
 Gaussian 16:  ES64L-G16RevA.03 25-Dec-2016

 ------------------
 #p CCSD(T)/CEP-31G
 ------------------

 ------------
 H2O_H2O_1124
 ------------
 Symbolic Z-matrix:
 Charge =  0 Multiplicity = 1

                         Standard orientation:
 ---------------------------------------------------------------------
 Center     Atomic      Atomic             Coordinates (Angstroms)
 Number     Number       Type             X           Y           Z
 ---------------------------------------------------------------------
      1          8           0        0.013652   -1.540010    0.000000
      2          1           0        0.009037   -0.557420    0.000000
      3          1           0       -0.914334   -1.863039    0.000000
      4          8           0        0.013652    1.380794    0.000000
      5          1           0        0.996243    1.385409    0.000000
      6          1           0       -0.309377    2.308781    0.000000
 ---------------------------------------------------------------------

 SCF Done:  E(RHF) =  -33.6610896545     A.U. after   11 cycles
 E2 =    -0.2286665951D+00 EUMP2 =    -0.33889756249662D+02
 CCSD(T)
 CCSD(T)= -0.33906466664D+02

 The electronic state is 1-A'.
 Alpha  occ. eigenvalues --   -1.38664  -1.32060  -0.74633  -0.68197  -0.59177
 Alpha  occ. eigenvalues --   -0.53320  -0.51718  -0.46744
 Alpha virt. eigenvalues --    0.17608   0.26079   0.28078   0.42832   0.75808
 Alpha virt. eigenvalues --    0.78951   0.85540   0.86347   0.90209   1.10683
 Alpha virt. eigenvalues --    1.16414   1.19196   1.22930   1.37208   2.52531

 Mulliken charges:
               1
     1  O   -0.780258
     2  H    0.409847
     3  H    0.362435
     4  O   -0.801935
     5  H    0.393068
     6  H    0.416844
 Sum of Mulliken charges =   0.00000

 Dipole moment (field-independent basis, Debye):
    X=             -0.6115    Y=              4.1760    Z=              0.0000  Tot=              4.2205
 Quadrupole moment (field-independent basis, Debye-Ang):
   XX=             -9.8404   YY=             -8.8553   ZZ=            -15.0109
   XY=              5.4567   XZ=              0.0000   YZ=              0.0000

 024\MP4DQ=-33.900609\MP4SDQ=-33.9027555\CCSD=-33.9037303\CCSD(T)=-33.9
 Normal termination of Gaussian 16 at Sun Dec 10 06:39:39 2023.
