 Gaussian 16, Revision A.03,
 Gaussian 16:  ES64L-G16RevA.03 25-Dec-2016

 ------------------
 #p CCSD(T)/CEP-31G
 ------------------

 ------------
 H2O_H2O_1500
 ------------
 Symbolic Z-matrix:
 Charge =  0 Multiplicity = 1

                         Standard orientation:
 ---------------------------------------------------------------------
 Center     Atomic      Atomic             Coordinates (Angstroms)
 Number     Number       Type             X           Y           Z
 ---------------------------------------------------------------------
      1          8           0        0.092949   -1.685188    0.000000
      2          1           0        0.092949   -0.702586    0.000000
      3          1           0       -0.836544   -2.003854    0.000000
      4          8           0        0.092949    1.552401    0.000000
      5          1           0        0.092949    2.535002    0.000000
      6          1           0       -0.836544    1.233733    0.000000
 ---------------------------------------------------------------------

 SCF Done:  E(RHF) =  -33.6526303661     A.U. after   11 cycles
 E2 =    -0.2291581863D+00 EUMP2 =    -0.33881788552421D+02
 CCSD(T)
 CCSD(T)= -0.33898868185D+02

 The electronic state is 1-A'.
 Alpha  occ. eigenvalues --   -1.38159  -1.34161  -0.74202  -0.69557  -0.58029
 Alpha  occ. eigenvalues --   -0.53794  -0.52689  -0.48689
 Alpha virt. eigenvalues --    0.16522   0.24339   0.28188   0.37177   0.76869
 Alpha virt. eigenvalues --    0.81438   0.83113   0.84540   0.88696   1.05376
 Alpha virt. eigenvalues --    1.15793   1.17022   1.21913   1.39935   2.51604

 Mulliken charges:
               1
     1  O   -0.748976
     2  H    0.389497
     3  H    0.353934
     4  O   -0.754320
     5  H    0.397302
     6  H    0.362564
 Sum of Mulliken charges =  -0.00000

 Dipole moment (field-independent basis, Debye):
    X=             -4.1788    Y=              3.3792    Z=              0.0000  Tot=              5.3741
 Quadrupole moment (field-independent basis, Debye-Ang):
   XX=            -11.3358   YY=             -9.5708   ZZ=            -14.9870
   XY=              2.2606   XZ=              0.0000   YZ=              0.0000

 5\MP4DQ=-33.8930001\MP4SDQ=-33.895168\CCSD=-33.8961704\CCSD(T)=-33.898
 Normal termination of Gaussian 16 at Sun Dec 10 06:47:04 2023.
