 Gaussian 16, Revision A.03,
 Gaussian 16:  ES64L-G16RevA.03 25-Dec-2016

 ------------------
 #p CCSD(T)/CEP-31G
 ------------------

 ------------
 H2O_H2O_2113
 ------------
 Symbolic Z-matrix:
 Charge =  0 Multiplicity = 1

                         Standard orientation:
 ---------------------------------------------------------------------
 Center     Atomic      Atomic             Coordinates (Angstroms)
 Number     Number       Type             X           Y           Z
 ---------------------------------------------------------------------
      1          8           0        0.052329    1.950086    0.000000
      2          1           0        0.050474    0.967486    0.000000
      3          1           0       -0.876561    2.270506    0.000000
      4          8           0        0.052329   -1.770230   -0.000000
      5          1           0        0.789864   -2.419498   -0.000000
      6          1           0       -0.801037   -2.257339   -0.000000
 ---------------------------------------------------------------------

 SCF Done:  E(RHF) =  -33.6578256613     A.U. after   11 cycles
 E2 =    -0.2285547924D+00 EUMP2 =    -0.33886380453757D+02
 CCSD(T)
 CCSD(T)= -0.33903261440D+02

 The electronic state is 1-A'.
 Alpha  occ. eigenvalues --   -1.37289  -1.33238  -0.72941  -0.68871  -0.57449
 Alpha  occ. eigenvalues --   -0.53072  -0.51943  -0.47882
 Alpha virt. eigenvalues --    0.18187   0.23721   0.29051   0.34662   0.78451
 Alpha virt. eigenvalues --    0.82767   0.83308   0.85773   0.88248   0.89160
 Alpha virt. eigenvalues --    1.15796   1.20172   1.20319   1.31889   2.52324

 Mulliken charges:
               1
     1  O   -0.766524
     2  H    0.403760
     3  H    0.360537
     4  O   -0.761064
     5  H    0.385400
     6  H    0.377892
 Sum of Mulliken charges =   0.00000

 Dipole moment (field-independent basis, Debye):
    X=             -2.3626    Y=             -4.4115    Z=             -0.0000  Tot=              5.0043
 Quadrupole moment (field-independent basis, Debye-Ang):
   XX=             -9.5080   YY=             -7.3535   ZZ=            -15.0005
   XY=             -4.9978   XZ=             -0.0000   YZ=              0.0000

 8129\MP4DQ=-33.8975599\MP4SDQ=-33.8996303\CCSD=-33.9006555\CCSD(T)=-33
 Normal termination of Gaussian 16 at Sun Dec 10 06:58:49 2023.
