 Gaussian 16, Revision A.03,
 Gaussian 16:  ES64L-G16RevA.03 25-Dec-2016

 ------------------
 #p CCSD(T)/CEP-31G
 ------------------

 -----------
 H2O_H2O_440
 -----------
 Symbolic Z-matrix:
 Charge =  0 Multiplicity = 1

                         Standard orientation:
 ---------------------------------------------------------------------
 Center     Atomic      Atomic             Coordinates (Angstroms)
 Number     Number       Type             X           Y           Z
 ---------------------------------------------------------------------
      1          8           0        0.045007    1.282190    0.000000
      2          1           0        0.041582    0.299595    0.000000
      3          1           0       -0.883370    1.604094    0.000000
      4          8           0        0.045007   -1.101939    0.000000
      5          1           0        0.860103   -1.650687    0.000000
      6          1           0       -0.738426   -1.695016    0.000000
 ---------------------------------------------------------------------

 SCF Done:  E(RHF) =  -33.6496804942     A.U. after   11 cycles
 E2 =    -0.2287493701D+00 EUMP2 =    -0.33878429864303D+02
 CCSD(T)
 CCSD(T)= -0.33893822481D+02

 The electronic state is 1-A'.
 Alpha  occ. eigenvalues --   -1.41678  -1.28779  -0.76624  -0.72729  -0.57713
 Alpha  occ. eigenvalues --   -0.56148  -0.47326  -0.43174
 Alpha virt. eigenvalues --    0.16946   0.26556   0.28671   0.56562   0.73798
 Alpha virt. eigenvalues --    0.73832   0.85727   0.89802   0.94879   1.01738
 Alpha virt. eigenvalues --    1.14267   1.17460   1.25305   1.36373   2.73541

 Mulliken charges:
               1
     1  O   -0.771432
     2  H    0.411278
     3  H    0.327484
     4  O   -0.833148
     5  H    0.436958
     6  H    0.428860
 Sum of Mulliken charges =   0.00000

 Dipole moment (field-independent basis, Debye):
    X=             -1.8994    Y=             -5.1951    Z=              0.0000  Tot=              5.5315
 Quadrupole moment (field-independent basis, Debye-Ang):
   XX=             -9.3302   YY=             -9.9063   ZZ=            -15.0024
   XY=             -3.7178   XZ=              0.0000   YZ=              0.0000

 78\MP4DQ=-33.8878152\MP4SDQ=-33.8900192\CCSD=-33.8907702\CCSD(T)=-33.8
 Normal termination of Gaussian 16 at Sun Dec 10 06:26:43 2023.
