 Gaussian 16, Revision A.03,
 Gaussian 16:  ES64L-G16RevA.03 25-Dec-2016

 ------------------
 #p CCSD(T)/CEP-31G
 ------------------

 -----------
 H2O_H2O_567
 -----------
 Symbolic Z-matrix:
 Charge =  0 Multiplicity = 1

                         Standard orientation:
 ---------------------------------------------------------------------
 Center     Atomic      Atomic             Coordinates (Angstroms)
 Number     Number       Type             X           Y           Z
 ---------------------------------------------------------------------
      1          8           0        0.037602    1.331281    0.000000
      2          1           0        0.033809    0.348687    0.000000
      3          1           0       -0.890654    1.653534   -0.000000
      4          8           0        0.037602   -1.152448    0.000000
      5          1           0        0.917187   -1.590440    0.000000
      6          1           0       -0.661975   -1.842446   -0.000000
 ---------------------------------------------------------------------

 SCF Done:  E(RHF) =  -33.6563272260     A.U. after   11 cycles
 E2 =    -0.2288077909D+00 EUMP2 =    -0.33885135016899D+02
 CCSD(T)
 CCSD(T)= -0.33900839169D+02

 The electronic state is 1-A'.
 Alpha  occ. eigenvalues --   -1.40797  -1.29411  -0.76116  -0.70887  -0.58554
 Alpha  occ. eigenvalues --   -0.55406  -0.48299  -0.43914
 Alpha virt. eigenvalues --    0.17197   0.26954   0.28166   0.53851   0.74108
 Alpha virt. eigenvalues --    0.74546   0.85832   0.89028   0.95899   0.99966
 Alpha virt. eigenvalues --    1.15363   1.18077   1.24777   1.37120   2.67011

 Mulliken charges:
               1
     1  O   -0.777826
     2  H    0.421002
     3  H    0.336423
     4  O   -0.834359
     5  H    0.423869
     6  H    0.430892
 Sum of Mulliken charges =   0.00000

 Dipole moment (field-independent basis, Debye):
    X=             -1.6220    Y=             -5.0241    Z=             -0.0000  Tot=              5.2794
 Quadrupole moment (field-independent basis, Debye-Ang):
   XX=             -9.3265   YY=             -9.6066   ZZ=            -15.0130
   XY=             -3.9451   XZ=              0.0000   YZ=             -0.0000

 5\MP4DQ=-33.8948863\MP4SDQ=-33.8970559\CCSD=-33.8978641\CCSD(T)=-33.90
 Normal termination of Gaussian 16 at Sun Dec 10 06:29:12 2023.
