 Gaussian 16, Revision A.03,
 Gaussian 16:  ES64L-G16RevA.03 25-Dec-2016

 ------------------
 #p CCSD(T)/CEP-31G
 ------------------

 ------------
 H2O_H2O_2394
 ------------
 Symbolic Z-matrix:
 Charge =  0 Multiplicity = 1

                         Standard orientation:
 ---------------------------------------------------------------------
 Center     Atomic      Atomic             Coordinates (Angstroms)
 Number     Number       Type             X           Y           Z
 ---------------------------------------------------------------------
      1          8           0        0.030220    2.057462   -0.000000
      2          1           0        0.027516    1.074864   -0.000000
      3          1           0       -0.898392    2.378685   -0.000000
      4          8           0        0.030220   -1.881876    0.000000
      5          1           0        0.959802   -2.200282    0.000000
      6          1           0       -0.572449   -2.657953    0.000000
 ---------------------------------------------------------------------

 SCF Done:  E(RHF) =  -33.6572212929     A.U. after   11 cycles
 E2 =    -0.2284255901D+00 EUMP2 =    -0.33885646883053D+02
 CCSD(T)
 CCSD(T)= -0.33902532350D+02

 The electronic state is 1-A'.
 Alpha  occ. eigenvalues --   -1.37051  -1.33574  -0.72703  -0.69215  -0.57132
 Alpha  occ. eigenvalues --   -0.53436  -0.51698  -0.48224
 Alpha virt. eigenvalues --    0.18315   0.23210   0.29258   0.33553   0.78800
 Alpha virt. eigenvalues --    0.82314   0.83449   0.85345   0.86602   0.88345
 Alpha virt. eigenvalues --    1.16026   1.19931   1.20510   1.30273   2.54042

 Mulliken charges:
               1
     1  O   -0.763590
     2  H    0.396362
     3  H    0.365332
     4  O   -0.758534
     5  H    0.380844
     6  H    0.379586
 Sum of Mulliken charges =  -0.00000

 Dipole moment (field-independent basis, Debye):
    X=             -1.3673    Y=             -4.2608    Z=              0.0000  Tot=              4.4749
 Quadrupole moment (field-independent basis, Debye-Ang):
   XX=             -9.4629   YY=             -7.2504   ZZ=            -14.9992
   XY=             -6.3503   XZ=              0.0000   YZ=             -0.0000

 033\MP4DQ=-33.8968577\MP4SDQ=-33.8989168\CCSD=-33.8999456\CCSD(T)=-33.
 Normal termination of Gaussian 16 at Sun Dec 10 07:05:30 2023.
