 Gaussian 16, Revision A.03,
 Gaussian 16:  ES64L-G16RevA.03 25-Dec-2016

 ------------------
 #p CCSD(T)/CEP-31G
 ------------------

 ------------
 H2O_H2O_1942
 ------------
 Symbolic Z-matrix:
 Charge =  0 Multiplicity = 1

                         Standard orientation:
 ---------------------------------------------------------------------
 Center     Atomic      Atomic             Coordinates (Angstroms)
 Number     Number       Type             X           Y           Z
 ---------------------------------------------------------------------
      1          8           0        0.037496    1.879779   -0.000000
      2          1           0        0.034865    0.897181   -0.000000
      3          1           0       -0.891140    2.200933   -0.000000
      4          8           0        0.037496   -1.700857    0.000000
      5          1           0        0.917598   -2.137809    0.000000
      6          1           0       -0.661264   -2.391682    0.000000
 ---------------------------------------------------------------------

 SCF Done:  E(RHF) =  -33.6591097831     A.U. after   11 cycles
 E2 =    -0.2285958900D+00 EUMP2 =    -0.33887705673147D+02
 CCSD(T)
 CCSD(T)= -0.33904560643D+02

 The electronic state is 1-A'.
 Alpha  occ. eigenvalues --   -1.37422  -1.33001  -0.73071  -0.68679  -0.57692
 Alpha  occ. eigenvalues --   -0.52854  -0.52093  -0.47666
 Alpha virt. eigenvalues --    0.18141   0.24152   0.28994   0.35622   0.78175
 Alpha virt. eigenvalues --    0.82513   0.83101   0.86272   0.88578   0.91353
 Alpha virt. eigenvalues --    1.15695   1.19970   1.20674   1.33005   2.51461

 Mulliken charges:
               1
     1  O   -0.772044
     2  H    0.408109
     3  H    0.361612
     4  O   -0.766308
     5  H    0.385621
     6  H    0.383009
 Sum of Mulliken charges =  -0.00000

 Dipole moment (field-independent basis, Debye):
    X=             -1.6873    Y=             -4.4156    Z=              0.0000  Tot=              4.7270
 Quadrupole moment (field-independent basis, Debye-Ang):
   XX=             -9.3985   YY=             -7.5650   ZZ=            -15.0032
   XY=             -5.4929   XZ=              0.0000   YZ=             -0.0000

 06\MP4DQ=-33.8988448\MP4SDQ=-33.9009199\CCSD=-33.9019409\CCSD(T)=-33.9
 Normal termination of Gaussian 16 at Sun Dec 10 06:55:32 2023.
