 Gaussian 16, Revision A.03,
 Gaussian 16:  ES64L-G16RevA.03 25-Dec-2016

 ------------------
 #p CCSD(T)/CEP-31G
 ------------------

 ------------
 H2O_H2O_1445
 ------------
 Symbolic Z-matrix:
 Charge =  0 Multiplicity = 1

                         Standard orientation:
 ---------------------------------------------------------------------
 Center     Atomic      Atomic             Coordinates (Angstroms)
 Number     Number       Type             X           Y           Z
 ---------------------------------------------------------------------
      1          8           0        0.026749    1.677219    0.000000
      2          1           0        0.023212    0.694624    0.000000
      3          1           0       -0.901591    1.999229   -0.000000
      4          8           0        0.026749   -1.504051    0.000000
      5          1           0        0.974949   -1.761782    0.000000
      6          1           0       -0.524561   -2.317416   -0.000000
 ---------------------------------------------------------------------

 SCF Done:  E(RHF) =  -33.6616645588     A.U. after   11 cycles
 E2 =    -0.2287672372D+00 EUMP2 =    -0.33890431795925D+02
 CCSD(T)
 CCSD(T)= -0.33907198504D+02

 The electronic state is 1-A'.
 Alpha  occ. eigenvalues --   -1.38019  -1.32326  -0.73703  -0.68245  -0.58551
 Alpha  occ. eigenvalues --   -0.52720  -0.52120  -0.47014
 Alpha virt. eigenvalues --    0.17866   0.25357   0.28558   0.39504   0.76951
 Alpha virt. eigenvalues --    0.80118   0.84451   0.86450   0.90123   1.01265
 Alpha virt. eigenvalues --    1.15379   1.18634   1.21745   1.35415   2.50249

 Mulliken charges:
               1
     1  O   -0.782479
     2  H    0.419829
     3  H    0.360133
     4  O   -0.785794
     5  H    0.390609
     6  H    0.397702
 Sum of Mulliken charges =   0.00000

 Dipole moment (field-independent basis, Debye):
    X=             -1.1972    Y=             -4.3936    Z=             -0.0000  Tot=              4.5538
 Quadrupole moment (field-independent basis, Debye-Ang):
   XX=             -9.4965   YY=             -8.2581   ZZ=            -15.0098
   XY=             -5.3392   XZ=              0.0000   YZ=             -0.0000

 943\MP4DQ=-33.9014161\MP4SDQ=-33.9035152\CCSD=-33.9045151\CCSD(T)=-33.
 Normal termination of Gaussian 16 at Sun Dec 10 06:45:59 2023.
