 Gaussian 16, Revision A.03,
 Gaussian 16:  ES64L-G16RevA.03 25-Dec-2016

 ------------------
 #p CCSD(T)/CEP-31G
 ------------------

 -----------
 H2O_H2O_703
 -----------
 Symbolic Z-matrix:
 Charge =  0 Multiplicity = 1

                         Standard orientation:
 ---------------------------------------------------------------------
 Center     Atomic      Atomic             Coordinates (Angstroms)
 Number     Number       Type             X           Y           Z
 ---------------------------------------------------------------------
      1          8           0        0.085616   -1.375199    0.000000
      2          1           0        0.085137   -0.392597    0.000000
      3          1           0       -0.843721   -1.694318    0.000000
      4          8           0        0.085616    1.225637    0.000000
      5          1           0        0.276843    2.189452    0.000000
      6          1           0       -0.888121    1.093954    0.000000
 ---------------------------------------------------------------------

 SCF Done:  E(RHF) =  -33.6480420629     A.U. after   11 cycles
 E2 =    -0.2289843273D+00 EUMP2 =    -0.33877026390171D+02
 CCSD(T)
 CCSD(T)= -0.33893609299D+02

 The electronic state is 1-A'.
 Alpha  occ. eigenvalues --   -1.40423  -1.31841  -0.77150  -0.68675  -0.59247
 Alpha  occ. eigenvalues --   -0.54733  -0.51059  -0.46265
 Alpha virt. eigenvalues --    0.16614   0.25481   0.27706   0.48580   0.74198
 Alpha virt. eigenvalues --    0.77678   0.85261   0.87169   0.94043   1.10706
 Alpha virt. eigenvalues --    1.14718   1.23284   1.31616   1.36757   2.59409

 Mulliken charges:
               1
     1  O   -0.733971
     2  H    0.373944
     3  H    0.335034
     4  O   -0.798187
     5  H    0.446827
     6  H    0.376354
 Sum of Mulliken charges =  -0.00000

 Dipole moment (field-independent basis, Debye):
    X=             -3.7145    Y=              4.2065    Z=              0.0000  Tot=              5.6118
 Quadrupole moment (field-independent basis, Debye-Ang):
   XX=            -10.8715   YY=             -9.4479   ZZ=            -14.9905
   XY=              2.7601   XZ=              0.0000   YZ=              0.0000

 932\MP4DQ=-33.8875396\MP4SDQ=-33.8898273\CCSD=-33.8907286\CCSD(T)=-33.
 Normal termination of Gaussian 16 at Sun Dec 10 06:31:44 2023.
