 Gaussian 16, Revision A.03,
 Gaussian 16:  ES64L-G16RevA.03 25-Dec-2016

 ------------------
 #p CCSD(T)/CEP-31G
 ------------------

 ------------
 H2O_H2O_4439
 ------------
 Symbolic Z-matrix:
 Charge =  0 Multiplicity = 1

                         Standard orientation:
 ---------------------------------------------------------------------
 Center     Atomic      Atomic             Coordinates (Angstroms)
 Number     Number       Type             X           Y           Z
 ---------------------------------------------------------------------
      1          8           0        0.048554    2.877779    0.000000
      2          1           0        0.047203    1.895178    0.000000
      3          1           0       -0.880500    3.197723    0.000000
      4          8           0        0.048554   -2.697359    0.000000
      5          1           0        0.827282   -3.296600    0.000000
      6          1           0       -0.770847   -3.239657    0.000000
 ---------------------------------------------------------------------

 SCF Done:  E(RHF) =  -33.6533390152     A.U. after   11 cycles
 E2 =    -0.2282999876D+00 EUMP2 =    -0.33881639002846D+02
 CCSD(T)
 CCSD(T)= -0.33898595295D+02

 The electronic state is 1-A'.
 Alpha  occ. eigenvalues --   -1.36269  -1.34640  -0.71909  -0.70269  -0.56093
 Alpha  occ. eigenvalues --   -0.54424  -0.50864  -0.49236
 Alpha virt. eigenvalues --    0.19571   0.21270   0.29836   0.31550   0.79690
 Alpha virt. eigenvalues --    0.81280   0.82535   0.84274   0.85730   0.87392
 Alpha virt. eigenvalues --    1.16699   1.18331   1.21142   1.22846   2.56667

 Mulliken charges:
               1
     1  O   -0.747173
     2  H    0.379150
     3  H    0.368008
     4  O   -0.746620
     5  H    0.374539
     6  H    0.372096
 Sum of Mulliken charges =  -0.00000

 Dipole moment (field-independent basis, Debye):
    X=             -2.2296    Y=             -4.2335    Z=              0.0000  Tot=              4.7847
 Quadrupole moment (field-independent basis, Debye-Ang):
   XX=             -9.4624   YY=             -5.1624   ZZ=            -14.9917
   XY=             -7.0891   XZ=              0.0000   YZ=              0.0000

 47\MP4DQ=-33.8929621\MP4SDQ=-33.894986\CCSD=-33.896038\CCSD(T)=-33.898
 Normal termination of Gaussian 16 at Sun Dec 10 06:52:54 2023.
