 Gaussian 16, Revision A.03,
 Gaussian 16:  ES64L-G16RevA.03 25-Dec-2016

 ------------------
 #p CCSD(T)/CEP-31G
 ------------------

 ------------
 H2O_H2O_3441
 ------------
 Symbolic Z-matrix:
 Charge =  0 Multiplicity = 1

                         Standard orientation:
 ---------------------------------------------------------------------
 Center     Atomic      Atomic             Coordinates (Angstroms)
 Number     Number       Type             X           Y           Z
 ---------------------------------------------------------------------
      1          8           0        0.041131    2.478640    0.000000
      2          1           0        0.039290    1.496040    0.000000
      3          1           0       -0.887763    2.799047    0.000000
      4          8           0        0.041131   -2.298707   -0.000000
      5          1           0        0.891168   -2.791600   -0.000000
      6          1           0       -0.700797   -2.942949   -0.000000
 ---------------------------------------------------------------------

 SCF Done:  E(RHF) =  -33.6545678638     A.U. after   11 cycles
 E2 =    -0.2282902539D+00 EUMP2 =    -0.33882858117623D+02
 CCSD(T)
 CCSD(T)= -0.33899780360D+02

 The electronic state is 1-A'.
 Alpha  occ. eigenvalues --   -1.36532  -1.34247  -0.72175  -0.69874  -0.56428
 Alpha  occ. eigenvalues --   -0.54062  -0.51144  -0.48860
 Alpha virt. eigenvalues --    0.19184   0.21866   0.29638   0.32058   0.79420
 Alpha virt. eigenvalues --    0.81630   0.82226   0.84634   0.85436   0.87778
 Alpha virt. eigenvalues --    1.16487   1.18893   1.20912   1.23999   2.56431

 Mulliken charges:
               1
     1  O   -0.751947
     2  H    0.384692
     3  H    0.366930
     4  O   -0.750496
     5  H    0.376704
     6  H    0.374117
 Sum of Mulliken charges =   0.00000

 Dipole moment (field-independent basis, Debye):
    X=             -1.8799    Y=             -4.2643    Z=             -0.0000  Tot=              4.6603
 Quadrupole moment (field-independent basis, Debye-Ang):
   XX=             -9.4102   YY=             -6.0946   ZZ=            -14.9942
   XY=             -6.7888   XZ=             -0.0000   YZ=              0.0000

 9\MP4DQ=-33.8941482\MP4SDQ=-33.8961758\CCSD=-33.8972211\CCSD(T)=-33.89
 Normal termination of Gaussian 16 at Sun Dec 10 06:34:57 2023.
