 Gaussian 16, Revision A.03,
 Gaussian 16:  ES64L-G16RevA.03 25-Dec-2016

 ------------------
 #p CCSD(T)/CEP-31G
 ------------------

 ------------
 H2O_H2O_1709
 ------------
 Symbolic Z-matrix:
 Charge =  0 Multiplicity = 1

                         Standard orientation:
 ---------------------------------------------------------------------
 Center     Atomic      Atomic             Coordinates (Angstroms)
 Number     Number       Type             X           Y           Z
 ---------------------------------------------------------------------
      1          8           0        0.066789    1.786842   -0.000000
      2          1           0        0.065482    0.804242   -0.000000
      3          1           0       -0.862279    2.106745   -0.000000
      4          8           0        0.066789   -1.613782    0.000000
      5          1           0        0.611606   -2.431511    0.000000
      6          1           0       -0.883432   -1.863956    0.000000
 ---------------------------------------------------------------------

 SCF Done:  E(RHF) =  -33.6583869345     A.U. after   11 cycles
 E2 =    -0.2287774247D+00 EUMP2 =    -0.33887164359154D+02
 CCSD(T)
 CCSD(T)= -0.33904052088D+02

 The electronic state is 1-A'.
 Alpha  occ. eigenvalues --   -1.37724  -1.32961  -0.73412  -0.68635  -0.57978
 Alpha  occ. eigenvalues --   -0.52730  -0.52375  -0.47590
 Alpha virt. eigenvalues --    0.17760   0.24455   0.28659   0.36840   0.77661
 Alpha virt. eigenvalues --    0.81749   0.83478   0.85533   0.90072   0.95987
 Alpha virt. eigenvalues --    1.15261   1.19543   1.20737   1.35207   2.50606

 Mulliken charges:
               1
     1  O   -0.769550
     2  H    0.412060
     3  H    0.355352
     4  O   -0.769251
     5  H    0.394430
     6  H    0.376959
 Sum of Mulliken charges =  -0.00000

 Dipole moment (field-independent basis, Debye):
    X=             -2.9960    Y=             -4.3282    Z=              0.0000  Tot=              5.2639
 Quadrupole moment (field-independent basis, Debye-Ang):
   XX=             -9.8981   YY=             -7.9947   ZZ=            -15.0016
   XY=             -4.0819   XZ=              0.0000   YZ=             -0.0000

 5597\MP4DQ=-33.8982889\MP4SDQ=-33.9003858\CCSD=-33.9014027\CCSD(T)=-33
 Normal termination of Gaussian 16 at Sun Dec 10 06:51:09 2023.
