 Gaussian 16, Revision A.03,
 Gaussian 16:  ES64L-G16RevA.03 25-Dec-2016

 ------------------
 #p CCSD(T)/CEP-31G
 ------------------

 -----------
 H2O_H2O_456
 -----------
 Symbolic Z-matrix:
 Charge =  0 Multiplicity = 1

                         Standard orientation:
 ---------------------------------------------------------------------
 Center     Atomic      Atomic             Coordinates (Angstroms)
 Number     Number       Type             X           Y           Z
 ---------------------------------------------------------------------
      1          8           0        0.076803   -1.282849    0.000000
      2          1           0        0.075659   -0.300249    0.000000
      3          1           0       -0.852319   -1.602598    0.000000
      4          8           0        0.076803    1.119725    0.000000
      5          1           0        0.451771    2.027968    0.000000
      6          1           0       -0.903956    1.179875    0.000000
 ---------------------------------------------------------------------

 SCF Done:  E(RHF) =  -33.6422421207     A.U. after   11 cycles
 E2 =    -0.2286956252D+00 EUMP2 =    -0.33870937745932D+02
 CCSD(T)
 CCSD(T)= -0.33886832474D+02

 The electronic state is 1-A'.
 Alpha  occ. eigenvalues --   -1.41818  -1.30075  -0.78338  -0.70564  -0.58250
 Alpha  occ. eigenvalues --   -0.55981  -0.48813  -0.44413
 Alpha virt. eigenvalues --    0.16566   0.25439   0.28395   0.54524   0.73678
 Alpha virt. eigenvalues --    0.75726   0.86056   0.89000   0.96576   1.07829
 Alpha virt. eigenvalues --    1.14924   1.23444   1.25181   1.36328   2.75304

 Mulliken charges:
               1
     1  O   -0.736297
     2  H    0.378815
     3  H    0.323377
     4  O   -0.827702
     5  H    0.468877
     6  H    0.392929
 Sum of Mulliken charges =  -0.00000

 Dipole moment (field-independent basis, Debye):
    X=             -3.2299    Y=              4.7772    Z=              0.0000  Tot=              5.7666
 Quadrupole moment (field-independent basis, Debye-Ang):
   XX=            -10.3355   YY=             -9.7089   ZZ=            -14.9847
   XY=              3.1411   XZ=              0.0000   YZ=              0.0000

 4\MP4DQ=-33.8807201\MP4SDQ=-33.8830232\CCSD=-33.8838332\CCSD(T)=-33.88
 Normal termination of Gaussian 16 at Sun Dec 10 06:27:05 2023.
