 Gaussian 16, Revision A.03,
 Gaussian 16:  ES64L-G16RevA.03 25-Dec-2016

 ------------------
 #p CCSD(T)/CEP-31G
 ------------------

 -----------
 H2O_H2O_174
 -----------
 Symbolic Z-matrix:
 Charge =  0 Multiplicity = 1

                         Standard orientation:
 ---------------------------------------------------------------------
 Center     Atomic      Atomic             Coordinates (Angstroms)
 Number     Number       Type             X           Y           Z
 ---------------------------------------------------------------------
      1          8           0       -0.013783   -1.161060   -0.000000
      2          1           0       -0.007551   -0.178479   -0.000000
      3          1           0        0.913670   -1.485615   -0.000000
      4          8           0       -0.013783    1.001889    0.000000
      5          1           0       -0.996364    1.008120    0.000000
      6          1           0        0.310773    1.929343    0.000000
 ---------------------------------------------------------------------

 SCF Done:  E(RHF) =  -33.6105765225     A.U. after   11 cycles
 E2 =    -0.2270541380D+00 EUMP2 =    -0.33837630660441D+02
 CCSD(T)
 CCSD(T)= -0.33852656331D+02

 The electronic state is 1-A'.
 Alpha  occ. eigenvalues --   -1.44864  -1.27844  -0.82329  -0.72399  -0.57985
 Alpha  occ. eigenvalues --   -0.57006  -0.45374  -0.42107
 Alpha virt. eigenvalues --    0.17018   0.24803   0.29825   0.60777   0.73395
 Alpha virt. eigenvalues --    0.75021   0.90224   0.90958   0.93265   1.04858
 Alpha virt. eigenvalues --    1.13120   1.20013   1.30153   1.44617   2.95251

 Mulliken charges:
               1
     1  O   -0.736772
     2  H    0.280477
     3  H    0.335839
     4  O   -0.805198
     5  H    0.432114
     6  H    0.493541
 Sum of Mulliken charges =   0.00000

 Dipole moment (field-independent basis, Debye):
    X=              0.5974    Y=              5.1014    Z=              0.0000  Tot=              5.1363
 Quadrupole moment (field-independent basis, Debye-Ang):
   XX=             -9.7292   YY=            -10.2799   ZZ=            -14.9431
   XY=             -3.9284   XZ=             -0.0000   YZ=              0.0000

 79\MP4DQ=-33.8465049\MP4SDQ=-33.8488414\CCSD=-33.8495294\CCSD(T)=-33.8
 Normal termination of Gaussian 16 at Sun Dec 10 06:21:28 2023.
