 Gaussian 16, Revision A.03,
 Gaussian 16:  ES64L-G16RevA.03 25-Dec-2016

 ------------------
 #p CCSD(T)/CEP-31G
 ------------------

 -----------
 H2O_H2O_281
 -----------
 Symbolic Z-matrix:
 Charge =  0 Multiplicity = 1

                         Standard orientation:
 ---------------------------------------------------------------------
 Center     Atomic      Atomic             Coordinates (Angstroms)
 Number     Number       Type             X           Y           Z
 ---------------------------------------------------------------------
      1          8           0        0.076809   -1.213040    0.000000
      2          1           0        0.075594   -0.230440    0.000000
      3          1           0       -0.852290   -1.532855    0.000000
      4          8           0        0.076809    1.049927    0.000000
      5          1           0        0.451711    1.958197    0.000000
      6          1           0       -0.903955    1.110007    0.000000
 ---------------------------------------------------------------------

 SCF Done:  E(RHF) =  -33.6257490013     A.U. after   11 cycles
 E2 =    -0.2284052282D+00 EUMP2 =    -0.33854154229505D+02
 CCSD(T)
 CCSD(T)= -0.33869620152D+02

 The electronic state is 1-A'.
 Alpha  occ. eigenvalues --   -1.43501  -1.29155  -0.80318  -0.72233  -0.57180
 Alpha  occ. eigenvalues --   -0.57052  -0.47382  -0.43348
 Alpha virt. eigenvalues --    0.16309   0.24706   0.29169   0.58182   0.73355
 Alpha virt. eigenvalues --    0.75085   0.87268   0.90015   0.96782   1.07559
 Alpha virt. eigenvalues --    1.13465   1.23526   1.24823   1.37205   2.88829

 Mulliken charges:
               1
     1  O   -0.722273
     2  H    0.344899
     3  H    0.313360
     4  O   -0.819793
     5  H    0.484271
     6  H    0.399536
 Sum of Mulliken charges =  -0.00000

 Dipole moment (field-independent basis, Debye):
    X=             -3.1706    Y=              5.0045    Z=              0.0000  Tot=              5.9243
 Quadrupole moment (field-independent basis, Debye-Ang):
   XX=            -10.3179   YY=            -10.0602   ZZ=            -14.9584
   XY=              3.0527   XZ=              0.0000   YZ=              0.0000

 04\MP4DQ=-33.8634127\MP4SDQ=-33.8657841\CCSD=-33.8665175\CCSD(T)=-33.8
 Normal termination of Gaussian 16 at Sun Dec 10 06:23:35 2023.
