 Gaussian 16, Revision A.03,
 Gaussian 16:  ES64L-G16RevA.03 25-Dec-2016

 ------------------
 #p CCSD(T)/CEP-31G
 ------------------

 ------------
 H2O_H2O_3597
 ------------
 Symbolic Z-matrix:
 Charge =  0 Multiplicity = 1

                         Standard orientation:
 ---------------------------------------------------------------------
 Center     Atomic      Atomic             Coordinates (Angstroms)
 Number     Number       Type             X           Y           Z
 ---------------------------------------------------------------------
      1          8           0       -0.019844    2.531510    0.000000
      2          1           0       -0.017310    1.548912    0.000000
      3          1           0        0.908825    2.852572    0.000000
      4          8           0       -0.019844   -2.364398    0.000000
      5          1           0       -0.993705   -2.495165    0.000000
      6          1           0        0.419688   -3.243215    0.000000
 ---------------------------------------------------------------------

 SCF Done:  E(RHF) =  -33.6543473872     A.U. after   11 cycles
 E2 =    -0.2282736558D+00 EUMP2 =    -0.33882621043043D+02
 CCSD(T)
 CCSD(T)= -0.33899551292D+02

 The electronic state is 1-A'.
 Alpha  occ. eigenvalues --   -1.36469  -1.34476  -0.72114  -0.70116  -0.56349
 Alpha  occ. eigenvalues --   -0.54295  -0.51077  -0.49091
 Alpha virt. eigenvalues --    0.19210   0.21627   0.29661   0.31824   0.79482
 Alpha virt. eigenvalues --    0.81408   0.82243   0.84359   0.85501   0.87541
 Alpha virt. eigenvalues --    1.16528   1.18640   1.20923   1.23657   2.56490

 Mulliken charges:
               1
     1  O   -0.751105
     2  H    0.381731
     3  H    0.369191
     4  O   -0.750208
     5  H    0.375058
     6  H    0.375333
 Sum of Mulliken charges =  -0.00000

 Dipole moment (field-independent basis, Debye):
    X=              0.9074    Y=             -3.9478    Z=              0.0000  Tot=              4.0508
 Quadrupole moment (field-independent basis, Debye-Ang):
   XX=             -9.6769   YY=             -6.8548   ZZ=            -14.9936
   XY=              8.5805   XZ=              0.0000   YZ=              0.0000

 683\MP4DQ=-33.8939198\MP4SDQ=-33.8959453\CCSD=-33.8969928\CCSD(T)=-33.
 Normal termination of Gaussian 16 at Sun Dec 10 06:37:43 2023.
