 Gaussian 16, Revision A.03,
 Gaussian 16:  ES64L-G16RevA.03 25-Dec-2016

 ------------------
 #p CCSD(T)/CEP-31G
 ------------------

 ------------
 H2O_H2O_2308
 ------------
 Symbolic Z-matrix:
 Charge =  0 Multiplicity = 1

                         Standard orientation:
 ---------------------------------------------------------------------
 Center     Atomic      Atomic             Coordinates (Angstroms)
 Number     Number       Type             X           Y           Z
 ---------------------------------------------------------------------
      1          8           0        0.070211    2.024627    0.000000
      2          1           0        0.069215    1.042026    0.000000
      3          1           0       -0.858959    2.344235    0.000000
      4          8           0        0.070211   -1.854402   -0.000000
      5          1           0        0.560649   -2.705857   -0.000000
      6          1           0       -0.894278   -2.042198   -0.000000
 ---------------------------------------------------------------------

 SCF Done:  E(RHF) =  -33.6558508499     A.U. after   11 cycles
 E2 =    -0.2285274094D+00 EUMP2 =    -0.33884378259349D+02
 CCSD(T)
 CCSD(T)= -0.33901308811D+02

 The electronic state is 1-A'.
 Alpha  occ. eigenvalues --   -1.37165  -1.33728  -0.72837  -0.69324  -0.57170
 Alpha  occ. eigenvalues --   -0.53522  -0.51786  -0.48341
 Alpha virt. eigenvalues --    0.17982   0.23159   0.29054   0.33544   0.78692
 Alpha virt. eigenvalues --    0.82254   0.83398   0.85130   0.87578   0.88573
 Alpha virt. eigenvalues --    1.15797   1.19738   1.20382   1.31455   2.53838

 Mulliken charges:
               1
     1  O   -0.758435
     2  H    0.396134
     3  H    0.360421
     4  O   -0.755308
     5  H    0.384223
     6  H    0.372965
 Sum of Mulliken charges =   0.00000

 Dipole moment (field-independent basis, Debye):
    X=             -3.1855    Y=             -4.1493    Z=             -0.0000  Tot=              5.2310
 Quadrupole moment (field-independent basis, Debye-Ang):
   XX=            -10.0323   YY=             -7.5810   ZZ=            -14.9960
   XY=             -4.1619   XZ=             -0.0000   YZ=              0.0000

 677\MP4DQ=-33.8956142\MP4SDQ=-33.8976826\CCSD=-33.8987126\CCSD(T)=-33.
 Normal termination of Gaussian 16 at Sun Dec 10 07:03:54 2023.
