 Gaussian 16, Revision A.03,
 Gaussian 16:  ES64L-G16RevA.03 25-Dec-2016

 ------------------
 #p CCSD(T)/CEP-31G
 ------------------

 ------------
 H2O_H2O_2877
 ------------
 Symbolic Z-matrix:
 Charge =  0 Multiplicity = 1

                         Standard orientation:
 ---------------------------------------------------------------------
 Center     Atomic      Atomic             Coordinates (Angstroms)
 Number     Number       Type             X           Y           Z
 ---------------------------------------------------------------------
      1          8           0        0.088232   -2.239907    0.000000
      2          1           0        0.088047   -1.257306    0.000000
      3          1           0       -0.841201   -2.558748    0.000000
      4          8           0        0.088232    2.095589    0.000000
      5          1           0        0.216304    3.069808    0.000000
      6          1           0       -0.874867    1.900790    0.000000
 ---------------------------------------------------------------------

 SCF Done:  E(RHF) =  -33.6529754396     A.U. after   11 cycles
 E2 =    -0.2284383931D+00 EUMP2 =    -0.33881413832739D+02
 CCSD(T)
 CCSD(T)= -0.33898394505D+02

 The electronic state is 1-A'.
 Alpha  occ. eigenvalues --   -1.36843  -1.34665  -0.72520  -0.70254  -0.56657
 Alpha  occ. eigenvalues --   -0.54406  -0.51424  -0.49241
 Alpha virt. eigenvalues --    0.17747   0.22151   0.29250   0.31768   0.79150
 Alpha virt. eigenvalues --    0.81302   0.82590   0.84290   0.85623   0.87783
 Alpha virt. eigenvalues --    1.15811   1.18781   1.20578   1.26804   2.56150

 Mulliken charges:
               1
     1  O   -0.746207
     2  H    0.382178
     3  H    0.363417
     4  O   -0.746343
     5  H    0.379646
     6  H    0.367309
 Sum of Mulliken charges =  -0.00000

 Dipole moment (field-independent basis, Debye):
    X=             -4.0315    Y=              3.4582    Z=              0.0000  Tot=              5.3116
 Quadrupole moment (field-independent basis, Debye-Ang):
   XX=            -10.9794   YY=             -8.7879   ZZ=            -14.9897
   XY=              2.8392   XZ=              0.0000   YZ=              0.0000

 886\MP4DQ=-33.8927308\MP4SDQ=-33.8947751\CCSD=-33.8958178\CCSD(T)=-33.
 Normal termination of Gaussian 16 at Sun Dec 10 06:24:47 2023.
