 Gaussian 16, Revision A.03,
 Gaussian 16:  ES64L-G16RevA.03 25-Dec-2016

 ------------------
 #p CCSD(T)/CEP-31G
 ------------------

 ------------
 H2O_H2O_2906
 ------------
 Symbolic Z-matrix:
 Charge =  0 Multiplicity = 1

                         Standard orientation:
 ---------------------------------------------------------------------
 Center     Atomic      Atomic             Coordinates (Angstroms)
 Number     Number       Type             X           Y           Z
 ---------------------------------------------------------------------
      1          8           0        0.076760    2.260138   -0.000000
      2          1           0        0.076129    1.277537   -0.000000
      3          1           0       -0.852528    2.579402   -0.000000
      4          8           0        0.076760   -2.096934    0.000000
      5          1           0        0.452202   -3.004981    0.000000
      6          1           0       -0.903967   -2.157596    0.000000
 ---------------------------------------------------------------------

 SCF Done:  E(RHF) =  -33.6540413783     A.U. after   11 cycles
 E2 =    -0.2283949049D+00 EUMP2 =    -0.33882436283207D+02
 CCSD(T)
 CCSD(T)= -0.33899383540D+02

 The electronic state is 1-A'.
 Alpha  occ. eigenvalues --   -1.36803  -1.34305  -0.72466  -0.69903  -0.56675
 Alpha  occ. eigenvalues --   -0.54080  -0.51402  -0.48899
 Alpha virt. eigenvalues --    0.18347   0.22173   0.29282   0.32156   0.79170
 Alpha virt. eigenvalues --    0.81614   0.82673   0.84657   0.85350   0.88001
 Alpha virt. eigenvalues --    1.16103   1.19055   1.20583   1.26504   2.55999

 Mulliken charges:
               1
     1  O   -0.750254
     2  H    0.386106
     3  H    0.363367
     4  O   -0.749367
     5  H    0.379760
     6  H    0.370388
 Sum of Mulliken charges =  -0.00000

 Dipole moment (field-independent basis, Debye):
    X=             -3.5042    Y=             -3.9102    Z=              0.0000  Tot=              5.2506
 Quadrupole moment (field-independent basis, Debye-Ang):
   XX=            -10.3254   YY=             -7.5611   ZZ=            -14.9925
   XY=             -3.9104   XZ=              0.0000   YZ=             -0.0000

 5\MP4DQ=-33.8937281\MP4SDQ=-33.8957704\CCSD=-33.896811\CCSD(T)=-33.899
 Normal termination of Gaussian 16 at Sun Dec 10 06:25:18 2023.
