 Gaussian 16, Revision A.03,
 Gaussian 16:  ES64L-G16RevA.03 25-Dec-2016

 ------------------
 #p CCSD(T)/CEP-31G
 ------------------

 -----------
 H2O_H2O_802
 -----------
 Symbolic Z-matrix:
 Charge =  0 Multiplicity = 1

                         Standard orientation:
 ---------------------------------------------------------------------
 Center     Atomic      Atomic             Coordinates (Angstroms)
 Number     Number       Type             X           Y           Z
 ---------------------------------------------------------------------
      1          8           0        0.088241   -1.412226    0.000000
      2          1           0        0.087942   -0.429625    0.000000
      3          1           0       -0.841155   -1.731176    0.000000
      4          8           0        0.088241    1.267929    0.000000
      5          1           0        0.216200    2.242163    0.000000
      6          1           0       -0.874836    1.073019    0.000000
 ---------------------------------------------------------------------

 SCF Done:  E(RHF) =  -33.6488798919     A.U. after   11 cycles
 E2 =    -0.2291247611D+00 EUMP2 =    -0.33878004652962D+02
 CCSD(T)
 CCSD(T)= -0.33894761985D+02

 The electronic state is 1-A'.
 Alpha  occ. eigenvalues --   -1.40007  -1.32424  -0.76726  -0.68519  -0.59271
 Alpha  occ. eigenvalues --   -0.54352  -0.51753  -0.46865
 Alpha virt. eigenvalues --    0.16598   0.25389   0.27630   0.46479   0.74462
 Alpha virt. eigenvalues --    0.78388   0.85051   0.86479   0.92875   1.11432
 Alpha virt. eigenvalues --    1.14559   1.23294   1.32184   1.36384   2.55243

 Mulliken charges:
               1
     1  O   -0.734778
     2  H    0.373280
     3  H    0.338822
     4  O   -0.785410
     5  H    0.436629
     6  H    0.371457
 Sum of Mulliken charges =  -0.00000

 Dipole moment (field-independent basis, Debye):
    X=             -3.8619    Y=              3.9964    Z=              0.0000  Tot=              5.5574
 Quadrupole moment (field-independent basis, Debye-Ang):
   XX=            -11.0432   YY=             -9.4558   ZZ=            -14.9897
   XY=              2.5958   XZ=              0.0000   YZ=              0.0000

 77\MP4DQ=-33.8887095\MP4SDQ=-33.8909891\CCSD=-33.8919117\CCSD(T)=-33.8
 Normal termination of Gaussian 16 at Sun Dec 10 06:33:36 2023.
