 Gaussian 16, Revision A.03,
 Gaussian 16:  ES64L-G16RevA.03 25-Dec-2016

 ------------------
 #p CCSD(T)/CEP-31G
 ------------------

 ------------
 H2O_H2O_1285
 ------------
 Symbolic Z-matrix:
 Charge =  0 Multiplicity = 1

                         Standard orientation:
 ---------------------------------------------------------------------
 Center     Atomic      Atomic             Coordinates (Angstroms)
 Number     Number       Type             X           Y           Z
 ---------------------------------------------------------------------
      1          8           0        0.063284    1.618613   -0.000000
      2          1           0        0.061636    0.636013   -0.000000
      3          1           0       -0.865674    1.938838    0.000000
      4          8           0        0.063284   -1.443174   -0.000000
      5          1           0        0.660146   -2.223727   -0.000000
      6          1           0       -0.868649   -1.754636    0.000000
 ---------------------------------------------------------------------

 SCF Done:  E(RHF) =  -33.6606819874     A.U. after   11 cycles
 E2 =    -0.2289970484D+00 EUMP2 =    -0.33889679035703D+02
 CCSD(T)
 CCSD(T)= -0.33906410433D+02

 The electronic state is 1-A'.
 Alpha  occ. eigenvalues --   -1.38364  -1.32112  -0.74048  -0.68184  -0.58789
 Alpha  occ. eigenvalues --   -0.53049  -0.51782  -0.46739
 Alpha virt. eigenvalues --    0.17609   0.25563   0.28214   0.41162   0.76435
 Alpha virt. eigenvalues --    0.79426   0.85034   0.85515   0.92579   1.02458
 Alpha virt. eigenvalues --    1.14927   1.18903   1.21442   1.35340   2.50121

 Mulliken charges:
               1
     1  O   -0.777397
     2  H    0.426406
     3  H    0.349586
     4  O   -0.789769
     5  H    0.407733
     6  H    0.383441
 Sum of Mulliken charges =   0.00000

 Dipole moment (field-independent basis, Debye):
    X=             -2.7969    Y=             -4.5085    Z=              0.0000  Tot=              5.3056
 Quadrupole moment (field-independent basis, Debye-Ang):
   XX=             -9.7680   YY=             -8.4152   ZZ=            -15.0088
   XY=             -4.0148   XZ=             -0.0000   YZ=              0.0000

 58\MP4DQ=-33.9005874\MP4SDQ=-33.9027029\CCSD=-33.903689\CCSD(T)=-33.90
 Normal termination of Gaussian 16 at Sun Dec 10 06:42:48 2023.
