 Gaussian 16, Revision A.03,
 Gaussian 16:  ES64L-G16RevA.03 25-Dec-2016

 ------------------
 #p CCSD(T)/CEP-31G
 ------------------

 ------------
 H2O_H2O_1738
 ------------
 Symbolic Z-matrix:
 Charge =  0 Multiplicity = 1

                         Standard orientation:
 ---------------------------------------------------------------------
 Center     Atomic      Atomic             Coordinates (Angstroms)
 Number     Number       Type             X           Y           Z
 ---------------------------------------------------------------------
      1          8           0        0.052344    1.800499    0.000000
      2          1           0        0.050326    0.817899    0.000000
      3          1           0       -0.876493    2.121073    0.000000
      4          8           0        0.052344   -1.620661    0.000000
      5          1           0        0.789772   -2.270050    0.000000
      6          1           0       -0.801102   -2.107628    0.000000
 ---------------------------------------------------------------------

 SCF Done:  E(RHF) =  -33.6596133180     A.U. after   11 cycles
 E2 =    -0.2287350613D+00 EUMP2 =    -0.33888348379315D+02
 CCSD(T)
 CCSD(T)= -0.33905184203D+02

 The electronic state is 1-A'.
 Alpha  occ. eigenvalues --   -1.37657  -1.32738  -0.73306  -0.68451  -0.58004
 Alpha  occ. eigenvalues --   -0.52549  -0.52334  -0.47393
 Alpha virt. eigenvalues --    0.18007   0.24562   0.28784   0.36985   0.77751
 Alpha virt. eigenvalues --    0.81827   0.83587   0.85934   0.90154   0.93655
 Alpha virt. eigenvalues --    1.15428   1.19994   1.20665   1.33640   2.50340

 Mulliken charges:
               1
     1  O   -0.774119
     2  H    0.414822
     3  H    0.357303
     4  O   -0.770773
     5  H    0.391270
     6  H    0.381498
 Sum of Mulliken charges =   0.00000

 Dipole moment (field-independent basis, Debye):
    X=             -2.3460    Y=             -4.4822    Z=              0.0000  Tot=              5.0591
 Quadrupole moment (field-independent basis, Debye-Ang):
   XX=             -9.5017   YY=             -7.7722   ZZ=            -15.0046
   XY=             -4.7121   XZ=              0.0000   YZ=              0.0000

 085\MP4DQ=-33.8994414\MP4SDQ=-33.9015245\CCSD=-33.9025398\CCSD(T)=-33.
 Normal termination of Gaussian 16 at Sun Dec 10 06:51:42 2023.
