 Gaussian 16, Revision A.03,
 Gaussian 16:  ES64L-G16RevA.03 25-Dec-2016

 ------------------
 #p CCSD(T)/CEP-31G
 ------------------

 ------------
 H2O_H2O_3269
 ------------
 Symbolic Z-matrix:
 Charge =  0 Multiplicity = 1

                         Standard orientation:
 ---------------------------------------------------------------------
 Center     Atomic      Atomic             Coordinates (Angstroms)
 Number     Number       Type             X           Y           Z
 ---------------------------------------------------------------------
      1          8           0        0.030184    2.406490    0.000000
      2          1           0        0.027886    1.423892    0.000000
      3          1           0       -0.898562    2.727329    0.000000
      4          8           0        0.030184   -2.230880    0.000000
      5          1           0        0.959898   -2.548901    0.000000
      6          1           0       -0.572164   -3.007206    0.000000
 ---------------------------------------------------------------------

 SCF Done:  E(RHF) =  -33.6549468930     A.U. after   11 cycles
 E2 =    -0.2282899505D+00 EUMP2 =    -0.33883236843436D+02
 CCSD(T)
 CCSD(T)= -0.33900150910D+02

 The electronic state is 1-A'.
 Alpha  occ. eigenvalues --   -1.36590  -1.34207  -0.72234  -0.69840  -0.56507
 Alpha  occ. eigenvalues --   -0.54035  -0.51207  -0.48828
 Alpha virt. eigenvalues --    0.19035   0.21992   0.29577   0.32155   0.79358
 Alpha virt. eigenvalues --    0.81658   0.82276   0.84563   0.85469   0.87792
 Alpha virt. eigenvalues --    1.16438   1.19011   1.20834   1.24595   2.56342

 Mulliken charges:
               1
     1  O   -0.753473
     2  H    0.385377
     3  H    0.367633
     4  O   -0.751750
     5  H    0.376715
     6  H    0.375498
 Sum of Mulliken charges =  -0.00000

 Dipole moment (field-independent basis, Debye):
    X=             -1.3774    Y=             -4.1716    Z=              0.0000  Tot=              4.3931
 Quadrupole moment (field-independent basis, Debye-Ang):
   XX=             -9.4702   YY=             -6.5162   ZZ=            -14.9949
   XY=             -7.3718   XZ=              0.0000   YZ=              0.0000

 32\MP4DQ=-33.8945169\MP4SDQ=-33.8965469\CCSD=-33.8975899\CCSD(T)=-33.9
 Normal termination of Gaussian 16 at Sun Dec 10 06:31:54 2023.
