 Gaussian 16, Revision A.03,
 Gaussian 16:  ES64L-G16RevA.03 25-Dec-2016

 ------------------
 #p CCSD(T)/CEP-31G
 ------------------

 ------------
 H2O_H2O_4930
 ------------
 Symbolic Z-matrix:
 Charge =  0 Multiplicity = 1

                         Standard orientation:
 ---------------------------------------------------------------------
 Center     Atomic      Atomic             Coordinates (Angstroms)
 Number     Number       Type             X           Y           Z
 ---------------------------------------------------------------------
      1          8           0        0.079842    3.065624    0.000000
      2          1           0        0.079470    2.083022    0.000000
      3          1           0       -0.849530    3.384642    0.000000
      4          8           0        0.079842   -2.906543   -0.000000
      5          1           0        0.395336   -3.837118   -0.000000
      6          1           0       -0.902754   -2.903191   -0.000000
 ---------------------------------------------------------------------

 SCF Done:  E(RHF) =  -33.6524185954     A.U. after   11 cycles
 E2 =    -0.2283395842D+00 EUMP2 =    -0.33880758179578D+02
 CCSD(T)
 CCSD(T)= -0.33897741111D+02

 The electronic state is 1-A'.
 Alpha  occ. eigenvalues --   -1.36206  -1.34993  -0.71849  -0.70616  -0.55979
 Alpha  occ. eigenvalues --   -0.54743  -0.50786  -0.49572
 Alpha virt. eigenvalues --    0.19587   0.20851   0.29845   0.31108   0.79770
 Alpha virt. eigenvalues --    0.80963   0.82720   0.83972   0.85822   0.87117
 Alpha virt. eigenvalues --    1.16724   1.17934   1.21174   1.22424   2.56719

 Mulliken charges:
               1
     1  O   -0.743612
     2  H    0.375811
     3  H    0.367799
     4  O   -0.743662
     5  H    0.373998
     6  H    0.369666
 Sum of Mulliken charges =   0.00000

 Dipole moment (field-independent basis, Debye):
    X=             -3.6749    Y=             -3.7247    Z=             -0.0000  Tot=              5.2324
 Quadrupole moment (field-independent basis, Debye-Ang):
   XX=            -10.4730   YY=             -6.8350   ZZ=            -14.9896
   XY=             -4.1495   XZ=             -0.0000   YZ=              0.0000

 3579\MP4DQ=-33.8921011\MP4SDQ=-33.8941271\CCSD=-33.8951814\CCSD(T)=-33
 Normal termination of Gaussian 16 at Sun Dec 10 07:02:54 2023.
