 Gaussian 16, Revision A.03,
 Gaussian 16:  ES64L-G16RevA.03 25-Dec-2016

 ------------------
 #p CCSD(T)/CEP-31G
 ------------------

 ------------
 H2O_H2O_2678
 ------------
 Symbolic Z-matrix:
 Charge =  0 Multiplicity = 1

                         Standard orientation:
 ---------------------------------------------------------------------
 Center     Atomic      Atomic             Coordinates (Angstroms)
 Number     Number       Type             X           Y           Z
 ---------------------------------------------------------------------
      1          8           0        0.085603   -2.162997    0.000000
      2          1           0        0.085304   -1.180395    0.000000
      3          1           0       -0.843793   -2.481946    0.000000
      4          8           0        0.085603    2.013404    0.000000
      5          1           0        0.277006    2.977184    0.000000
      6          1           0       -0.888160    1.881900    0.000000
 ---------------------------------------------------------------------

 SCF Done:  E(RHF) =  -33.6534948441     A.U. after   11 cycles
 E2 =    -0.2284731108D+00 EUMP2 =    -0.33881967954877D+02
 CCSD(T)
 CCSD(T)= -0.33898942477D+02

 The electronic state is 1-A'.
 Alpha  occ. eigenvalues --   -1.36949  -1.34471  -0.72630  -0.70055  -0.56795
 Alpha  occ. eigenvalues --   -0.54219  -0.51536  -0.49052
 Alpha virt. eigenvalues --    0.17651   0.22435   0.29161   0.32135   0.79022
 Alpha virt. eigenvalues --    0.81504   0.82844   0.84506   0.86057   0.87958
 Alpha virt. eigenvalues --    1.15766   1.19012   1.20505   1.28590   2.55921

 Mulliken charges:
               1
     1  O   -0.748521
     2  H    0.385136
     3  H    0.362441
     4  O   -0.748080
     5  H    0.380905
     6  H    0.368119
 Sum of Mulliken charges =   0.00000

 Dipole moment (field-independent basis, Debye):
    X=             -3.9049    Y=              3.6031    Z=              0.0000  Tot=              5.3132
 Quadrupole moment (field-independent basis, Debye-Ang):
   XX=            -10.8171   YY=             -8.4976   ZZ=            -14.9907
   XY=              3.0806   XZ=              0.0000   YZ=              0.0000

 55\MP4DQ=-33.8932685\MP4SDQ=-33.8953212\CCSD=-33.8963598\CCSD(T)=-33.8
 Normal termination of Gaussian 16 at Sun Dec 10 06:21:13 2023.
