 Gaussian 16, Revision A.03,
 Gaussian 16:  ES64L-G16RevA.03 25-Dec-2016

 ------------------
 #p CCSD(T)/CEP-31G
 ------------------

 -----------
 H2O_H2O_694
 -----------
 Symbolic Z-matrix:
 Charge =  0 Multiplicity = 1

                         Standard orientation:
 ---------------------------------------------------------------------
 Center     Atomic      Atomic             Coordinates (Angstroms)
 Number     Number       Type             X           Y           Z
 ---------------------------------------------------------------------
      1          8           0        0.030347    1.379330    0.000000
      2          1           0        0.026223    0.396737    0.000000
      3          1           0       -0.897800    1.701895   -0.000000
      4          8           0        0.030347   -1.203832    0.000000
      5          1           0        0.959469   -1.523581    0.000000
      6          1           0       -0.573442   -1.979038   -0.000000
 ---------------------------------------------------------------------

 SCF Done:  E(RHF) =  -33.6598107910     A.U. after   11 cycles
 E2 =    -0.2287708724D+00 EUMP2 =    -0.33888581663326D+02
 CCSD(T)
 CCSD(T)= -0.33904589808D+02

 The electronic state is 1-A'.
 Alpha  occ. eigenvalues --   -1.40113  -1.30063  -0.75736  -0.69463  -0.59162
 Alpha  occ. eigenvalues --   -0.54776  -0.49219  -0.44645
 Alpha virt. eigenvalues --    0.17390   0.27214   0.27706   0.51028   0.74458
 Alpha virt. eigenvalues --    0.75564   0.86142   0.88216   0.95076   1.01590
 Alpha virt. eigenvalues --    1.15966   1.18891   1.24395   1.37379   2.61798

 Mulliken charges:
               1
     1  O   -0.780916
     2  H    0.422737
     3  H    0.344540
     4  O   -0.831503
     5  H    0.413277
     6  H    0.431864
 Sum of Mulliken charges =  -0.00000

 Dipole moment (field-independent basis, Debye):
    X=             -1.3344    Y=             -4.8341    Z=             -0.0000  Tot=              5.0149
 Quadrupole moment (field-independent basis, Debye-Ang):
   XX=             -9.3995   YY=             -9.3228   ZZ=            -15.0173
   XY=             -4.2317   XZ=              0.0000   YZ=             -0.0000

 174\MP4DQ=-33.898674\MP4SDQ=-33.9008261\CCSD=-33.9016886\CCSD(T)=-33.9
 Normal termination of Gaussian 16 at Sun Dec 10 06:31:34 2023.
