 Gaussian 16, Revision A.03,
 Gaussian 16:  ES64L-G16RevA.03 25-Dec-2016

 ------------------
 #p CCSD(T)/CEP-31G
 ------------------

 ------------
 H2O_H2O_1387
 ------------
 Symbolic Z-matrix:
 Charge =  0 Multiplicity = 1

                         Standard orientation:
 ---------------------------------------------------------------------
 Center     Atomic      Atomic             Coordinates (Angstroms)
 Number     Number       Type             X           Y           Z
 ---------------------------------------------------------------------
      1          8           0        0.056045    1.660349    0.000000
      2          1           0        0.054048    0.677749    0.000000
      3          1           0       -0.872798    1.980903    0.000000
      4          8           0        0.056045   -1.481510   -0.000000
      5          1           0        0.749436   -2.177725   -0.000000
      6          1           0       -0.827413   -1.911635   -0.000000
 ---------------------------------------------------------------------

 SCF Done:  E(RHF) =  -33.6611681708     A.U. after   11 cycles
 E2 =    -0.2289458518D+00 EUMP2 =    -0.33890114022621D+02
 CCSD(T)
 CCSD(T)= -0.33906851571D+02

 The electronic state is 1-A'.
 Alpha  occ. eigenvalues --   -1.38157  -1.32164  -0.73803  -0.68141  -0.58645
 Alpha  occ. eigenvalues --   -0.52856  -0.51892  -0.46813
 Alpha virt. eigenvalues --    0.17782   0.25403   0.28413   0.40219   0.76783
 Alpha virt. eigenvalues --    0.79907   0.84722   0.85733   0.92211   0.99143
 Alpha virt. eigenvalues --    1.14999   1.19539   1.21215   1.34441   2.49714

 Mulliken charges:
               1
     1  O   -0.779618
     2  H    0.426143
     3  H    0.352270
     4  O   -0.785440
     5  H    0.401333
     6  H    0.385312
 Sum of Mulliken charges =   0.00000

 Dipole moment (field-independent basis, Debye):
    X=             -2.4859    Y=             -4.5521    Z=             -0.0000  Tot=              5.1866
 Quadrupole moment (field-independent basis, Debye-Ang):
   XX=             -9.5666   YY=             -8.2317   ZZ=            -15.0093
   XY=             -4.3245   XZ=              0.0000   YZ=              0.0000

 475\MP4DQ=-33.9010573\MP4SDQ=-33.9031566\CCSD=-33.9041496\CCSD(T)=-33.
 Normal termination of Gaussian 16 at Sun Dec 10 06:44:50 2023.
