 Gaussian 16, Revision A.03,
 Gaussian 16:  ES64L-G16RevA.03 25-Dec-2016

 ------------------
 #p CCSD(T)/CEP-31G
 ------------------

 ------------
 H2O_H2O_2092
 ------------
 Symbolic Z-matrix:
 Charge =  0 Multiplicity = 1

                         Standard orientation:
 ---------------------------------------------------------------------
 Center     Atomic      Atomic             Coordinates (Angstroms)
 Number     Number       Type             X           Y           Z
 ---------------------------------------------------------------------
      1          8           0        0.037489    1.939614    0.000000
      2          1           0        0.034942    0.957015    0.000000
      3          1           0       -0.891175    2.260688    0.000000
      4          8           0        0.037489   -1.760685    0.000000
      5          1           0        0.917628   -2.197561    0.000000
      6          1           0       -0.661212   -2.451571    0.000000
 ---------------------------------------------------------------------

 SCF Done:  E(RHF) =  -33.6583999374     A.U. after   11 cycles
 E2 =    -0.2285338468D+00 EUMP2 =    -0.33886933784160D+02
 CCSD(T)
 CCSD(T)= -0.33903802415D+02

 The electronic state is 1-A'.
 Alpha  occ. eigenvalues --   -1.37287  -1.33190  -0.72937  -0.68845  -0.57485
 Alpha  occ. eigenvalues --   -0.53048  -0.51950  -0.47849
 Alpha virt. eigenvalues --    0.18209   0.23821   0.29090   0.34799   0.78424
 Alpha virt. eigenvalues --    0.82809   0.83022   0.86151   0.87892   0.89708
 Alpha virt. eigenvalues --    1.15821   1.20073   1.20515   1.32152   2.52285

 Mulliken charges:
               1
     1  O   -0.768920
     2  H    0.404035
     3  H    0.362592
     4  O   -0.762898
     5  H    0.384012
     6  H    0.381178
 Sum of Mulliken charges =   0.00000

 Dipole moment (field-independent basis, Debye):
    X=             -1.6906    Y=             -4.3894    Z=              0.0000  Tot=              4.7037
 Quadrupole moment (field-independent basis, Debye-Ang):
   XX=             -9.4014   YY=             -7.4057   ZZ=            -15.0017
   XY=             -5.6514   XZ=              0.0000   YZ=              0.0000

 3532\MP4DQ=-33.8981019\MP4SDQ=-33.9001719\CCSD=-33.901196\CCSD(T)=-33.
 Normal termination of Gaussian 16 at Sun Dec 10 06:58:25 2023.
