 Gaussian 16, Revision A.03,
 Gaussian 16:  ES64L-G16RevA.03 25-Dec-2016

 ------------------
 #p CCSD(T)/CEP-31G
 ------------------

 ------------
 H2O_H2O_4018
 ------------
 Symbolic Z-matrix:
 Charge =  0 Multiplicity = 1

                         Standard orientation:
 ---------------------------------------------------------------------
 Center     Atomic      Atomic             Coordinates (Angstroms)
 Number     Number       Type             X           Y           Z
 ---------------------------------------------------------------------
      1          8           0        0.033763    2.706696   -0.000000
      2          1           0        0.031845    1.724097   -0.000000
      3          1           0       -0.895106    3.027177   -0.000000
      4          8           0        0.033763   -2.529153    0.000000
      5          1           0        0.940833   -2.906949    0.000000
      6          1           0       -0.617786   -3.264674    0.000000
 ---------------------------------------------------------------------

 SCF Done:  E(RHF) =  -33.6538614100     A.U. after   11 cycles
 E2 =    -0.2282821317D+00 EUMP2 =    -0.33882143541697D+02
 CCSD(T)
 CCSD(T)= -0.33899085495D+02

 The electronic state is 1-A'.
 Alpha  occ. eigenvalues --   -1.36355  -1.34519  -0.71996  -0.70151  -0.56209
 Alpha  occ. eigenvalues --   -0.54320  -0.50958  -0.49124
 Alpha virt. eigenvalues --    0.19469   0.21451   0.29774   0.31721   0.79598
 Alpha virt. eigenvalues --    0.81382   0.82372   0.84377   0.85617   0.87486
 Alpha virt. eigenvalues --    1.16635   1.18495   1.21063   1.23106   2.56587

 Mulliken charges:
               1
     1  O   -0.749200
     2  H    0.380772
     3  H    0.368367
     4  O   -0.748378
     5  H    0.374902
     6  H    0.373539
 Sum of Mulliken charges =   0.00000

 Dipole moment (field-independent basis, Debye):
    X=             -1.5474    Y=             -4.1780    Z=              0.0000  Tot=              4.4553
 Quadrupole moment (field-independent basis, Debye-Ang):
   XX=             -9.4358   YY=             -5.7605   ZZ=            -14.9928
   XY=             -7.9429   XZ=              0.0000   YZ=              0.0000

 051\MP4DQ=-33.8934547\MP4SDQ=-33.8954784\CCSD=-33.8965285\CCSD(T)=-33.
 Normal termination of Gaussian 16 at Sun Dec 10 06:45:19 2023.
