 Gaussian 16, Revision A.03,
 Gaussian 16:  ES64L-G16RevA.03 25-Dec-2016

 ------------------
 #p CCSD(T)/CEP-31G
 ------------------

 ------------
 H2O_H2O_4129
 ------------
 Symbolic Z-matrix:
 Charge =  0 Multiplicity = 1

                         Standard orientation:
 ---------------------------------------------------------------------
 Center     Atomic      Atomic             Coordinates (Angstroms)
 Number     Number       Type             X           Y           Z
 ---------------------------------------------------------------------
      1          8           0        0.082799    2.744049   -0.000000
      2          1           0        0.082476    1.761448   -0.000000
      3          1           0       -0.846589    3.063021    0.000000
      4          8           0        0.082799   -2.589522   -0.000000
      5          1           0        0.336804   -3.538725   -0.000000
      6          1           0       -0.897477   -2.521961    0.000000
 ---------------------------------------------------------------------

 SCF Done:  E(RHF) =  -33.6525860862     A.U. after   11 cycles
 E2 =    -0.2283375073D+00 EUMP2 =    -0.33880923593539D+02
 CCSD(T)
 CCSD(T)= -0.33897902282D+02

 The electronic state is 1-A'.
 Alpha  occ. eigenvalues --   -1.36372  -1.34880  -0.72020  -0.70496  -0.56156
 Alpha  occ. eigenvalues --   -0.54631  -0.50953  -0.49460
 Alpha virt. eigenvalues --    0.19333   0.21056   0.29685   0.31263   0.79611
 Alpha virt. eigenvalues --    0.81070   0.82503   0.84083   0.85605   0.87287
 Alpha virt. eigenvalues --    1.16554   1.18079   1.21003   1.22675   2.56473

 Mulliken charges:
               1
     1  O   -0.744303
     2  H    0.377623
     3  H    0.366653
     4  O   -0.744490
     5  H    0.375405
     6  H    0.369113
 Sum of Mulliken charges =  -0.00000

 Dipole moment (field-independent basis, Debye):
    X=             -3.8033    Y=             -3.6369    Z=              0.0000  Tot=              5.2623
 Quadrupole moment (field-independent basis, Debye-Ang):
   XX=            -10.6390   YY=             -7.6275   ZZ=            -14.9898
   XY=             -3.6214   XZ=             -0.0000   YZ=              0.0000

 5185\MP4DQ=-33.8922621\MP4SDQ=-33.8942885\CCSD=-33.8953416\CCSD(T)=-33
 Normal termination of Gaussian 16 at Sun Dec 10 06:47:19 2023.
