 Gaussian 16, Revision A.03,
 Gaussian 16:  ES64L-G16RevA.03 25-Dec-2016

 ------------------
 #p CCSD(T)/CEP-31G
 ------------------

 ------------
 H2O_H2O_4302
 ------------
 Symbolic Z-matrix:
 Charge =  0 Multiplicity = 1

                         Standard orientation:
 ---------------------------------------------------------------------
 Center     Atomic      Atomic             Coordinates (Angstroms)
 Number     Number       Type             X           Y           Z
 ---------------------------------------------------------------------
      1          8           0        0.088229   -2.808311    0.000000
      2          1           0        0.088083   -1.825709    0.000000
      3          1           0       -0.841216   -3.127116    0.000000
      4          8           0        0.088229    2.663986    0.000000
      5          1           0        0.216340    3.638201    0.000000
      6          1           0       -0.874877    2.469225    0.000000
 ---------------------------------------------------------------------

 SCF Done:  E(RHF) =  -33.6522571282     A.U. after   11 cycles
 E2 =    -0.2283504703D+00 EUMP2 =    -0.33880607598529D+02
 CCSD(T)
 CCSD(T)= -0.33897596194D+02

 The electronic state is 1-A'.
 Alpha  occ. eigenvalues --   -1.36340  -1.35036  -0.71989  -0.70653  -0.56108
 Alpha  occ. eigenvalues --   -0.54777  -0.50917  -0.49611
 Alpha virt. eigenvalues --    0.19348   0.20874   0.29703   0.31065   0.79647
 Alpha virt. eigenvalues --    0.80926   0.82582   0.83942   0.85654   0.87139
 Alpha virt. eigenvalues --    1.16565   1.17905   1.21034   1.22440   2.56438

 Mulliken charges:
               1
     1  O   -0.743025
     2  H    0.376013
     3  H    0.366999
     4  O   -0.743323
     5  H    0.374942
     6  H    0.368393
 Sum of Mulliken charges =  -0.00000

 Dipole moment (field-independent basis, Debye):
    X=             -4.0561    Y=              3.3925    Z=              0.0000  Tot=              5.2878
 Quadrupole moment (field-independent basis, Debye-Ang):
   XX=            -10.9663   YY=             -8.5132   ZZ=            -14.9890
   XY=              2.9746   XZ=              0.0000   YZ=              0.0000

 2117\MP4DQ=-33.8919538\MP4SDQ=-33.8939808\CCSD=-33.8950348\CCSD(T)=-33
 Normal termination of Gaussian 16 at Sun Dec 10 06:50:26 2023.
