 Gaussian 16, Revision A.03,
 Gaussian 16:  ES64L-G16RevA.03 25-Dec-2016

 ------------------
 #p CCSD(T)/CEP-31G
 ------------------

 ------------
 H2O_H2O_2567
 ------------
 Symbolic Z-matrix:
 Charge =  0 Multiplicity = 1

                         Standard orientation:
 ---------------------------------------------------------------------
 Center     Atomic      Atomic             Coordinates (Angstroms)
 Number     Number       Type             X           Y           Z
 ---------------------------------------------------------------------
      1          8           0        0.037467    2.129089    0.000000
      2          1           0        0.035157    1.146490    0.000000
      3          1           0       -0.891274    2.449939   -0.000000
      4          8           0        0.037467   -1.950142    0.000000
      5          1           0        0.917712   -2.386806    0.000000
      6          1           0       -0.661067   -2.641196   -0.000000
 ---------------------------------------------------------------------

 SCF Done:  E(RHF) =  -33.6566186088     A.U. after   11 cycles
 E2 =    -0.2283912632D+00 EUMP2 =    -0.33885009871978D+02
 CCSD(T)
 CCSD(T)= -0.33901898451D+02

 The electronic state is 1-A'.
 Alpha  occ. eigenvalues --   -1.36947  -1.33674  -0.72594  -0.69304  -0.56981
 Alpha  occ. eigenvalues --   -0.53525  -0.51586  -0.48314
 Alpha virt. eigenvalues --    0.18495   0.22923   0.29333   0.33136   0.78952
 Alpha virt. eigenvalues --    0.82186   0.83807   0.84633   0.85786   0.88240
 Alpha virt. eigenvalues --    1.16133   1.19783   1.20567   1.28573   2.54652

 Mulliken charges:
               1
     1  O   -0.760753
     2  H    0.394246
     3  H    0.364890
     4  O   -0.756270
     5  H    0.380368
     6  H    0.377519
 Sum of Mulliken charges =  -0.00000

 Dipole moment (field-independent basis, Debye):
    X=             -1.6996    Y=             -4.3216    Z=             -0.0000  Tot=              4.6438
 Quadrupole moment (field-independent basis, Debye-Ang):
   XX=             -9.4073   YY=             -6.9383   ZZ=            -14.9981
   XY=             -6.1470   XZ=              0.0000   YZ=             -0.0000

 4817\MP4DQ=-33.896237\MP4SDQ=-33.8982886\CCSD=-33.8993201\CCSD(T)=-33.
 Normal termination of Gaussian 16 at Sun Dec 10 06:19:13 2023.
