 Gaussian 16, Revision A.03,
 Gaussian 16:  ES64L-G16RevA.03 25-Dec-2016

 ------------------
 #p CCSD(T)/CEP-31G
 ------------------

 ------------
 H2O_H2O_1486
 ------------
 Symbolic Z-matrix:
 Charge =  0 Multiplicity = 1

                         Standard orientation:
 ---------------------------------------------------------------------
 Center     Atomic      Atomic             Coordinates (Angstroms)
 Number     Number       Type             X           Y           Z
 ---------------------------------------------------------------------
      1          8           0        0.059687    1.699445   -0.000000
      2          1           0        0.057931    0.716845   -0.000000
      3          1           0       -0.869236    2.019771   -0.000000
      4          8           0        0.059687   -1.522061    0.000000
      5          1           0        0.706240   -2.261977    0.000000
      6          1           0       -0.849920   -1.893708    0.000000
 ---------------------------------------------------------------------

 SCF Done:  E(RHF) =  -33.6602914002     A.U. after   11 cycles
 E2 =    -0.2288908196D+00 EUMP2 =    -0.33889182219747D+02
 CCSD(T)
 CCSD(T)= -0.33905977805D+02

 The electronic state is 1-A'.
 Alpha  occ. eigenvalues --   -1.38007  -1.32425  -0.73671  -0.68268  -0.58430
 Alpha  occ. eigenvalues --   -0.52690  -0.52172  -0.47069
 Alpha virt. eigenvalues --    0.17788   0.25100   0.28495   0.39062   0.77078
 Alpha virt. eigenvalues --    0.80558   0.84305   0.85691   0.91456   0.98482
 Alpha virt. eigenvalues --    1.15071   1.19525   1.21024   1.34676   2.49750

 Mulliken charges:
               1
     1  O   -0.776568
     2  H    0.421824
     3  H    0.353221
     4  O   -0.779905
     5  H    0.399341
     6  H    0.382087
 Sum of Mulliken charges =  -0.00000

 Dipole moment (field-independent basis, Debye):
    X=             -2.6570    Y=             -4.4886    Z=              0.0000  Tot=              5.2161
 Quadrupole moment (field-independent basis, Debye-Ang):
   XX=             -9.6625   YY=             -8.1318   ZZ=            -15.0067
   XY=             -4.2617   XZ=             -0.0000   YZ=             -0.0000

 4765\MP4DQ=-33.9001934\MP4SDQ=-33.9022921\CCSD=-33.9032949\CCSD(T)=-33
 Normal termination of Gaussian 16 at Sun Dec 10 06:46:48 2023.
