 Gaussian 16, Revision A.03,
 Gaussian 16:  ES64L-G16RevA.03 25-Dec-2016

 ------------------
 #p CCSD(T)/CEP-31G
 ------------------

 ------------
 H2O_H2O_4446
 ------------
 Symbolic Z-matrix:
 Charge =  0 Multiplicity = 1

                         Standard orientation:
 ---------------------------------------------------------------------
 Center     Atomic      Atomic             Coordinates (Angstroms)
 Number     Number       Type             X           Y           Z
 ---------------------------------------------------------------------
      1          8           0       -0.023167    2.872345    0.000000
      2          1           0       -0.021043    1.889746    0.000000
      3          1           0        0.905635    3.193020    0.000000
      4          8           0       -0.023167   -2.701935    0.000000
      5          1           0       -0.986471   -2.895714    0.000000
      6          1           0        0.472547   -3.550330    0.000000
 ---------------------------------------------------------------------

 SCF Done:  E(RHF) =  -33.6534750810     A.U. after   11 cycles
 E2 =    -0.2282885392D+00 EUMP2 =    -0.33881763620260D+02
 CCSD(T)
 CCSD(T)= -0.33898717178D+02

 The electronic state is 1-A'.
 Alpha  occ. eigenvalues --   -1.36259  -1.34726  -0.71899  -0.70364  -0.56089
 Alpha  occ. eigenvalues --   -0.54520  -0.50856  -0.49327
 Alpha virt. eigenvalues --    0.19585   0.21185   0.29852   0.31463   0.79696
 Alpha virt. eigenvalues --    0.81189   0.82537   0.84173   0.85722   0.87272
 Alpha virt. eigenvalues --    1.16715   1.18255   1.21151   1.22767   2.56674

 Mulliken charges:
               1
     1  O   -0.747690
     2  H    0.378195
     3  H    0.369483
     4  O   -0.747177
     5  H    0.373718
     6  H    0.373471
 Sum of Mulliken charges =   0.00000

 Dipole moment (field-independent basis, Debye):
    X=              1.0634    Y=             -3.9957    Z=              0.0000  Tot=              4.1348
 Quadrupole moment (field-independent basis, Debye-Ang):
   XX=             -9.5982   YY=             -6.0157   ZZ=            -14.9920
   XY=              9.3992   XZ=              0.0000   YZ=              0.0000

 3366\MP4DQ=-33.8930846\MP4SDQ=-33.8951081\CCSD=-33.8961601\CCSD(T)=-33
 Normal termination of Gaussian 16 at Sun Dec 10 06:53:01 2023.
