 Gaussian 16, Revision A.03,
 Gaussian 16:  ES64L-G16RevA.03 25-Dec-2016

 ------------------
 #p CCSD(T)/CEP-31G
 ------------------

 ------------
 H2O_H2O_2529
 ------------
 Symbolic Z-matrix:
 Charge =  0 Multiplicity = 1

                         Standard orientation:
 ---------------------------------------------------------------------
 Center     Atomic      Atomic             Coordinates (Angstroms)
 Number     Number       Type             X           Y           Z
 ---------------------------------------------------------------------
      1          8           0        0.082807   -2.105837    0.000000
      2          1           0        0.082383   -1.123236    0.000000
      3          1           0       -0.846548   -2.424905    0.000000
      4          8           0        0.082807    1.951327    0.000000
      5          1           0        0.336714    2.900556    0.000000
      6          1           0       -0.897462    1.883665    0.000000
 ---------------------------------------------------------------------

 SCF Done:  E(RHF) =  -33.6540390911     A.U. after   11 cycles
 E2 =    -0.2285029668D+00 EUMP2 =    -0.33882542057900D+02
 CCSD(T)
 CCSD(T)= -0.33899510240D+02

 The electronic state is 1-A'.
 Alpha  occ. eigenvalues --   -1.37036  -1.34281  -0.72720  -0.69862  -0.56917
 Alpha  occ. eigenvalues --   -0.54038  -0.51630  -0.48868
 Alpha virt. eigenvalues --    0.17649   0.22672   0.29095   0.32521   0.78905
 Alpha virt. eigenvalues --    0.81705   0.83027   0.84687   0.86654   0.88134
 Alpha virt. eigenvalues --    1.15740   1.19205   1.20459   1.30040   2.55412

 Mulliken charges:
               1
     1  O   -0.750932
     2  H    0.388070
     3  H    0.361602
     4  O   -0.749889
     5  H    0.382069
     6  H    0.369079
 Sum of Mulliken charges =   0.00000

 Dipole moment (field-independent basis, Debye):
    X=             -3.7717    Y=              3.7381    Z=              0.0000  Tot=              5.3103
 Quadrupole moment (field-independent basis, Debye-Ang):
   XX=            -10.6532   YY=             -8.2606   ZZ=            -14.9918
   XY=              3.3088   XZ=              0.0000   YZ=              0.0000

 0831\MP4DQ=-33.8938266\MP4SDQ=-33.8958867\CCSD=-33.896922\CCSD(T)=-33.
 Normal termination of Gaussian 16 at Sun Dec 10 06:18:32 2023.
