 Gaussian 16, Revision A.03,
 Gaussian 16:  ES64L-G16RevA.03 25-Dec-2016

 ------------------
 #p CCSD(T)/CEP-31G
 ------------------

 ------------
 H2O_H2O_4864
 ------------
 Symbolic Z-matrix:
 Charge =  0 Multiplicity = 1

                         Standard orientation:
 ---------------------------------------------------------------------
 Center     Atomic      Atomic             Coordinates (Angstroms)
 Number     Number       Type             X           Y           Z
 ---------------------------------------------------------------------
      1          8           0        0.048547    3.047305    0.000000
      2          1           0        0.047273    2.064705    0.000000
      3          1           0       -0.880532    3.367176   -0.000000
      4          8           0        0.048547   -2.866878    0.000000
      5          1           0        0.827321   -3.466058    0.000000
      6          1           0       -0.770812   -3.409241   -0.000000
 ---------------------------------------------------------------------

 SCF Done:  E(RHF) =  -33.6530651551     A.U. after   11 cycles
 E2 =    -0.2283097651D+00 EUMP2 =    -0.33881374920205D+02
 CCSD(T)
 CCSD(T)= -0.33898339038D+02

 The electronic state is 1-A'.
 Alpha  occ. eigenvalues --   -1.36193  -1.34757  -0.71832  -0.70387  -0.56000
 Alpha  occ. eigenvalues --   -0.54533  -0.50784  -0.49349
 Alpha virt. eigenvalues --    0.19645   0.21122   0.29897   0.31398   0.79768
 Alpha virt. eigenvalues --    0.81174   0.82657   0.84166   0.85825   0.87283
 Alpha virt. eigenvalues --    1.16764   1.18199   1.21210   1.22688   2.56745

 Mulliken charges:
               1
     1  O   -0.746092
     2  H    0.377637
     3  H    0.368452
     4  O   -0.745674
     5  H    0.373894
     6  H    0.371783
 Sum of Mulliken charges =  -0.00000

 Dipole moment (field-independent basis, Debye):
    X=             -2.2320    Y=             -4.2234    Z=             -0.0000  Tot=              4.7770
 Quadrupole moment (field-independent basis, Debye-Ang):
   XX=             -9.4628   YY=             -4.7772   ZZ=            -14.9912
   XY=             -7.4386   XZ=              0.0000   YZ=             -0.0000

 79\MP4DQ=-33.8927042\MP4SDQ=-33.8947285\CCSD=-33.8957814\CCSD(T)=-33.8
 Normal termination of Gaussian 16 at Sun Dec 10 07:00:48 2023.
