 Gaussian 16, Revision A.03,
 Gaussian 16:  ES64L-G16RevA.03 25-Dec-2016

 ------------------
 #p CCSD(T)/CEP-31G
 ------------------

 -----------
 H2O_H2O_193
 -----------
 Symbolic Z-matrix:
 Charge =  0 Multiplicity = 1

                         Standard orientation:
 ---------------------------------------------------------------------
 Center     Atomic      Atomic             Coordinates (Angstroms)
 Number     Number       Type             X           Y           Z
 ---------------------------------------------------------------------
      1          8           0        0.034005    1.180905    0.000000
      2          1           0        0.029408    0.198315    0.000000
      3          1           0       -0.893987    1.503917    0.000000
      4          8           0        0.034005   -1.003546   -0.000000
      5          1           0        0.940042   -1.383815   -0.000000
      6          1           0       -0.619546   -1.737288   -0.000000
 ---------------------------------------------------------------------

 SCF Done:  E(RHF) =  -33.6221906423     A.U. after   11 cycles
 E2 =    -0.2277782851D+00 EUMP2 =    -0.33849968927350D+02
 CCSD(T)
 CCSD(T)= -0.33864736602D+02

 The electronic state is 1-A'.
 Alpha  occ. eigenvalues --   -1.44242  -1.27297  -0.79450  -0.75785  -0.57977
 Alpha  occ. eigenvalues --   -0.55848  -0.44808  -0.41440
 Alpha virt. eigenvalues --    0.16630   0.25492   0.29851   0.61076   0.73401
 Alpha virt. eigenvalues --    0.73673   0.87028   0.91334   0.92605   1.02600
 Alpha virt. eigenvalues --    1.14180   1.18241   1.28703   1.36047   2.88206

 Mulliken charges:
               1
     1  O   -0.757759
     2  H    0.344069
     3  H    0.318743
     4  O   -0.807667
     5  H    0.442062
     6  H    0.460552
 Sum of Mulliken charges =   0.00000

 Dipole moment (field-independent basis, Debye):
    X=             -1.4260    Y=             -5.5053    Z=             -0.0000  Tot=              5.6870
 Quadrupole moment (field-independent basis, Debye-Ang):
   XX=             -9.2943   YY=            -10.4377   ZZ=            -14.9599
   XY=             -3.5136   XZ=             -0.0000   YZ=              0.0000

 203\MP4DQ=-33.8586343\MP4SDQ=-33.8609111\CCSD=-33.8615565\CCSD(T)=-33.
 Normal termination of Gaussian 16 at Sun Dec 10 06:21:51 2023.
