 Gaussian 16, Revision A.03,
 Gaussian 16:  ES64L-G16RevA.03 25-Dec-2016

 ------------------
 #p CCSD(T)/CEP-31G
 ------------------

 ------------
 H2O_H2O_2201
 ------------
 Symbolic Z-matrix:
 Charge =  0 Multiplicity = 1

                         Standard orientation:
 ---------------------------------------------------------------------
 Center     Atomic      Atomic             Coordinates (Angstroms)
 Number     Number       Type             X           Y           Z
 ---------------------------------------------------------------------
      1          8           0        0.090686   -1.967616    0.000000
      2          1           0        0.090584   -0.985015    0.000000
      3          1           0       -0.838774   -2.286379    0.000000
      4          8           0        0.090686    1.828911    0.000000
      5          1           0        0.154850    2.809415    0.000000
      6          1           0       -0.857633    1.571620    0.000000
 ---------------------------------------------------------------------

 SCF Done:  E(RHF) =  -33.6532270916     A.U. after   11 cycles
 E2 =    -0.2286851789D+00 EUMP2 =    -0.33881912270475D+02
 CCSD(T)
 CCSD(T)= -0.33898932576D+02

 The electronic state is 1-A'.
 Alpha  occ. eigenvalues --   -1.37308  -1.34485  -0.73048  -0.70030  -0.57157
 Alpha  occ. eigenvalues --   -0.54201  -0.51881  -0.49051
 Alpha virt. eigenvalues --    0.16810   0.23182   0.28838   0.33155   0.78517
 Alpha virt. eigenvalues --    0.81714   0.82749   0.84483   0.87851   0.90394
 Alpha virt. eigenvalues --    1.15387   1.18691   1.20589   1.34309   2.55086

 Mulliken charges:
               1
     1  O   -0.748864
     2  H    0.387121
     3  H    0.360094
     4  O   -0.748452
     5  H    0.384621
     6  H    0.365479
 Sum of Mulliken charges =  -0.00000

 Dipole moment (field-independent basis, Debye):
    X=             -4.1211    Y=              3.3911    Z=              0.0000  Tot=              5.3369
 Quadrupole moment (field-independent basis, Debye-Ang):
   XX=            -11.1541   YY=             -9.2304   ZZ=            -14.9889
   XY=              2.5283   XZ=              0.0000   YZ=              0.0000

 715\MP4DQ=-33.8932051\MP4SDQ=-33.8952901\CCSD=-33.8963201\CCSD(T)=-33.
 Normal termination of Gaussian 16 at Sun Dec 10 07:00:47 2023.
