 Gaussian 16, Revision A.03,
 Gaussian 16:  ES64L-G16RevA.03 25-Dec-2016

 ------------------
 #p CCSD(T)/CEP-31G
 ------------------

 -----------
 H2O_H2O_971
 -----------
 Symbolic Z-matrix:
 Charge =  0 Multiplicity = 1

                         Standard orientation:
 ---------------------------------------------------------------------
 Center     Atomic      Atomic             Coordinates (Angstroms)
 Number     Number       Type             X           Y           Z
 ---------------------------------------------------------------------
      1          8           0       -0.023349    1.486203    0.000000
      2          1           0       -0.019124    0.503611    0.000000
      3          1           0        0.904766    1.808863    0.000000
      4          8           0       -0.023349   -1.315893    0.000000
      5          1           0       -0.986237   -1.511731    0.000000
      6          1           0        0.474177   -2.163226    0.000000
 ---------------------------------------------------------------------

 SCF Done:  E(RHF) =  -33.6623642786     A.U. after   11 cycles
 E2 =    -0.2287641652D+00 EUMP2 =    -0.33891128443847D+02
 CCSD(T)
 CCSD(T)= -0.33907601899D+02

 The electronic state is 1-A'.
 Alpha  occ. eigenvalues --   -1.39060  -1.31236  -0.74856  -0.68201  -0.59421
 Alpha  occ. eigenvalues --   -0.53758  -0.50765  -0.45900
 Alpha virt. eigenvalues --    0.17615   0.26668   0.27838   0.45669   0.75340
 Alpha virt. eigenvalues --    0.77534   0.86359   0.86560   0.92467   1.06358
 Alpha virt. eigenvalues --    1.16302   1.18705   1.23401   1.36625   2.54148

 Mulliken charges:
               1
     1  O   -0.784191
     2  H    0.422517
     3  H    0.354957
     4  O   -0.814892
     5  H    0.400235
     6  H    0.421374
 Sum of Mulliken charges =   0.00000

 Dipole moment (field-independent basis, Debye):
    X=              1.0425    Y=             -4.5251    Z=              0.0000  Tot=              4.6436
 Quadrupole moment (field-independent basis, Debye-Ang):
   XX=             -9.5474   YY=             -8.8773   ZZ=            -15.0167
   XY=              4.8112   XZ=              0.0000   YZ=              0.0000

 519\MP4DQ=-33.9017389\MP4SDQ=-33.9038722\CCSD=-33.9048145\CCSD(T)=-33.
 Normal termination of Gaussian 16 at Sun Dec 10 06:36:46 2023.
