 Gaussian 16, Revision A.03,
 Gaussian 16:  ES64L-G16RevA.03 25-Dec-2016

 ------------------
 #p CCSD(T)/CEP-31G
 ------------------

 -----------
 H2O_H2O_766
 -----------
 Symbolic Z-matrix:
 Charge =  0 Multiplicity = 1

                         Standard orientation:
 ---------------------------------------------------------------------
 Center     Atomic      Atomic             Coordinates (Angstroms)
 Number     Number       Type             X           Y           Z
 ---------------------------------------------------------------------
      1          8           0        0.041267    1.411584    0.000000
      2          1           0        0.037940    0.428988    0.000000
      3          1           0       -0.887141    1.733396    0.000000
      4          8           0        0.041267   -1.231776   -0.000000
      5          1           0        0.890557   -1.725955   -0.000000
      6          1           0       -0.701635   -1.874895   -0.000000
 ---------------------------------------------------------------------

 SCF Done:  E(RHF) =  -33.6615200199     A.U. after   11 cycles
 E2 =    -0.2290370088D+00 EUMP2 =    -0.33890557028772D+02
 CCSD(T)
 CCSD(T)= -0.33906642467D+02

 The electronic state is 1-A'.
 Alpha  occ. eigenvalues --   -1.39793  -1.30256  -0.75235  -0.69252  -0.59176
 Alpha  occ. eigenvalues --   -0.54513  -0.49519  -0.44844
 Alpha virt. eigenvalues --    0.17403   0.27398   0.27490   0.49832   0.74689
 Alpha virt. eigenvalues --    0.75555   0.85574   0.87861   0.96934   0.99015
 Alpha virt. eigenvalues --    1.15159   1.18390   1.23657   1.36910   2.58981

 Mulliken charges:
               1
     1  O   -0.783776
     2  H    0.433943
     3  H    0.342054
     4  O   -0.825375
     5  H    0.417169
     6  H    0.415985
 Sum of Mulliken charges =   0.00000

 Dipole moment (field-independent basis, Debye):
    X=             -1.7924    Y=             -4.8735    Z=             -0.0000  Tot=              5.1926
 Quadrupole moment (field-independent basis, Debye-Ang):
   XX=             -9.3429   YY=             -9.2161   ZZ=            -15.0193
   XY=             -4.1207   XZ=             -0.0000   YZ=              0.0000

 \MP4DQ=-33.900743\MP4SDQ=-33.9028816\CCSD=-33.9037553\CCSD(T)=-33.9066
 Normal termination of Gaussian 16 at Sun Dec 10 06:32:55 2023.
