 Gaussian 16, Revision A.03,
 Gaussian 16:  ES64L-G16RevA.03 25-Dec-2016

 ------------------
 #p CCSD(T)/CEP-31G
 ------------------

 ------------
 H2O_H2O_4592
 ------------
 Symbolic Z-matrix:
 Charge =  0 Multiplicity = 1

                         Standard orientation:
 ---------------------------------------------------------------------
 Center     Atomic      Atomic             Coordinates (Angstroms)
 Number     Number       Type             X           Y           Z
 ---------------------------------------------------------------------
      1          8           0        0.037407    2.936839    0.000000
      2          1           0        0.035753    1.954239    0.000000
      3          1           0       -0.891548    3.257070   -0.000000
      4          8           0        0.037407   -2.757842    0.000000
      5          1           0        0.917943   -3.193919    0.000000
      6          1           0       -0.660666   -3.449362   -0.000000
 ---------------------------------------------------------------------

 SCF Done:  E(RHF) =  -33.6533390893     A.U. after   11 cycles
 E2 =    -0.2282973171D+00 EUMP2 =    -0.33881636406371D+02
 CCSD(T)
 CCSD(T)= -0.33898593017D+02

 The electronic state is 1-A'.
 Alpha  occ. eigenvalues --   -1.36235  -1.34690  -0.71874  -0.70322  -0.56058
 Alpha  occ. eigenvalues --   -0.54476  -0.50830  -0.49287
 Alpha virt. eigenvalues --    0.19612   0.21210   0.29870   0.31491   0.79722
 Alpha virt. eigenvalues --    0.81231   0.82577   0.84219   0.85767   0.87326
 Alpha virt. eigenvalues --    1.16734   1.18281   1.21176   1.22780   2.56703

 Mulliken charges:
               1
     1  O   -0.747161
     2  H    0.378443
     3  H    0.368709
     4  O   -0.746605
     5  H    0.374030
     6  H    0.372584
 Sum of Mulliken charges =   0.00000

 Dipole moment (field-independent basis, Debye):
    X=             -1.7181    Y=             -4.1951    Z=             -0.0000  Tot=              4.5333
 Quadrupole moment (field-independent basis, Debye-Ang):
   XX=             -9.4165   YY=             -5.1451   ZZ=            -14.9917
   XY=             -8.2338   XZ=              0.0000   YZ=             -0.0000

 125\MP4DQ=-33.8929599\MP4SDQ=-33.8949836\CCSD=-33.8960359\CCSD(T)=-33.
 Normal termination of Gaussian 16 at Sun Dec 10 06:55:39 2023.
