 Gaussian 16, Revision A.03,
 Gaussian 16:  ES64L-G16RevA.03 25-Dec-2016

 ------------------
 #p CCSD(T)/CEP-31G
 ------------------

 ------------
 H2O_H2O_4836
 ------------
 Symbolic Z-matrix:
 Charge =  0 Multiplicity = 1

                         Standard orientation:
 ---------------------------------------------------------------------
 Center     Atomic      Atomic             Coordinates (Angstroms)
 Number     Number       Type             X           Y           Z
 ---------------------------------------------------------------------
      1          8           0        0.059615    3.035731    0.000000
      2          1           0        0.058655    2.053130    0.000000
      3          1           0       -0.869567    3.355305   -0.000000
      4          8           0        0.059615   -2.858251    0.000000
      5          1           0        0.706767   -3.597643    0.000000
      6          1           0       -0.849691   -3.230635   -0.000000
 ---------------------------------------------------------------------

 SCF Done:  E(RHF) =  -33.6529209303     A.U. after   11 cycles
 E2 =    -0.2283168378D+00 EUMP2 =    -0.33881237768040D+02
 CCSD(T)
 CCSD(T)= -0.33898205923D+02

 The electronic state is 1-A'.
 Alpha  occ. eigenvalues --   -1.36204  -1.34786  -0.71844  -0.70414  -0.56004
 Alpha  occ. eigenvalues --   -0.54556  -0.50792  -0.49375
 Alpha virt. eigenvalues --    0.19624   0.21087   0.29877   0.31360   0.79761
 Alpha virt. eigenvalues --    0.81150   0.82662   0.84146   0.85815   0.87274
 Alpha virt. eigenvalues --    1.16747   1.18163   1.21193   1.22656   2.56732

 Mulliken charges:
               1
     1  O   -0.745544
     2  H    0.377488
     3  H    0.368053
     4  O   -0.745244
     5  H    0.374080
     6  H    0.371167
 Sum of Mulliken charges =   0.00000

 Dipole moment (field-independent basis, Debye):
    X=             -2.7415    Y=             -4.1559    Z=             -0.0000  Tot=              4.9787
 Quadrupole moment (field-independent basis, Debye-Ang):
   XX=             -9.6719   YY=             -5.0828   ZZ=            -14.9908
   XY=             -6.3345   XZ=              0.0000   YZ=             -0.0000

 243\MP4DQ=-33.89257\MP4SDQ=-33.8945946\CCSD=-33.8956478\CCSD(T)=-33.89
 Normal termination of Gaussian 16 at Sun Dec 10 07:00:04 2023.
