 Gaussian 16, Revision A.03,
 Gaussian 16:  ES64L-G16RevA.03 25-Dec-2016

 ------------------
 #p CCSD(T)/CEP-31G
 ------------------

 ------------
 H2O_H2O_1670
 ------------
 Symbolic Z-matrix:
 Charge =  0 Multiplicity = 1

                         Standard orientation:
 ---------------------------------------------------------------------
 Center     Atomic      Atomic             Coordinates (Angstroms)
 Number     Number       Type             X           Y           Z
 ---------------------------------------------------------------------
      1          8           0        0.026733    1.766971    0.000000
      2          1           0        0.023385    0.784375    0.000000
      3          1           0       -0.901669    2.088803    0.000000
      4          8           0        0.026733   -1.593792    0.000000
      5          1           0        0.974982   -1.851341    0.000000
      6          1           0       -0.524422   -2.407264    0.000000
 ---------------------------------------------------------------------

 SCF Done:  E(RHF) =  -33.6604558541     A.U. after   11 cycles
 E2 =    -0.2286803590D+00 EUMP2 =    -0.33889136213073D+02
 CCSD(T)
 CCSD(T)= -0.33905966535D+02

 The electronic state is 1-A'.
 Alpha  occ. eigenvalues --   -1.37705  -1.32729  -0.73378  -0.68494  -0.58112
 Alpha  occ. eigenvalues --   -0.52569  -0.52390  -0.47411
 Alpha virt. eigenvalues --    0.17947   0.24781   0.28793   0.37396   0.77579
 Alpha virt. eigenvalues --    0.81232   0.83690   0.86443   0.89078   0.97162
 Alpha virt. eigenvalues --    1.15485   1.19275   1.21233   1.35086   2.50690

 Mulliken charges:
               1
     1  O   -0.778000
     2  H    0.413380
     3  H    0.362140
     4  O   -0.775761
     5  H    0.387174
     6  H    0.391067
 Sum of Mulliken charges =  -0.00000

 Dipole moment (field-independent basis, Debye):
    X=             -1.1992    Y=             -4.3319    Z=              0.0000  Tot=              4.4948
 Quadrupole moment (field-independent basis, Debye-Ang):
   XX=             -9.5033   YY=             -8.0196   ZZ=            -15.0062
   XY=             -5.6327   XZ=              0.0000   YZ=              0.0000

 792\MP4DQ=-33.900214\MP4SDQ=-33.9023041\CCSD=-33.9033169\CCSD(T)=-33.9
 Normal termination of Gaussian 16 at Sun Dec 10 06:50:25 2023.
