 Gaussian 16, Revision A.03,
 Gaussian 16:  ES64L-G16RevA.03 25-Dec-2016

 ------------------
 #p CCSD(T)/CEP-31G
 ------------------

 ------------
 H2O_H2O_1603
 ------------
 Symbolic Z-matrix:
 Charge =  0 Multiplicity = 1

                         Standard orientation:
 ---------------------------------------------------------------------
 Center     Atomic      Atomic             Coordinates (Angstroms)
 Number     Number       Type             X           Y           Z
 ---------------------------------------------------------------------
      1          8           0        0.085609   -1.734197    0.000000
      2          1           0        0.085233   -0.751596    0.000000
      3          1           0       -0.843763   -2.053219    0.000000
      4          8           0        0.085609    1.584618    0.000000
      5          1           0        0.276936    2.548412    0.000000
      6          1           0       -0.888143    1.453036    0.000000
 ---------------------------------------------------------------------

 SCF Done:  E(RHF) =  -33.6551682655     A.U. after   11 cycles
 E2 =    -0.2289329058D+00 EUMP2 =    -0.33884101171287D+02
 CCSD(T)
 CCSD(T)= -0.33901114506D+02

 The electronic state is 1-A'.
 Alpha  occ. eigenvalues --   -1.37942  -1.33659  -0.73787  -0.69210  -0.57967
 Alpha  occ. eigenvalues --   -0.53344  -0.52524  -0.48229
 Alpha virt. eigenvalues --    0.17001   0.24348   0.28339   0.36738   0.77286
 Alpha virt. eigenvalues --    0.81521   0.83197   0.84936   0.89263   1.02129
 Alpha virt. eigenvalues --    1.15166   1.17963   1.21322   1.39122   2.51303

 Mulliken charges:
               1
     1  O   -0.757883
     2  H    0.400199
     3  H    0.353994
     4  O   -0.762477
     5  H    0.397320
     6  H    0.368846
 Sum of Mulliken charges =  -0.00000

 Dipole moment (field-independent basis, Debye):
    X=             -3.8507    Y=              3.7765    Z=              0.0000  Tot=              5.3935
 Quadrupole moment (field-independent basis, Debye-Ang):
   XX=            -10.8409   YY=             -8.8670   ZZ=            -14.9933
   XY=              2.9189   XZ=              0.0000   YZ=              0.0000

 767\MP4DQ=-33.8952946\MP4SDQ=-33.8974309\CCSD=-33.8984454\CCSD(T)=-33.
 Normal termination of Gaussian 16 at Sun Dec 10 06:49:09 2023.
