 Gaussian 16, Revision A.03,
 Gaussian 16:  ES64L-G16RevA.03 25-Dec-2016

 ------------------
 #p CCSD(T)/CEP-31G
 ------------------

 ------------
 H2O_H2O_2609
 ------------
 Symbolic Z-matrix:
 Charge =  0 Multiplicity = 1

                         Standard orientation:
 ---------------------------------------------------------------------
 Center     Atomic      Atomic             Coordinates (Angstroms)
 Number     Number       Type             X           Y           Z
 ---------------------------------------------------------------------
      1          8           0        0.066769    2.145847   -0.000000
      2          1           0        0.065689    1.163246   -0.000000
      3          1           0       -0.862373    2.465534   -0.000000
      4          8           0        0.066769   -1.972756    0.000000
      5          1           0        0.611776   -2.790359    0.000000
      6          1           0       -0.883394   -2.223149    0.000000
 ---------------------------------------------------------------------

 SCF Done:  E(RHF) =  -33.6553454508     A.U. after   11 cycles
 E2 =    -0.2284312595D+00 EUMP2 =    -0.33883776710265D+02
 CCSD(T)
 CCSD(T)= -0.33900699093D+02

 The electronic state is 1-A'.
 Alpha  occ. eigenvalues --   -1.36955  -1.33900  -0.72615  -0.69501  -0.56912
 Alpha  occ. eigenvalues --   -0.53702  -0.51574  -0.48512
 Alpha virt. eigenvalues --    0.18309   0.22689   0.29217   0.32846   0.78976
 Alpha virt. eigenvalues --    0.82005   0.83458   0.84957   0.85527   0.88293
 Alpha virt. eigenvalues --    1.16043   1.19523   1.20508   1.28556   2.54981

 Mulliken charges:
               1
     1  O   -0.755720
     2  H    0.391978
     3  H    0.362333
     4  O   -0.752984
     5  H    0.381508
     6  H    0.372886
 Sum of Mulliken charges =   0.00000

 Dipole moment (field-independent basis, Debye):
    X=             -3.0379    Y=             -4.1793    Z=              0.0000  Tot=              5.1667
 Quadrupole moment (field-independent basis, Debye-Ang):
   XX=             -9.8976   YY=             -7.2032   ZZ=            -14.9953
   XY=             -4.5172   XZ=              0.0000   YZ=             -0.0000

 2815\MP4DQ=-33.8950318\MP4SDQ=-33.8970848\CCSD=-33.898119\CCSD(T)=-33.
 Normal termination of Gaussian 16 at Sun Dec 10 06:19:58 2023.
