 Gaussian 16, Revision A.03,
 Gaussian 16:  ES64L-G16RevA.03 25-Dec-2016

 ------------------
 #p CCSD(T)/CEP-31G
 ------------------

 ------------
 H2O_H2O_1759
 ------------
 Symbolic Z-matrix:
 Charge =  0 Multiplicity = 1

                         Standard orientation:
 ---------------------------------------------------------------------
 Center     Atomic      Atomic             Coordinates (Angstroms)
 Number     Number       Type             X           Y           Z
 ---------------------------------------------------------------------
      1          8           0        0.066788    1.806787   -0.000000
      2          1           0        0.065495    0.824186   -0.000000
      3          1           0       -0.862285    2.126675   -0.000000
      4          8           0        0.066788   -1.633725    0.000000
      5          1           0        0.611617   -2.451445    0.000000
      6          1           0       -0.883430   -1.883912    0.000000
 ---------------------------------------------------------------------

 SCF Done:  E(RHF) =  -33.6581702319     A.U. after   11 cycles
 E2 =    -0.2287519878D+00 EUMP2 =    -0.33886922219692D+02
 CCSD(T)
 CCSD(T)= -0.33903816745D+02

 The electronic state is 1-A'.
 Alpha  occ. eigenvalues --   -1.37665  -1.33032  -0.73350  -0.68691  -0.57896
 Alpha  occ. eigenvalues --   -0.52807  -0.52313  -0.47660
 Alpha virt. eigenvalues --    0.17782   0.24340   0.28704   0.36465   0.77779
 Alpha virt. eigenvalues --    0.81963   0.83343   0.85524   0.89876   0.95066
 Alpha virt. eigenvalues --    1.15319   1.19627   1.20665   1.35024   2.50830

 Mulliken charges:
               1
     1  O   -0.768676
     2  H    0.410584
     3  H    0.355913
     4  O   -0.767582
     5  H    0.393184
     6  H    0.376577
 Sum of Mulliken charges =   0.00000

 Dipole moment (field-independent basis, Debye):
    X=             -2.9997    Y=             -4.3167    Z=              0.0000  Tot=              5.2566
 Quadrupole moment (field-independent basis, Debye-Ang):
   XX=             -9.8984   YY=             -7.9457   ZZ=            -15.0010
   XY=             -4.1056   XZ=              0.0000   YZ=             -0.0000

 29\MP4DQ=-33.8980605\MP4SDQ=-33.9001548\CCSD=-33.9011735\CCSD(T)=-33.9
 Normal termination of Gaussian 16 at Sun Dec 10 06:52:06 2023.
