 Gaussian 16, Revision A.03,
 Gaussian 16:  ES64L-G16RevA.03 25-Dec-2016

 ------------------
 #p CCSD(T)/CEP-31G
 ------------------

 ------------
 H2O_H2O_1284
 ------------
 Symbolic Z-matrix:
 Charge =  0 Multiplicity = 1

                         Standard orientation:
 ---------------------------------------------------------------------
 Center     Atomic      Atomic             Coordinates (Angstroms)
 Number     Number       Type             X           Y           Z
 ---------------------------------------------------------------------
      1          8           0        0.066802    1.617310   -0.000000
      2          1           0        0.065350    0.634709   -0.000000
      3          1           0       -0.862219    1.937349   -0.000000
      4          8           0        0.066802   -1.444269    0.000000
      5          1           0        0.611498   -2.262078    0.000000
      6          1           0       -0.883456   -1.694302    0.000000
 ---------------------------------------------------------------------

 SCF Done:  E(RHF) =  -33.6601044888     A.U. after   11 cycles
 E2 =    -0.2289904768D+00 EUMP2 =    -0.33889094965682D+02
 CCSD(T)
 CCSD(T)= -0.33905855537D+02

 The electronic state is 1-A'.
 Alpha  occ. eigenvalues --   -1.38379  -1.32218  -0.74093  -0.68246  -0.58761
 Alpha  occ. eigenvalues --   -0.53050  -0.51879  -0.46836
 Alpha virt. eigenvalues --    0.17538   0.25500   0.28169   0.41012   0.76419
 Alpha virt. eigenvalues --    0.79522   0.84969   0.85449   0.92345   1.03804
 Alpha virt. eigenvalues --    1.14962   1.18583   1.21484   1.35821   2.50180

 Mulliken charges:
               1
     1  O   -0.775234
     2  H    0.424254
     3  H    0.349217
     4  O   -0.788851
     5  H    0.408990
     6  H    0.381624
 Sum of Mulliken charges =   0.00000

 Dipole moment (field-independent basis, Debye):
    X=             -2.9545    Y=             -4.4529    Z=              0.0000  Tot=              5.3439
 Quadrupole moment (field-independent basis, Debye-Ang):
   XX=             -9.8942   YY=             -8.4532   ZZ=            -15.0073
   XY=             -3.8820   XZ=              0.0000   YZ=             -0.0000

 23\MP4DQ=-33.9000247\MP4SDQ=-33.9021471\CCSD=-33.9031355\CCSD(T)=-33.9
 Normal termination of Gaussian 16 at Sun Dec 10 06:42:47 2023.
