 Gaussian 16, Revision A.03,
 Gaussian 16:  ES64L-G16RevA.03 25-Dec-2016

 ------------------
 #p CCSD(T)/CEP-31G
 ------------------

 ------------
 H2O_H2O_1221
 ------------
 Symbolic Z-matrix:
 Charge =  0 Multiplicity = 1

                         Standard orientation:
 ---------------------------------------------------------------------
 Center     Atomic      Atomic             Coordinates (Angstroms)
 Number     Number       Type             X           Y           Z
 ---------------------------------------------------------------------
      1          8           0       -0.023324    1.585928    0.000000
      2          1           0       -0.019381    0.603335    0.000000
      3          1           0        0.904882    1.908323    0.000000
      4          8           0       -0.023324   -1.415605    0.000000
      5          1           0       -0.986269   -1.611167    0.000000
      6          1           0        0.473960   -2.263080    0.000000
 ---------------------------------------------------------------------

 SCF Done:  E(RHF) =  -33.6623764517     A.U. after   11 cycles
 E2 =    -0.2287858560D+00 EUMP2 =    -0.33891162307651D+02
 CCSD(T)
 CCSD(T)= -0.33907840761D+02

 The electronic state is 1-A'.
 Alpha  occ. eigenvalues --   -1.38427  -1.31921  -0.74168  -0.68122  -0.59005
 Alpha  occ. eigenvalues --   -0.53132  -0.51629  -0.46607
 Alpha virt. eigenvalues --    0.17743   0.25945   0.28252   0.42011   0.76211
 Alpha virt. eigenvalues --    0.78956   0.85326   0.86414   0.90999   1.05789
 Alpha virt. eigenvalues --    1.15918   1.17765   1.22412   1.36075   2.51110

 Mulliken charges:
               1
     1  O   -0.784675
     2  H    0.422091
     3  H    0.358850
     4  O   -0.798447
     5  H    0.393968
     6  H    0.408213
 Sum of Mulliken charges =   0.00000

 Dipole moment (field-independent basis, Debye):
    X=              1.0432    Y=             -4.4050    Z=              0.0000  Tot=              4.5268
 Quadrupole moment (field-independent basis, Debye-Ang):
   XX=             -9.5587   YY=             -8.5620   ZZ=            -15.0131
   XY=              5.1679   XZ=              0.0000   YZ=              0.0000

 3133\MP4DQ=-33.9020209\MP4SDQ=-33.9041363\CCSD=-33.9051166\CCSD(T)=-33
 Normal termination of Gaussian 16 at Sun Dec 10 06:41:32 2023.
