 Gaussian 16, Revision A.03,
 Gaussian 16:  ES64L-G16RevA.03 25-Dec-2016

 ------------------
 #p CCSD(T)/CEP-31G
 ------------------

 ----------
 H2O_H2O_66
 ----------
 Symbolic Z-matrix:
 Charge =  0 Multiplicity = 1

                         Standard orientation:
 ---------------------------------------------------------------------
 Center     Atomic      Atomic             Coordinates (Angstroms)
 Number     Number       Type             X           Y           Z
 ---------------------------------------------------------------------
      1          8           0        0.041349    1.132334   -0.000000
      2          1           0        0.037131    0.149742   -0.000000
      3          1           0       -0.886768    1.454988   -0.000000
      4          8           0        0.041349   -0.952601    0.000000
      5          1           0        0.890190   -1.447550    0.000000
      6          1           0       -0.702135   -1.595047    0.000000
 ---------------------------------------------------------------------

 SCF Done:  E(RHF) =  -33.5962978154     A.U. after   11 cycles
 E2 =    -0.2273052045D+00 EUMP2 =    -0.33823603019949D+02
 CCSD(T)
 CCSD(T)= -0.33838042042D+02

 The electronic state is 1-A'.
 Alpha  occ. eigenvalues --   -1.46181  -1.26398  -0.80670  -0.78739  -0.59255
 Alpha  occ. eigenvalues --   -0.54253  -0.43094  -0.40282
 Alpha virt. eigenvalues --    0.16226   0.24927   0.30527   0.62429   0.73226
 Alpha virt. eigenvalues --    0.73535   0.85221   0.91903   0.92189   1.06290
 Alpha virt. eigenvalues --    1.13335   1.16535   1.30629   1.36390   2.96056

 Mulliken charges:
               1
     1  O   -0.748040
     2  H    0.292404
     3  H    0.304888
     4  O   -0.762734
     5  H    0.456241
     6  H    0.457240
 Sum of Mulliken charges =   0.00000

 Dipole moment (field-independent basis, Debye):
    X=             -1.6782    Y=             -5.8042    Z=              0.0000  Tot=              6.0419
 Quadrupole moment (field-independent basis, Debye-Ang):
   XX=             -9.2553   YY=            -10.7988   ZZ=            -14.9231
   XY=             -3.3013   XZ=              0.0000   YZ=             -0.0000

 9\MP4DQ=-33.8318491\MP4SDQ=-33.834205\CCSD=-33.8347768\CCSD(T)=-33.838
 Normal termination of Gaussian 16 at Sun Dec 10 06:19:19 2023.
