 Gaussian 16, Revision A.03,
 Gaussian 16:  ES64L-G16RevA.03 25-Dec-2016

 ------------------
 #p CCSD(T)/CEP-31G
 ------------------

 ------------
 H2O_H2O_3668
 ------------
 Symbolic Z-matrix:
 Charge =  0 Multiplicity = 1

                         Standard orientation:
 ---------------------------------------------------------------------
 Center     Atomic      Atomic             Coordinates (Angstroms)
 Number     Number       Type             X           Y           Z
 ---------------------------------------------------------------------
      1          8           0        0.033773    2.567086    0.000000
      2          1           0        0.031747    1.584486    0.000000
      3          1           0       -0.895061    2.887668    0.000000
      4          8           0        0.033773   -2.389549   -0.000000
      5          1           0        0.940801   -2.767446   -0.000000
      6          1           0       -0.617857   -3.124999   -0.000000
 ---------------------------------------------------------------------

 SCF Done:  E(RHF) =  -33.6542897846     A.U. after   11 cycles
 E2 =    -0.2282799066D+00 EUMP2 =    -0.33882569691218D+02
 CCSD(T)
 CCSD(T)= -0.33899499698D+02

 The electronic state is 1-A'.
 Alpha  occ. eigenvalues --   -1.36452  -1.34378  -0.72094  -0.70010  -0.56331
 Alpha  occ. eigenvalues --   -0.54191  -0.51060  -0.48990
 Alpha virt. eigenvalues --    0.19315   0.21670   0.29695   0.31905   0.79499
 Alpha virt. eigenvalues --    0.81507   0.82248   0.84502   0.85517   0.87631
 Alpha virt. eigenvalues --    1.16555   1.18700   1.20970   1.23545   2.56514

 Mulliken charges:
               1
     1  O   -0.750861
     2  H    0.382765
     3  H    0.367922
     4  O   -0.749741
     5  H    0.375716
     6  H    0.374199
 Sum of Mulliken charges =   0.00000

 Dipole moment (field-independent basis, Debye):
    X=             -1.5452    Y=             -4.1933    Z=             -0.0000  Tot=              4.4690
 Quadrupole moment (field-independent basis, Debye-Ang):
   XX=             -9.4344   YY=             -6.0579   ZZ=            -14.9937
   XY=             -7.5590   XZ=             -0.0000   YZ=              0.0000

 1178\MP4DQ=-33.8938691\MP4SDQ=-33.8958942\CCSD=-33.8969419\CCSD(T)=-33
 Normal termination of Gaussian 16 at Sun Dec 10 06:39:00 2023.
