 Gaussian 16, Revision A.03,
 Gaussian 16:  ES64L-G16RevA.03 25-Dec-2016

 ------------------
 #p CCSD(T)/CEP-31G
 ------------------

 ------------
 H2O_H2O_1612
 ------------
 Symbolic Z-matrix:
 Charge =  0 Multiplicity = 1

                         Standard orientation:
 ---------------------------------------------------------------------
 Center     Atomic      Atomic             Coordinates (Angstroms)
 Number     Number       Type             X           Y           Z
 ---------------------------------------------------------------------
      1          8           0        0.056036    1.750102    0.000000
      2          1           0        0.054146    0.767503    0.000000
      3          1           0       -0.872843    2.070555   -0.000000
      4          8           0        0.056036   -1.571252    0.000000
      5          1           0        0.749503   -2.267390    0.000000
      6          1           0       -0.827376   -2.001474   -0.000000
 ---------------------------------------------------------------------

 SCF Done:  E(RHF) =  -33.6600039939     A.U. after   11 cycles
 E2 =    -0.2288137922D+00 EUMP2 =    -0.33888817786067D+02
 CCSD(T)
 CCSD(T)= -0.33905635617D+02

 The electronic state is 1-A'.
 Alpha  occ. eigenvalues --   -1.37820  -1.32582  -0.73474  -0.68346  -0.58213
 Alpha  occ. eigenvalues --   -0.52501  -0.52365  -0.47232
 Alpha virt. eigenvalues --    0.17905   0.24831   0.28651   0.37965   0.77435
 Alpha virt. eigenvalues --    0.81215   0.83926   0.85819   0.90812   0.95895
 Alpha virt. eigenvalues --    1.15251   1.19832   1.20810   1.34146   2.49927

 Mulliken charges:
               1
     1  O   -0.775624
     2  H    0.418520
     3  H    0.355359
     4  O   -0.774964
     5  H    0.394880
     6  H    0.381829
 Sum of Mulliken charges =  -0.00000

 Dipole moment (field-independent basis, Debye):
    X=             -2.5036    Y=             -4.4890    Z=             -0.0000  Tot=              5.1399
 Quadrupole moment (field-independent basis, Debye-Ang):
   XX=             -9.5730   YY=             -7.9474   ZZ=            -15.0057
   XY=             -4.4799   XZ=              0.0000   YZ=             -0.0000

 482\MP4DQ=-33.8998735\MP4SDQ=-33.9019634\CCSD=-33.9029732\CCSD(T)=-33.
 Normal termination of Gaussian 16 at Sun Dec 10 06:49:19 2023.
