 Gaussian 16, Revision A.03,
 Gaussian 16:  ES64L-G16RevA.03 25-Dec-2016

 ------------------
 #p CCSD(T)/CEP-31G
 ------------------

 ------------
 H2O_H2O_4497
 ------------
 Symbolic Z-matrix:
 Charge =  0 Multiplicity = 1

                         Standard orientation:
 ---------------------------------------------------------------------
 Center     Atomic      Atomic             Coordinates (Angstroms)
 Number     Number       Type             X           Y           Z
 ---------------------------------------------------------------------
      1          8           0       -0.019816    2.890506    0.000000
      2          1           0       -0.017606    1.907907    0.000000
      3          1           0        0.908958    3.211261    0.000000
      4          8           0       -0.019816   -2.723381    0.000000
      5          1           0       -0.993721   -2.853826    0.000000
      6          1           0        0.419425   -3.602342    0.000000
 ---------------------------------------------------------------------

 SCF Done:  E(RHF) =  -33.6534208862     A.U. after   11 cycles
 E2 =    -0.2282894689D+00 EUMP2 =    -0.33881710355091D+02
 CCSD(T)
 CCSD(T)= -0.33898665686D+02

 The electronic state is 1-A'.
 Alpha  occ. eigenvalues --   -1.36249  -1.34772  -0.71890  -0.70410  -0.56075
 Alpha  occ. eigenvalues --   -0.54565  -0.50845  -0.49372
 Alpha virt. eigenvalues --    0.19593   0.21133   0.29860   0.31408   0.79706
 Alpha virt. eigenvalues --    0.81146   0.82556   0.84129   0.85731   0.87225
 Alpha virt. eigenvalues --    1.16723   1.18207   1.21160   1.22712   2.56681

 Mulliken charges:
               1
     1  O   -0.747476
     2  H    0.377712
     3  H    0.369754
     4  O   -0.747031
     5  H    0.373484
     6  H    0.373557
 Sum of Mulliken charges =  -0.00000

 Dipole moment (field-independent basis, Debye):
    X=              0.9098    Y=             -3.9170    Z=              0.0000  Tot=              4.0213
 Quadrupole moment (field-independent basis, Debye-Ang):
   XX=             -9.6804   YY=             -6.2739   ZZ=            -14.9918
   XY=              9.7977   XZ=              0.0000   YZ=              0.0000

 849\MP4DQ=-33.8930327\MP4SDQ=-33.8950563\CCSD=-33.8961085\CCSD(T)=-33.
 Normal termination of Gaussian 16 at Sun Dec 10 06:53:57 2023.
