 Gaussian 16, Revision A.03,
 Gaussian 16:  ES64L-G16RevA.03 25-Dec-2016

 ------------------
 #p CCSD(T)/CEP-31G
 ------------------

 -----------
 H2O_H2O_873
 -----------
 Symbolic Z-matrix:
 Charge =  0 Multiplicity = 1

                         Standard orientation:
 ---------------------------------------------------------------------
 Center     Atomic      Atomic             Coordinates (Angstroms)
 Number     Number       Type             X           Y           Z
 ---------------------------------------------------------------------
      1          8           0       -0.016784    1.442524    0.000000
      2          1           0       -0.012025    0.459934    0.000000
      3          1           0        0.911154    1.765688    0.000000
      4          8           0       -0.016784   -1.279199    0.000000
      5          1           0       -0.996959   -1.348211    0.000000
      6          1           0        0.366379   -2.184014    0.000000
 ---------------------------------------------------------------------

 SCF Done:  E(RHF) =  -33.6605093454     A.U. after   11 cycles
 E2 =    -0.2285800652D+00 EUMP2 =    -0.33889089410596D+02
 CCSD(T)
 CCSD(T)= -0.33905533899D+02

 The electronic state is 1-A'.
 Alpha  occ. eigenvalues --   -1.39403  -1.31171  -0.75457  -0.68244  -0.59575
 Alpha  occ. eigenvalues --   -0.54036  -0.50606  -0.45825
 Alpha virt. eigenvalues --    0.17543   0.26791   0.27687   0.46969   0.74963
 Alpha virt. eigenvalues --    0.77500   0.86485   0.86934   0.91920   1.08711
 Alpha virt. eigenvalues --    1.15810   1.21334   1.25027   1.37064   2.56624

 Mulliken charges:
               1
     1  O   -0.778389
     2  H    0.409038
     3  H    0.356870
     4  O   -0.820012
     5  H    0.400697
     6  H    0.431796
 Sum of Mulliken charges =  -0.00000

 Dipole moment (field-independent basis, Debye):
    X=              0.7525    Y=             -4.4178    Z=              0.0000  Tot=              4.4815
 Quadrupole moment (field-independent basis, Debye-Ang):
   XX=             -9.7241   YY=             -9.0638   ZZ=            -15.0145
   XY=              4.9163   XZ=              0.0000   YZ=              0.0000

 05\MP4DQ=-33.8996355\MP4SDQ=-33.9017974\CCSD=-33.9027283\CCSD(T)=-33.9
 Normal termination of Gaussian 16 at Sun Dec 10 06:34:56 2023.
