 Gaussian 16, Revision A.03,
 Gaussian 16:  ES64L-G16RevA.03 25-Dec-2016

 ------------------
 #p CCSD(T)/CEP-31G
 ------------------

 ------------
 H2O_H2O_1411
 ------------
 Symbolic Z-matrix:
 Charge =  0 Multiplicity = 1

                         Standard orientation:
 ---------------------------------------------------------------------
 Center     Atomic      Atomic             Coordinates (Angstroms)
 Number     Number       Type             X           Y           Z
 ---------------------------------------------------------------------
      1          8           0        0.059689    1.669528   -0.000000
      2          1           0        0.057901    0.686928   -0.000000
      3          1           0       -0.869222    1.989885   -0.000000
      4          8           0        0.059689   -1.492148    0.000000
      5          1           0        0.706219   -2.232085    0.000000
      6          1           0       -0.849929   -1.863764    0.000000
 ---------------------------------------------------------------------

 SCF Done:  E(RHF) =  -33.6606526231     A.U. after   11 cycles
 E2 =    -0.2289333569D+00 EUMP2 =    -0.33889585979936D+02
 CCSD(T)
 CCSD(T)= -0.33906352985D+02

 The electronic state is 1-A'.
 Alpha  occ. eigenvalues --   -1.38126  -1.32283  -0.73789  -0.68204  -0.58575
 Alpha  occ. eigenvalues --   -0.52815  -0.52008  -0.46925
 Alpha virt. eigenvalues --    0.17746   0.25291   0.28410   0.39846   0.76851
 Alpha virt. eigenvalues --    0.80117   0.84583   0.85659   0.91926   0.99623
 Alpha virt. eigenvalues --    1.14995   1.19400   1.21164   1.34760   2.49744

 Mulliken charges:
               1
     1  O   -0.777744
     2  H    0.424267
     3  H    0.352116
     4  O   -0.783605
     5  H    0.401772
     6  H    0.383193
 Sum of Mulliken charges =  -0.00000

 Dipole moment (field-independent basis, Debye):
    X=             -2.6501    Y=             -4.5110    Z=              0.0000  Tot=              5.2318
 Quadrupole moment (field-independent basis, Debye-Ang):
   XX=             -9.6607   YY=             -8.2248   ZZ=            -15.0079
   XY=             -4.2157   XZ=              0.0000   YZ=             -0.0000

 7\MP4DQ=-33.9005572\MP4SDQ=-33.9026596\CCSD=-33.9036563\CCSD(T)=-33.90
 Normal termination of Gaussian 16 at Sun Dec 10 06:45:19 2023.
