 Gaussian 16, Revision A.03,
 Gaussian 16:  ES64L-G16RevA.03 25-Dec-2016

 ------------------
 #p CCSD(T)/CEP-31G
 ------------------

 ------------
 H2O_H2O_3507
 ------------
 Symbolic Z-matrix:
 Charge =  0 Multiplicity = 1

                         Standard orientation:
 ---------------------------------------------------------------------
 Center     Atomic      Atomic             Coordinates (Angstroms)
 Number     Number       Type             X           Y           Z
 ---------------------------------------------------------------------
      1          8           0        0.073532    2.501498    0.000000
      2          1           0        0.072850    1.518897    0.000000
      3          1           0       -0.855740    2.820809    0.000000
      4          8           0        0.073532   -2.334550   -0.000000
      5          1           0        0.507515   -3.216120   -0.000000
      6          1           0       -0.901135   -2.459174   -0.000000
 ---------------------------------------------------------------------

 SCF Done:  E(RHF) =  -33.6534796833     A.U. after   11 cycles
 E2 =    -0.2283283632D+00 EUMP2 =    -0.33881808046552D+02
 CCSD(T)
 CCSD(T)= -0.33898761281D+02

 The electronic state is 1-A'.
 Alpha  occ. eigenvalues --   -1.36540  -1.34515  -0.72191  -0.70126  -0.56376
 Alpha  occ. eigenvalues --   -0.54288  -0.51134  -0.49107
 Alpha virt. eigenvalues --    0.19044   0.21587   0.29529   0.31761   0.79435
 Alpha virt. eigenvalues --    0.81404   0.82273   0.84438   0.85399   0.87687
 Alpha virt. eigenvalues --    1.16417   1.18571   1.20814   1.23760   2.56418

 Mulliken charges:
               1
     1  O   -0.747771
     2  H    0.382162
     3  H    0.365389
     4  O   -0.747482
     5  H    0.377213
     6  H    0.370490
 Sum of Mulliken charges =   0.00000

 Dipole moment (field-independent basis, Debye):
    X=             -3.3674    Y=             -3.9557    Z=              0.0000  Tot=              5.1949
 Quadrupole moment (field-independent basis, Debye-Ang):
   XX=            -10.1696   YY=             -6.9502   ZZ=            -14.9917
   XY=             -4.3861   XZ=             -0.0000   YZ=              0.0000

 52\MP4DQ=-33.8931224\MP4SDQ=-33.8951511\CCSD=-33.8961993\CCSD(T)=-33.8
 Normal termination of Gaussian 16 at Sun Dec 10 06:36:08 2023.
