 Gaussian 16, Revision A.03,
 Gaussian 16:  ES64L-G16RevA.03 25-Dec-2016

 ------------------
 #p CCSD(T)/CEP-31G
 ------------------

 ------------
 H2O_H2O_1673
 ------------
 Symbolic Z-matrix:
 Charge =  0 Multiplicity = 1

                         Standard orientation:
 ---------------------------------------------------------------------
 Center     Atomic      Atomic             Coordinates (Angstroms)
 Number     Number       Type             X           Y           Z
 ---------------------------------------------------------------------
      1          8           0       -0.016709    1.761638    0.000000
      2          1           0       -0.012854    0.779044    0.000000
      3          1           0        0.911526    2.083949    0.000000
      4          8           0       -0.016709   -1.598281    0.000000
      5          1           0       -0.996947   -1.666394    0.000000
      6          1           0        0.365622   -2.503450    0.000000
 ---------------------------------------------------------------------

 SCF Done:  E(RHF) =  -33.6598408591     A.U. after   11 cycles
 E2 =    -0.2286423697D+00 EUMP2 =    -0.33888483228827D+02
 CCSD(T)
 CCSD(T)= -0.33905354757D+02

 The electronic state is 1-A'.
 Alpha  occ. eigenvalues --   -1.37698  -1.33002  -0.73424  -0.68741  -0.58046
 Alpha  occ. eigenvalues --   -0.52847  -0.52365  -0.47686
 Alpha virt. eigenvalues --    0.17766   0.24718   0.28783   0.37046   0.77559
 Alpha virt. eigenvalues --    0.81261   0.83479   0.86235   0.88446   0.99318
 Alpha virt. eigenvalues --    1.15628   1.18998   1.21181   1.36838   2.51550

 Mulliken charges:
               1
     1  O   -0.776169
     2  H    0.407687
     3  H    0.365371
     4  O   -0.775318
     5  H    0.385072
     6  H    0.393358
 Sum of Mulliken charges =  -0.00000

 Dipole moment (field-independent basis, Debye):
    X=              0.7493    Y=             -4.0881    Z=              0.0000  Tot=              4.1562
 Quadrupole moment (field-independent basis, Debye-Ang):
   XX=             -9.7497   YY=             -8.3097   ZZ=            -15.0044
   XY=              6.1243   XZ=              0.0000   YZ=              0.0000

 8542\MP4DQ=-33.8995914\MP4SDQ=-33.9016928\CCSD=-33.9027068\CCSD(T)=-33
 Normal termination of Gaussian 16 at Sun Dec 10 06:50:28 2023.
