 Gaussian 16, Revision A.03,
 Gaussian 16:  ES64L-G16RevA.03 25-Dec-2016

 ------------------
 #p CCSD(T)/CEP-31G
 ------------------

 ------------
 H2O_H2O_2644
 ------------
 Symbolic Z-matrix:
 Charge =  0 Multiplicity = 1

                         Standard orientation:
 ---------------------------------------------------------------------
 Center     Atomic      Atomic             Coordinates (Angstroms)
 Number     Number       Type             X           Y           Z
 ---------------------------------------------------------------------
      1          8           0        0.030209    2.157184    0.000000
      2          1           0        0.027634    1.174586    0.000000
      3          1           0       -0.898446    2.478285    0.000000
      4          8           0        0.030209   -1.981591   -0.000000
      5          1           0        0.959832   -2.299874   -0.000000
      6          1           0       -0.572358   -2.757748   -0.000000
 ---------------------------------------------------------------------

 SCF Done:  E(RHF) =  -33.6564189135     A.U. after   11 cycles
 E2 =    -0.2283675210D+00 EUMP2 =    -0.33884786434434D+02
 CCSD(T)
 CCSD(T)= -0.33901678341D+02

 The electronic state is 1-A'.
 Alpha  occ. eigenvalues --   -1.36893  -1.33792  -0.72543  -0.69428  -0.56909
 Alpha  occ. eigenvalues --   -0.53646  -0.51530  -0.48432
 Alpha virt. eigenvalues --    0.18498   0.22784   0.29361   0.32935   0.79016
 Alpha virt. eigenvalues --    0.82062   0.83386   0.84602   0.85909   0.88082
 Alpha virt. eigenvalues --    1.16169   1.19677   1.20605   1.28223   2.55060

 Mulliken charges:
               1
     1  O   -0.759869
     2  H    0.392253
     3  H    0.366187
     4  O   -0.755919
     5  H    0.379373
     6  H    0.377975
 Sum of Mulliken charges =  -0.00000

 Dipole moment (field-independent basis, Debye):
    X=             -1.3707    Y=             -4.2296    Z=             -0.0000  Tot=              4.4462
 Quadrupole moment (field-independent basis, Debye-Ang):
   XX=             -9.4655   YY=             -7.0326   ZZ=            -14.9977
   XY=             -6.6434   XZ=             -0.0000   YZ=              0.0000

 656\MP4DQ=-33.8960213\MP4SDQ=-33.8980701\CCSD=-33.8991028\CCSD(T)=-33.
 Normal termination of Gaussian 16 at Sun Dec 10 06:20:36 2023.
