 Gaussian 16, Revision A.03,
 Gaussian 16:  ES64L-G16RevA.03 25-Dec-2016

 ------------------
 #p CCSD(T)/CEP-31G
 ------------------

 ------------
 H2O_H2O_3629
 ------------
 Symbolic Z-matrix:
 Charge =  0 Multiplicity = 1

                         Standard orientation:
 ---------------------------------------------------------------------
 Center     Atomic      Atomic             Coordinates (Angstroms)
 Number     Number       Type             X           Y           Z
 ---------------------------------------------------------------------
      1          8           0        0.082801    2.544608   -0.000000
      2          1           0        0.082452    1.562007   -0.000000
      3          1           0       -0.846579    2.863604   -0.000000
      4          8           0        0.082801   -2.390085    0.000000
      5          1           0        0.336780   -3.339296    0.000000
      6          1           0       -0.897474   -2.322499    0.000000
 ---------------------------------------------------------------------

 SCF Done:  E(RHF) =  -33.6528584450     A.U. after   11 cycles
 E2 =    -0.2283434655D+00 EUMP2 =    -0.33881201910562D+02
 CCSD(T)
 CCSD(T)= -0.33898173507D+02

 The electronic state is 1-A'.
 Alpha  occ. eigenvalues --   -1.36514  -1.34747  -0.72168  -0.70357  -0.56315
 Alpha  occ. eigenvalues --   -0.54502  -0.51098  -0.49329
 Alpha virt. eigenvalues --    0.18981   0.21366   0.29545   0.31454   0.79473
 Alpha virt. eigenvalues --    0.81195   0.82327   0.84210   0.85436   0.87510
 Alpha virt. eigenvalues --    1.16382   1.18321   1.20849   1.23308   2.56318

 Mulliken charges:
               1
     1  O   -0.745377
     2  H    0.379629
     3  H    0.365620
     4  O   -0.745601
     5  H    0.376756
     6  H    0.368973
 Sum of Mulliken charges =  -0.00000

 Dipole moment (field-independent basis, Debye):
    X=             -3.7963    Y=             -3.6556    Z=              0.0000  Tot=              5.2702
 Quadrupole moment (field-independent basis, Debye-Ang):
   XX=            -10.6422   YY=             -7.8255   ZZ=            -14.9902
   XY=             -3.5250   XZ=              0.0000   YZ=             -0.0000

 874\MP4DQ=-33.8925318\MP4SDQ=-33.8945602\CCSD=-33.8956108\CCSD(T)=-33.
 Normal termination of Gaussian 16 at Sun Dec 10 06:38:18 2023.
