 Gaussian 16, Revision A.03,
 Gaussian 16:  ES64L-G16RevA.03 25-Dec-2016

 ------------------
 #p CCSD(T)/CEP-31G
 ------------------

 ------------
 H2O_H2O_3859
 ------------
 Symbolic Z-matrix:
 Charge =  0 Multiplicity = 1

                         Standard orientation:
 ---------------------------------------------------------------------
 Center     Atomic      Atomic             Coordinates (Angstroms)
 Number     Number       Type             X           Y           Z
 ---------------------------------------------------------------------
      1          8           0        0.066750    2.644458   -0.000000
      2          1           0        0.065881    1.661857   -0.000000
      3          1           0       -0.862461    2.963946   -0.000000
      4          8           0        0.066750   -2.471338    0.000000
      5          1           0        0.611933   -3.288823    0.000000
      6          1           0       -0.883358   -2.721935    0.000000
 ---------------------------------------------------------------------

 SCF Done:  E(RHF) =  -33.6534132421     A.U. after   11 cycles
 E2 =    -0.2283103407D+00 EUMP2 =    -0.33881723582820D+02
 CCSD(T)
 CCSD(T)= -0.33898677692D+02

 The electronic state is 1-A'.
 Alpha  occ. eigenvalues --   -1.36421  -1.34554  -0.72067  -0.70173  -0.56252
 Alpha  occ. eigenvalues --   -0.54332  -0.51015  -0.49148
 Alpha virt. eigenvalues --    0.19332   0.21428   0.29669   0.31680   0.79547
 Alpha virt. eigenvalues --    0.81364   0.82349   0.84386   0.85539   0.87558
 Alpha virt. eigenvalues --    1.16550   1.18450   1.20963   1.23186   2.56518

 Mulliken charges:
               1
     1  O   -0.747487
     2  H    0.381016
     3  H    0.366379
     4  O   -0.747093
     5  H    0.376089
     6  H    0.371095
 Sum of Mulliken charges =   0.00000

 Dipole moment (field-independent basis, Debye):
    X=             -3.0605    Y=             -4.0837    Z=             -0.0000  Tot=              5.1033
 Quadrupole moment (field-independent basis, Debye-Ang):
   XX=             -9.8943   YY=             -6.2442   ZZ=            -14.9918
   XY=             -5.1290   XZ=              0.0000   YZ=             -0.0000

 53\MP4DQ=-33.8930426\MP4SDQ=-33.8950682\CCSD=-33.8961186\CCSD(T)=-33.8
 Normal termination of Gaussian 16 at Sun Dec 10 06:42:27 2023.
