 Gaussian 16, Revision A.03,
 Gaussian 16:  ES64L-G16RevA.03 25-Dec-2016

 ------------------
 #p CCSD(T)/CEP-31G
 ------------------

 -----------
 H2O_H2O_843
 -----------
 Symbolic Z-matrix:
 Charge =  0 Multiplicity = 1

                         Standard orientation:
 ---------------------------------------------------------------------
 Center     Atomic      Atomic             Coordinates (Angstroms)
 Number     Number       Type             X           Y           Z
 ---------------------------------------------------------------------
      1          8           0        0.033926    1.440204   -0.000000
      2          1           0        0.030210    0.457609   -0.000000
      3          1           0       -0.894356    1.762382   -0.000000
      4          8           0        0.033926   -1.262784    0.000000
      5          1           0        0.940303   -1.642239    0.000000
      6          1           0       -0.618966   -1.997112    0.000000
 ---------------------------------------------------------------------

 SCF Done:  E(RHF) =  -33.6623922677     A.U. after   11 cycles
 E2 =    -0.2289410137D+00 EUMP2 =    -0.33891333281417D+02
 CCSD(T)
 CCSD(T)= -0.33907562753D+02

 The electronic state is 1-A'.
 Alpha  occ. eigenvalues --   -1.39484  -1.30586  -0.75061  -0.68715  -0.59353
 Alpha  occ. eigenvalues --   -0.54208  -0.49963  -0.45211
 Alpha virt. eigenvalues --    0.17515   0.27152   0.27633   0.48273   0.74936
 Alpha virt. eigenvalues --    0.76243   0.85950   0.87396   0.95008   1.01363
 Alpha virt. eigenvalues --    1.15723   1.18393   1.23607   1.36807   2.56746

 Mulliken charges:
               1
     1  O   -0.785266
     2  H    0.431427
     3  H    0.347163
     4  O   -0.822179
     5  H    0.409396
     6  H    0.419459
 Sum of Mulliken charges =   0.00000

 Dipole moment (field-independent basis, Debye):
    X=             -1.4925    Y=             -4.7669    Z=              0.0000  Tot=              4.9950
 Quadrupole moment (field-independent basis, Debye-Ang):
   XX=             -9.3717   YY=             -9.0628   ZZ=            -15.0196
   XY=             -4.3482   XZ=              0.0000   YZ=             -0.0000

 67\MP4DQ=-33.9016837\MP4SDQ=-33.9038141\CCSD=-33.904715\CCSD(T)=-33.90
 Normal termination of Gaussian 16 at Sun Dec 10 06:34:22 2023.
