 Gaussian 16, Revision A.03,
 Gaussian 16:  ES64L-G16RevA.03 25-Dec-2016

 ------------------
 #p CCSD(T)/CEP-31G
 ------------------

 ------------
 H2O_H2O_1883
 ------------
 Symbolic Z-matrix:
 Charge =  0 Multiplicity = 1

                         Standard orientation:
 ---------------------------------------------------------------------
 Center     Atomic      Atomic             Coordinates (Angstroms)
 Number     Number       Type             X           Y           Z
 ---------------------------------------------------------------------
      1          8           0        0.070219    1.855097    0.000000
      2          1           0        0.069128    0.872496    0.000000
      3          1           0       -0.858919    2.174795    0.000000
      4          8           0        0.070219   -1.684886   -0.000000
      5          1           0        0.560574   -2.536390   -0.000000
      6          1           0       -0.894288   -1.872589   -0.000000
 ---------------------------------------------------------------------

 SCF Done:  E(RHF) =  -33.6572474565     A.U. after   11 cycles
 E2 =    -0.2287009554D+00 EUMP2 =    -0.33885948411836D+02
 CCSD(T)
 CCSD(T)= -0.33902871158D+02

 The electronic state is 1-A'.
 Alpha  occ. eigenvalues --   -1.37538  -1.33290  -0.73229  -0.68910  -0.57684
 Alpha  occ. eigenvalues --   -0.53067  -0.52173  -0.47910
 Alpha virt. eigenvalues --    0.17746   0.24013   0.28780   0.35507   0.78038
 Alpha virt. eigenvalues --    0.82413   0.82972   0.85389   0.89342   0.93404
 Alpha virt. eigenvalues --    1.15413   1.19640   1.20557   1.34912   2.51619

 Mulliken charges:
               1
     1  O   -0.764984
     2  H    0.405724
     3  H    0.356983
     4  O   -0.763100
     5  H    0.390710
     6  H    0.374668
 Sum of Mulliken charges =   0.00000

 Dipole moment (field-independent basis, Debye):
    X=             -3.1645    Y=             -4.2213    Z=             -0.0000  Tot=              5.2758
 Quadrupole moment (field-independent basis, Debye-Ang):
   XX=            -10.0341   YY=             -7.9279   ZZ=            -14.9988
   XY=             -3.9836   XZ=              0.0000   YZ=              0.0000

 1\MP4DQ=-33.8971269\MP4SDQ=-33.8992183\CCSD=-33.900241\CCSD(T)=-33.902
 Normal termination of Gaussian 16 at Sun Dec 10 06:54:26 2023.
