 Gaussian 16, Revision A.03,
 Gaussian 16:  ES64L-G16RevA.03 25-Dec-2016

 ------------------
 #p CCSD(T)/CEP-31G
 ------------------

 ------------
 H2O_H2O_4526
 ------------
 Symbolic Z-matrix:
 Charge =  0 Multiplicity = 1

                         Standard orientation:
 ---------------------------------------------------------------------
 Center     Atomic      Atomic             Coordinates (Angstroms)
 Number     Number       Type             X           Y           Z
 ---------------------------------------------------------------------
      1          8           0        0.090683   -2.895009    0.000000
      2          1           0        0.090615   -1.912408    0.000000
      3          1           0       -0.838787   -3.213740    0.000000
      4          8           0        0.090683    2.756298    0.000000
      5          1           0        0.154880    3.736800    0.000000
      6          1           0       -0.857644    2.499039    0.000000
 ---------------------------------------------------------------------

 SCF Done:  E(RHF) =  -33.6520858263     A.U. after   11 cycles
 E2 =    -0.2283572993D+00 EUMP2 =    -0.33880443125608D+02
 CCSD(T)
 CCSD(T)= -0.33897436738D+02

 The electronic state is 1-A'.
 Alpha  occ. eigenvalues --   -1.36297  -1.35134  -0.71944  -0.70752  -0.56054
 Alpha  occ. eigenvalues --   -0.54870  -0.50871  -0.49706
 Alpha virt. eigenvalues --    0.19413   0.20739   0.29733   0.30946   0.79692
 Alpha virt. eigenvalues --    0.80835   0.82655   0.83853   0.85720   0.87032
 Alpha virt. eigenvalues --    1.16606   1.17791   1.21070   1.22296   2.56496

 Mulliken charges:
               1
     1  O   -0.742349
     2  H    0.374966
     3  H    0.367379
     4  O   -0.742643
     5  H    0.374466
     6  H    0.368182
 Sum of Mulliken charges =  -0.00000

 Dipole moment (field-independent basis, Debye):
    X=             -4.1720    Y=              3.2558    Z=              0.0000  Tot=              5.2921
 Quadrupole moment (field-independent basis, Debye-Ang):
   XX=            -11.1258   YY=             -9.0320   ZZ=            -14.9886
   XY=              2.6489   XZ=              0.0000   YZ=              0.0000

 0519\MP4DQ=-33.8917934\MP4SDQ=-33.8938206\CCSD=-33.8948752\CCSD(T)=-33
 Normal termination of Gaussian 16 at Sun Dec 10 06:54:28 2023.
