 Gaussian 16, Revision A.03,
 Gaussian 16:  ES64L-G16RevA.03 25-Dec-2016

 ------------------
 #p CCSD(T)/CEP-31G
 ------------------

 ------------
 H2O_H2O_2897
 ------------
 Symbolic Z-matrix:
 Charge =  0 Multiplicity = 1

                         Standard orientation:
 ---------------------------------------------------------------------
 Center     Atomic      Atomic             Coordinates (Angstroms)
 Number     Number       Type             X           Y           Z
 ---------------------------------------------------------------------
      1          8           0       -0.019871    2.252291    0.000000
      2          1           0       -0.017011    1.269693    0.000000
      3          1           0        0.908690    2.573661    0.000000
      4          8           0       -0.019871   -2.085192    0.000000
      5          1           0       -0.993690   -2.216281    0.000000
      6          1           0        0.419951   -2.963862    0.000000
 ---------------------------------------------------------------------

 SCF Done:  E(RHF) =  -33.6556299692     A.U. after   11 cycles
 E2 =    -0.2283183068D+00 EUMP2 =    -0.33883948275975D+02
 CCSD(T)
 CCSD(T)= -0.33900853727D+02

 The electronic state is 1-A'.
 Alpha  occ. eigenvalues --   -1.36749  -1.34118  -0.72401  -0.69761  -0.56706
 Alpha  occ. eigenvalues --   -0.53966  -0.51374  -0.48751
 Alpha virt. eigenvalues --    0.18560   0.22375   0.29437   0.32406   0.79186
 Alpha virt. eigenvalues --    0.81738   0.82671   0.84426   0.85760   0.87817
 Alpha virt. eigenvalues --    1.16255   1.19312   1.20697   1.26689   2.55978

 Mulliken charges:
               1
     1  O   -0.756459
     2  H    0.387214
     3  H    0.368365
     4  O   -0.754108
     5  H    0.377247
     6  H    0.377740
 Sum of Mulliken charges =  -0.00000

 Dipole moment (field-independent basis, Debye):
    X=              0.9034    Y=             -3.9959    Z=              0.0000  Tot=              4.0967
 Quadrupole moment (field-independent basis, Debye-Ang):
   XX=             -9.6721   YY=             -7.3054   ZZ=            -14.9960
   XY=              7.6338   XZ=              0.0000   YZ=              0.0000

 32\MP4DQ=-33.8952082\MP4SDQ=-33.8972476\CCSD=-33.8982853\CCSD(T)=-33.9
 Normal termination of Gaussian 16 at Sun Dec 10 06:25:08 2023.
