 Gaussian 16, Revision A.03,
 Gaussian 16:  ES64L-G16RevA.03 25-Dec-2016

 ------------------
 #p CCSD(T)/CEP-31G
 ------------------

 ------------
 H2O_H2O_4092
 ------------
 Symbolic Z-matrix:
 Charge =  0 Multiplicity = 1

                         Standard orientation:
 ---------------------------------------------------------------------
 Center     Atomic      Atomic             Coordinates (Angstroms)
 Number     Number       Type             X           Y           Z
 ---------------------------------------------------------------------
      1          8           0        0.037419    2.737395    0.000000
      2          1           0        0.035639    1.754795    0.000000
      3          1           0       -0.891496    3.057744    0.000000
      4          8           0        0.037419   -2.558408   -0.000000
      5          1           0        0.917899   -2.994596   -0.000000
      6          1           0       -0.660742   -3.249840   -0.000000
 ---------------------------------------------------------------------

 SCF Done:  E(RHF) =  -33.6537620196     A.U. after   11 cycles
 E2 =    -0.2282854859D+00 EUMP2 =    -0.33882047505491D+02
 CCSD(T)
 CCSD(T)= -0.33898992074D+02

 The electronic state is 1-A'.
 Alpha  occ. eigenvalues --   -1.36339  -1.34532  -0.71979  -0.70163  -0.56188
 Alpha  occ. eigenvalues --   -0.54330  -0.50940  -0.49135
 Alpha virt. eigenvalues --    0.19493   0.21424   0.29787   0.31698   0.79615
 Alpha virt. eigenvalues --    0.81373   0.82401   0.84369   0.85639   0.87478
 Alpha virt. eigenvalues --    1.16647   1.18472   1.21082   1.23051   2.56601

 Mulliken charges:
               1
     1  O   -0.748815
     2  H    0.380562
     3  H    0.368203
     4  O   -0.748029
     5  H    0.374886
     6  H    0.373192
 Sum of Mulliken charges =   0.00000

 Dipole moment (field-independent basis, Debye):
    X=             -1.7156    Y=             -4.2097    Z=             -0.0000  Tot=              4.5458
 Quadrupole moment (field-independent basis, Debye-Ang):
   XX=             -9.4153   YY=             -5.5850   ZZ=            -14.9926
   XY=             -7.7193   XZ=             -0.0000   YZ=              0.0000

 118\MP4DQ=-33.893361\MP4SDQ=-33.8953846\CCSD=-33.8964351\CCSD(T)=-33.8
 Normal termination of Gaussian 16 at Sun Dec 10 06:46:39 2023.
