 Gaussian 16, Revision A.03,
 Gaussian 16:  ES64L-G16RevA.03 25-Dec-2016

 ------------------
 #p CCSD(T)/CEP-31G
 ------------------

 ------------
 H2O_H2O_4416
 ------------
 Symbolic Z-matrix:
 Charge =  0 Multiplicity = 1

                         Standard orientation:
 ---------------------------------------------------------------------
 Center     Atomic      Atomic             Coordinates (Angstroms)
 Number     Number       Type             X           Y           Z
 ---------------------------------------------------------------------
      1          8           0        0.041108    2.867555   -0.000000
      2          1           0        0.039524    1.884955   -0.000000
      3          1           0       -0.887871    3.187719   -0.000000
      4          8           0        0.041108   -2.687601    0.000000
      5          1           0        0.891273   -3.180272    0.000000
      6          1           0       -0.700652   -3.332037    0.000000
 ---------------------------------------------------------------------

 SCF Done:  E(RHF) =  -33.6534417801     A.U. after   11 cycles
 E2 =    -0.2282947646D+00 EUMP2 =    -0.33881736544644D+02
 CCSD(T)
 CCSD(T)= -0.33898690104D+02

 The electronic state is 1-A'.
 Alpha  occ. eigenvalues --   -1.36270  -1.34632  -0.71909  -0.70263  -0.56100
 Alpha  occ. eigenvalues --   -0.54420  -0.50866  -0.49230
 Alpha virt. eigenvalues --    0.19575   0.21284   0.29841   0.31565   0.79687
 Alpha virt. eigenvalues --    0.81285   0.82522   0.84276   0.85726   0.87387
 Alpha virt. eigenvalues --    1.16703   1.18345   1.21145   1.22861   2.56667

 Mulliken charges:
               1
     1  O   -0.747568
     2  H    0.379205
     3  H    0.368346
     4  O   -0.746951
     5  H    0.374404
     6  H    0.372563
 Sum of Mulliken charges =   0.00000

 Dipole moment (field-independent basis, Debye):
    X=             -1.8872    Y=             -4.2225    Z=              0.0000  Tot=              4.6251
 Quadrupole moment (field-independent basis, Debye-Ang):
   XX=             -9.4131   YY=             -5.2197   ZZ=            -14.9920
   XY=             -7.7259   XZ=              0.0000   YZ=             -0.0000

 097\MP4DQ=-33.8930576\MP4SDQ=-33.8950812\CCSD=-33.8961331\CCSD(T)=-33.
 Normal termination of Gaussian 16 at Sun Dec 10 06:52:29 2023.
