 Gaussian 16, Revision A.03,
 Gaussian 16:  ES64L-G16RevA.03 25-Dec-2016

 ------------------
 #p CCSD(T)/CEP-31G
 ------------------

 ------------
 H2O_H2O_1854
 ------------
 Symbolic Z-matrix:
 Charge =  0 Multiplicity = 1

                         Standard orientation:
 ---------------------------------------------------------------------
 Center     Atomic      Atomic             Coordinates (Angstroms)
 Number     Number       Type             X           Y           Z
 ---------------------------------------------------------------------
      1          8           0        0.082812   -1.836589    0.000000
      2          1           0        0.082323   -0.853988    0.000000
      3          1           0       -0.846522   -2.155718    0.000000
      4          8           0        0.082812    1.682090    0.000000
      5          1           0        0.336657    2.631336    0.000000
      6          1           0       -0.897452    1.614364    0.000000
 ---------------------------------------------------------------------

 SCF Done:  E(RHF) =  -33.6553548334     A.U. after   11 cycles
 E2 =    -0.2287797671D+00 EUMP2 =    -0.33884134600485D+02
 CCSD(T)
 CCSD(T)= -0.33901127818D+02

 The electronic state is 1-A'.
 Alpha  occ. eigenvalues --   -1.37611  -1.33763  -0.73365  -0.69329  -0.57623
 Alpha  occ. eigenvalues --   -0.53492  -0.52209  -0.48350
 Alpha virt. eigenvalues --    0.17221   0.23891   0.28631   0.35119   0.77935
 Alpha virt. eigenvalues --    0.82245   0.82660   0.84993   0.88810   0.95798
 Alpha virt. eigenvalues --    1.15247   1.18808   1.20820   1.37173   2.52380

 Mulliken charges:
               1
     1  O   -0.758048
     2  H    0.398862
     3  H    0.356594
     4  O   -0.758486
     5  H    0.391220
     6  H    0.369858
 Sum of Mulliken charges =  -0.00000

 Dipole moment (field-independent basis, Debye):
    X=             -3.7406    Y=              3.8407    Z=              0.0000  Tot=              5.3612
 Quadrupole moment (field-independent basis, Debye-Ang):
   XX=            -10.6654   YY=             -8.5594   ZZ=            -14.9939
   XY=              3.1749   XZ=              0.0000   YZ=              0.0000

 6294\MP4DQ=-33.8953596\MP4SDQ=-33.8974674\CCSD=-33.8984903\CCSD(T)=-33
 Normal termination of Gaussian 16 at Sun Dec 10 06:53:53 2023.
