 Gaussian 16, Revision A.03,
 Gaussian 16:  ES64L-G16RevA.03 25-Dec-2016

 ------------------
 #p CCSD(T)/CEP-31G
 ------------------

 ------------
 H2O_H2O_1400
 ------------
 Symbolic Z-matrix:
 Charge =  0 Multiplicity = 1

                         Standard orientation:
 ---------------------------------------------------------------------
 Center     Atomic      Atomic             Coordinates (Angstroms)
 Number     Number       Type             X           Y           Z
 ---------------------------------------------------------------------
      1          8           0        0.092949   -1.645300    0.000000
      2          1           0        0.092949   -0.662698    0.000000
      3          1           0       -0.836544   -1.963966    0.000000
      4          8           0        0.092949    1.512513    0.000000
      5          1           0        0.092950    2.495115    0.000000
      6          1           0       -0.836544    1.193846    0.000000
 ---------------------------------------------------------------------

 SCF Done:  E(RHF) =  -33.6523729166     A.U. after   11 cycles
 E2 =    -0.2292215782D+00 EUMP2 =    -0.33881594494834D+02
 CCSD(T)
 CCSD(T)= -0.33898671226D+02

 The electronic state is 1-A'.
 Alpha  occ. eigenvalues --   -1.38337  -1.34055  -0.74465  -0.69424  -0.58200
 Alpha  occ. eigenvalues --   -0.53667  -0.52853  -0.48575
 Alpha virt. eigenvalues --    0.16524   0.24503   0.28083   0.38082   0.76534
 Alpha virt. eigenvalues --    0.81134   0.83458   0.84558   0.88996   1.07982
 Alpha virt. eigenvalues --    1.15939   1.17109   1.22184   1.39971   2.51056

 Mulliken charges:
               1
     1  O   -0.748057
     2  H    0.388540
     3  H    0.352587
     4  O   -0.755970
     5  H    0.400425
     6  H    0.362475
 Sum of Mulliken charges =  -0.00000

 Dipole moment (field-independent basis, Debye):
    X=             -4.1692    Y=              3.4088    Z=              0.0000  Tot=              5.3853
 Quadrupole moment (field-independent basis, Debye-Ang):
   XX=            -11.3406   YY=             -9.5792   ZZ=            -14.9869
   XY=              2.2554   XZ=              0.0000   YZ=              0.0000

 0814\MP4DQ=-33.8927771\MP4SDQ=-33.8949606\CCSD=-33.8959559\CCSD(T)=-33
 Normal termination of Gaussian 16 at Sun Dec 10 06:45:05 2023.
