 Gaussian 16, Revision A.03,
 Gaussian 16:  ES64L-G16RevA.03 25-Dec-2016

 ------------------
 #p CCSD(T)/CEP-31G
 ------------------

 ------------
 H2O_H2O_2391
 ------------
 Symbolic Z-matrix:
 Charge =  0 Multiplicity = 1

                         Standard orientation:
 ---------------------------------------------------------------------
 Center     Atomic      Atomic             Coordinates (Angstroms)
 Number     Number       Type             X           Y           Z
 ---------------------------------------------------------------------
      1          8           0        0.041167    2.059803    0.000000
      2          1           0        0.038935    1.077204    0.000000
      3          1           0       -0.887599    2.380580   -0.000000
      4          8           0        0.041167   -1.879902    0.000000
      5          1           0        0.891007   -2.373136    0.000000
      6          1           0       -0.701019   -2.523850   -0.000000
 ---------------------------------------------------------------------

 SCF Done:  E(RHF) =  -33.6571434060     A.U. after   11 cycles
 E2 =    -0.2284403387D+00 EUMP2 =    -0.33885583744711D+02
 CCSD(T)
 CCSD(T)= -0.33902467551D+02

 The electronic state is 1-A'.
 Alpha  occ. eigenvalues --   -1.37065  -1.33500  -0.72713  -0.69130  -0.57146
 Alpha  occ. eigenvalues --   -0.53351  -0.51711  -0.48145
 Alpha virt. eigenvalues --    0.18385   0.23226   0.29246   0.33617   0.78792
 Alpha virt. eigenvalues --    0.82388   0.83856   0.85492   0.85893   0.88484
 Alpha virt. eigenvalues --    1.16028   1.19958   1.20482   1.29851   2.53819

 Mulliken charges:
               1
     1  O   -0.763188
     2  H    0.397617
     3  H    0.363630
     4  O   -0.757906
     5  H    0.381816
     6  H    0.378031
 Sum of Mulliken charges =  -0.00000

 Dipole moment (field-independent basis, Debye):
    X=             -1.8642    Y=             -4.3685    Z=             -0.0000  Tot=              4.7497
 Quadrupole moment (field-independent basis, Debye-Ang):
   XX=             -9.4037   YY=             -7.0649   ZZ=            -14.9992
   XY=             -5.7758   XZ=              0.0000   YZ=             -0.0000

 397\MP4DQ=-33.8967933\MP4SDQ=-33.8988519\CCSD=-33.8998808\CCSD(T)=-33.
 Normal termination of Gaussian 16 at Sun Dec 10 07:05:27 2023.
