 Gaussian 16, Revision A.03,
 Gaussian 16:  ES64L-G16RevA.03 25-Dec-2016

 ------------------
 #p CCSD(T)/CEP-31G
 ------------------

 ------------
 H2O_H2O_4097
 ------------
 Symbolic Z-matrix:
 Charge =  0 Multiplicity = 1

                         Standard orientation:
 ---------------------------------------------------------------------
 Center     Atomic      Atomic             Coordinates (Angstroms)
 Number     Number       Type             X           Y           Z
 ---------------------------------------------------------------------
      1          8           0       -0.019827    2.730952    0.000000
      2          1           0       -0.017484    1.748353    0.000000
      3          1           0        0.908903    3.051834    0.000000
      4          8           0       -0.019827   -2.563832    0.000000
      5          1           0       -0.993714   -2.694410    0.000000
      6          1           0        0.419533   -3.442734    0.000000
 ---------------------------------------------------------------------

 SCF Done:  E(RHF) =  -33.6537600590     A.U. after   11 cycles
 E2 =    -0.2282787988D+00 EUMP2 =    -0.33882038857800D+02
 CCSD(T)
 CCSD(T)= -0.33898984855D+02

 The electronic state is 1-A'.
 Alpha  occ. eigenvalues --   -1.36333  -1.34657  -0.71975  -0.70296  -0.56179
 Alpha  occ. eigenvalues --   -0.54460  -0.50933  -0.49262
 Alpha virt. eigenvalues --    0.19478   0.21304   0.29787   0.31568   0.79620
 Alpha virt. eigenvalues --    0.81248   0.82415   0.84229   0.85623   0.87342
 Alpha virt. eigenvalues --    1.16651   1.18354   1.21072   1.22953   2.56589

 Mulliken charges:
               1
     1  O   -0.748808
     2  H    0.379219
     3  H    0.369547
     4  O   -0.748231
     5  H    0.374062
     6  H    0.374210
 Sum of Mulliken charges =  -0.00000

 Dipole moment (field-independent basis, Debye):
    X=              0.9090    Y=             -3.9279    Z=              0.0000  Tot=              4.0317
 Quadrupole moment (field-independent basis, Debye-Ang):
   XX=             -9.6791   YY=             -6.5329   ZZ=            -14.9925
   XY=              9.2567   XZ=              0.0000   YZ=              0.0000

 6041\MP4DQ=-33.8933533\MP4SDQ=-33.8953768\CCSD=-33.8964277\CCSD(T)=-33
 Normal termination of Gaussian 16 at Sun Dec 10 06:46:44 2023.
