 Gaussian 16, Revision A.03,
 Gaussian 16:  ES64L-G16RevA.03 25-Dec-2016

 ------------------
 #p CCSD(T)/CEP-31G
 ------------------

 ------------
 H2O_H2O_1810
 ------------
 Symbolic Z-matrix:
 Charge =  0 Multiplicity = 1

                         Standard orientation:
 ---------------------------------------------------------------------
 Center     Atomic      Atomic             Coordinates (Angstroms)
 Number     Number       Type             X           Y           Z
 ---------------------------------------------------------------------
      1          8           0        0.063266    1.828036   -0.000000
      2          1           0        0.061817    0.845436   -0.000000
      3          1           0       -0.865756    2.148073   -0.000000
      4          8           0        0.063266   -1.652572    0.000000
      5          1           0        0.660286   -2.433003    0.000000
      6          1           0       -0.868604   -1.964222    0.000000
 ---------------------------------------------------------------------

 SCF Done:  E(RHF) =  -33.6583388564     A.U. after   11 cycles
 E2 =    -0.2287185366D+00 EUMP2 =    -0.33887057392992D+02
 CCSD(T)
 CCSD(T)= -0.33903941780D+02

 The electronic state is 1-A'.
 Alpha  occ. eigenvalues --   -1.37599  -1.33017  -0.73271  -0.68674  -0.57837
 Alpha  occ. eigenvalues --   -0.52808  -0.52253  -0.47651
 Alpha virt. eigenvalues --    0.17884   0.24272   0.28775   0.36217   0.77899
 Alpha virt. eigenvalues --    0.82180   0.83276   0.85606   0.89792   0.93628
 Alpha virt. eigenvalues --    1.15415   1.19852   1.20552   1.34338   2.50934

 Mulliken charges:
               1
     1  O   -0.769209
     2  H    0.410306
     3  H    0.356744
     4  O   -0.766759
     5  H    0.391587
     6  H    0.377331
 Sum of Mulliken charges =   0.00000

 Dipole moment (field-independent basis, Debye):
    X=             -2.8431    Y=             -4.3633    Z=              0.0000  Tot=              5.2079
 Quadrupole moment (field-independent basis, Debye-Ang):
   XX=             -9.7760   YY=             -7.8201   ZZ=            -15.0015
   XY=             -4.2985   XZ=              0.0000   YZ=             -0.0000

 26\MP4DQ=-33.898197\MP4SDQ=-33.9002854\CCSD=-33.901305\CCSD(T)=-33.903
 Normal termination of Gaussian 16 at Sun Dec 10 06:53:03 2023.
