 Gaussian 16, Revision A.03,
 Gaussian 16:  ES64L-G16RevA.03 25-Dec-2016

 ------------------
 #p CCSD(T)/CEP-31G
 ------------------

 -----------
 H2O_H2O_603
 -----------
 Symbolic Z-matrix:
 Charge =  0 Multiplicity = 1

                         Standard orientation:
 ---------------------------------------------------------------------
 Center     Atomic      Atomic             Coordinates (Angstroms)
 Number     Number       Type             X           Y           Z
 ---------------------------------------------------------------------
      1          8           0        0.085618   -1.335309    0.000000
      2          1           0        0.085123   -0.352708    0.000000
      3          1           0       -0.843715   -1.654444    0.000000
      4          8           0        0.085618    1.185751    0.000000
      5          1           0        0.276828    2.149569    0.000000
      6          1           0       -0.888119    1.054052    0.000000
 ---------------------------------------------------------------------

 SCF Done:  E(RHF) =  -33.6441836299     A.U. after   11 cycles
 E2 =    -0.2289007249D+00 EUMP2 =    -0.33873084354839D+02
 CCSD(T)
 CCSD(T)= -0.33889521634D+02

 The electronic state is 1-A'.
 Alpha  occ. eigenvalues --   -1.40992  -1.31486  -0.77922  -0.68914  -0.59122
 Alpha  occ. eigenvalues --   -0.55180  -0.50574  -0.45869
 Alpha virt. eigenvalues --    0.16535   0.25282   0.27920   0.50558   0.73900
 Alpha virt. eigenvalues --    0.77246   0.85515   0.87720   0.94712   1.10342
 Alpha virt. eigenvalues --    1.14459   1.23474   1.31054   1.38377   2.63987

 Mulliken charges:
               1
     1  O   -0.726140
     2  H    0.362439
     3  H    0.331320
     4  O   -0.801093
     5  H    0.455240
     6  H    0.378234
 Sum of Mulliken charges =  -0.00000

 Dipole moment (field-independent basis, Debye):
    X=             -3.6883    Y=              4.2934    Z=              0.0000  Tot=              5.6601
 Quadrupole moment (field-independent basis, Debye-Ang):
   XX=            -10.8716   YY=             -9.5643   ZZ=            -14.9853
   XY=              2.7362   XZ=              0.0000   YZ=              0.0000

 5\MP4DQ=-33.8834098\MP4SDQ=-33.8857259\CCSD=-33.8865983\CCSD(T)=-33.88
 Normal termination of Gaussian 16 at Sun Dec 10 06:29:52 2023.
