 Gaussian 16, Revision A.03,
 Gaussian 16:  ES64L-G16RevA.03 25-Dec-2016

 ------------------
 #p CCSD(T)/CEP-31G
 ------------------

 ------------
 H2O_H2O_4278
 ------------
 Symbolic Z-matrix:
 Charge =  0 Multiplicity = 1

                         Standard orientation:
 ---------------------------------------------------------------------
 Center     Atomic      Atomic             Coordinates (Angstroms)
 Number     Number       Type             X           Y           Z
 ---------------------------------------------------------------------
      1          8           0        0.085597   -2.801207    0.000000
      2          1           0        0.085368   -1.818605    0.000000
      3          1           0       -0.843821   -3.120090    0.000000
      4          8           0        0.085597    2.651602    0.000000
      5          1           0        0.277069    3.615367    0.000000
      6          1           0       -0.888174    2.520167    0.000000
 ---------------------------------------------------------------------

 SCF Done:  E(RHF) =  -33.6523961335     A.U. after   11 cycles
 E2 =    -0.2283440668D+00 EUMP2 =    -0.33880740200309D+02
 CCSD(T)
 CCSD(T)= -0.33897724516D+02

 The electronic state is 1-A'.
 Alpha  occ. eigenvalues --   -1.36341  -1.34971  -0.71989  -0.70588  -0.56115
 Alpha  occ. eigenvalues --   -0.54717  -0.50920  -0.49548
 Alpha virt. eigenvalues --    0.19371   0.20938   0.29709   0.31145   0.79643
 Alpha virt. eigenvalues --    0.80986   0.82564   0.84000   0.85649   0.87193
 Alpha virt. eigenvalues --    1.16576   1.17973   1.21036   1.22518   2.56486

 Mulliken charges:
               1
     1  O   -0.743564
     2  H    0.376626
     3  H    0.366923
     4  O   -0.743804
     5  H    0.375042
     6  H    0.368777
 Sum of Mulliken charges =   0.00000

 Dipole moment (field-independent basis, Debye):
    X=             -3.9342    Y=              3.5170    Z=              0.0000  Tot=              5.2771
 Quadrupole moment (field-independent basis, Debye-Ang):
   XX=            -10.8026   YY=             -8.0220   ZZ=            -14.9894
   XY=              3.3105   XZ=              0.0000   YZ=              0.0000

 05\MP4DQ=-33.8920833\MP4SDQ=-33.8941099\CCSD=-33.8951636\CCSD(T)=-33.8
 Normal termination of Gaussian 16 at Sun Dec 10 06:50:00 2023.
