 Gaussian 16, Revision A.03,
 Gaussian 16:  ES64L-G16RevA.03 25-Dec-2016

 ------------------
 #p CCSD(T)/CEP-31G
 ------------------

 ------------
 H2O_H2O_2754
 ------------
 Symbolic Z-matrix:
 Charge =  0 Multiplicity = 1

                         Standard orientation:
 ---------------------------------------------------------------------
 Center     Atomic      Atomic             Coordinates (Angstroms)
 Number     Number       Type             X           Y           Z
 ---------------------------------------------------------------------
      1          8           0        0.082806   -2.195586    0.000000
      2          1           0        0.082399   -1.212984    0.000000
      3          1           0       -0.846555   -2.514637    0.000000
      4          8           0        0.082806    2.041072    0.000000
      5          1           0        0.336729    2.990298    0.000000
      6          1           0       -0.897465    1.973429    0.000000
 ---------------------------------------------------------------------

 SCF Done:  E(RHF) =  -33.6537126826     A.U. after   11 cycles
 E2 =    -0.2284432384D+00 EUMP2 =    -0.33882155921014D+02
 CCSD(T)
 CCSD(T)= -0.33899119808D+02

 The electronic state is 1-A'.
 Alpha  occ. eigenvalues --   -1.36897  -1.34404  -0.72572  -0.69993  -0.56753
 Alpha  occ. eigenvalues --   -0.54162  -0.51489  -0.48990
 Alpha virt. eigenvalues --    0.17909   0.22335   0.29202   0.32133   0.79076
 Alpha virt. eigenvalues --    0.81547   0.82812   0.84565   0.85732   0.87984
 Alpha virt. eigenvalues --    1.15891   1.19051   1.20526   1.27809   2.55930

 Mulliken charges:
               1
     1  O   -0.749217
     2  H    0.385602
     3  H    0.362719
     4  O   -0.748619
     5  H    0.380526
     6  H    0.368989
 Sum of Mulliken charges =  -0.00000

 Dipole moment (field-independent basis, Debye):
    X=             -3.7784    Y=              3.7149    Z=              0.0000  Tot=              5.2987
 Quadrupole moment (field-independent basis, Debye-Ang):
   XX=            -10.6503   YY=             -8.1687   ZZ=            -14.9914
   XY=              3.3535   XZ=              0.0000   YZ=              0.0000

 708\MP4DQ=-33.8934528\MP4SDQ=-33.8955017\CCSD=-33.8965409\CCSD(T)=-33.
 Normal termination of Gaussian 16 at Sun Dec 10 06:22:34 2023.
