 Gaussian 16, Revision A.03,
 Gaussian 16:  ES64L-G16RevA.03 25-Dec-2016

 ------------------
 #p CCSD(T)/CEP-31G
 ------------------

 ------------
 H2O_H2O_2492
 ------------
 Symbolic Z-matrix:
 Charge =  0 Multiplicity = 1

                         Standard orientation:
 ---------------------------------------------------------------------
 Center     Atomic      Atomic             Coordinates (Angstroms)
 Number     Number       Type             X           Y           Z
 ---------------------------------------------------------------------
      1          8           0        0.037470    2.099172    0.000000
      2          1           0        0.035126    1.116573    0.000000
      3          1           0       -0.891260    2.420055    0.000000
      4          8           0        0.037470   -1.920228   -0.000000
      5          1           0        0.917699   -2.356922   -0.000000
      6          1           0       -0.661088   -2.611257   -0.000000
 ---------------------------------------------------------------------

 SCF Done:  E(RHF) =  -33.6568582153     A.U. after   11 cycles
 E2 =    -0.2284087739D+00 EUMP2 =    -0.33885266989136D+02
 CCSD(T)
 CCSD(T)= -0.33902153320D+02

 The electronic state is 1-A'.
 Alpha  occ. eigenvalues --   -1.36994  -1.33607  -0.72642  -0.69239  -0.57048
 Alpha  occ. eigenvalues --   -0.53460  -0.51637  -0.48250
 Alpha virt. eigenvalues --    0.18441   0.23049   0.29300   0.33321   0.78889
 Alpha virt. eigenvalues --    0.82261   0.83835   0.84926   0.85889   0.88313
 Alpha virt. eigenvalues --    1.16091   1.19860   1.20534   1.29157   2.54333

 Mulliken charges:
               1
     1  O   -0.761855
     2  H    0.395505
     3  H    0.364593
     4  O   -0.757018
     5  H    0.380834
     6  H    0.377942
 Sum of Mulliken charges =   0.00000

 Dipole moment (field-independent basis, Debye):
    X=             -1.6983    Y=             -4.3311    Z=             -0.0000  Tot=              4.6521
 Quadrupole moment (field-independent basis, Debye-Ang):
   XX=             -9.4066   YY=             -7.0090   ZZ=            -14.9986
   XY=             -6.0692   XZ=             -0.0000   YZ=              0.0000

 19\MP4DQ=-33.8964868\MP4SDQ=-33.8985413\CCSD=-33.8995717\CCSD(T)=-33.9
 Normal termination of Gaussian 16 at Sun Dec 10 07:07:20 2023.
