 Gaussian 16, Revision A.03,
 Gaussian 16:  ES64L-G16RevA.03 25-Dec-2016

 ------------------
 #p CCSD(T)/CEP-31G
 ------------------

 -----------
 H2O_H2O_632
 -----------
 Symbolic Z-matrix:
 Charge =  0 Multiplicity = 1

                         Standard orientation:
 ---------------------------------------------------------------------
 Center     Atomic      Atomic             Coordinates (Angstroms)
 Number     Number       Type             X           Y           Z
 ---------------------------------------------------------------------
      1          8           0        0.073584    1.354681   -0.000000
      2          1           0        0.072288    0.372080   -0.000000
      3          1           0       -0.855488    1.674572    0.000000
      4          8           0        0.073584   -1.187824   -0.000000
      5          1           0        0.507016   -2.069665   -0.000000
      6          1           0       -0.901160   -1.311840    0.000000
 ---------------------------------------------------------------------

 SCF Done:  E(RHF) =  -33.6524788760     A.U. after   11 cycles
 E2 =    -0.2289184921D+00 EUMP2 =    -0.33881397368082D+02
 CCSD(T)
 CCSD(T)= -0.33897567115D+02

 The electronic state is 1-A'.
 Alpha  occ. eigenvalues --   -1.40597  -1.30627  -0.76695  -0.69567  -0.58894
 Alpha  occ. eigenvalues --   -0.55058  -0.49693  -0.45075
 Alpha virt. eigenvalues --    0.16842   0.26161   0.27801   0.51102   0.74162
 Alpha virt. eigenvalues --    0.76189   0.85423   0.88112   0.96010   1.07753
 Alpha virt. eigenvalues --    1.15899   1.21968   1.23544   1.36222   2.64964

 Mulliken charges:
               1
     1  O   -0.753969
     2  H    0.406551
     3  H    0.331141
     4  O   -0.826639
     5  H    0.452261
     6  H    0.390654
 Sum of Mulliken charges =  -0.00000

 Dipole moment (field-independent basis, Debye):
    X=             -3.1354    Y=             -4.6872    Z=              0.0000  Tot=              5.6392
 Quadrupole moment (field-independent basis, Debye-Ang):
   XX=            -10.1776   YY=             -9.4034   ZZ=            -15.0013
   XY=             -3.3422   XZ=             -0.0000   YZ=              0.0000

 02\MP4DQ=-33.8915464\MP4SDQ=-33.8937832\CCSD=-33.8946491\CCSD(T)=-33.8
 Normal termination of Gaussian 16 at Sun Dec 10 06:30:25 2023.
