 Gaussian 16, Revision A.03,
 Gaussian 16:  ES64L-G16RevA.03 25-Dec-2016

 ------------------
 #p CCSD(T)/CEP-31G
 ------------------

 ------------
 H2O_H2O_3744
 ------------
 Symbolic Z-matrix:
 Charge =  0 Multiplicity = 1

                         Standard orientation:
 ---------------------------------------------------------------------
 Center     Atomic      Atomic             Coordinates (Angstroms)
 Number     Number       Type             X           Y           Z
 ---------------------------------------------------------------------
      1          8           0        0.030168    2.595962    0.000000
      2          1           0        0.028044    1.613363    0.000000
      3          1           0       -0.898634    2.916637   -0.000000
      4          8           0        0.030168   -2.420340    0.000000
      5          1           0        0.959939   -2.738198    0.000000
      6          1           0       -0.572043   -3.196774   -0.000000
 ---------------------------------------------------------------------

 SCF Done:  E(RHF) =  -33.6541979192     A.U. after   11 cycles
 E2 =    -0.2282775842D+00 EUMP2 =    -0.33882475503392D+02
 CCSD(T)
 CCSD(T)= -0.33899408332D+02

 The electronic state is 1-A'.
 Alpha  occ. eigenvalues --   -1.36428  -1.34432  -0.72070  -0.70066  -0.56301
 Alpha  occ. eigenvalues --   -0.54244  -0.51034  -0.49043
 Alpha virt. eigenvalues --    0.19349   0.21598   0.29710   0.31845   0.79524
 Alpha virt. eigenvalues --    0.81456   0.82271   0.84445   0.85539   0.87574
 Alpha virt. eigenvalues --    1.16575   1.18630   1.20986   1.23422   2.56531

 Mulliken charges:
               1
     1  O   -0.750507
     2  H    0.382040
     3  H    0.368329
     4  O   -0.749503
     5  H    0.375350
     6  H    0.374290
 Sum of Mulliken charges =  -0.00000

 Dipole moment (field-independent basis, Debye):
    X=             -1.3808    Y=             -4.1437    Z=             -0.0000  Tot=              4.3677
 Quadrupole moment (field-independent basis, Debye-Ang):
   XX=             -9.4727   YY=             -6.1314   ZZ=            -14.9934
   XY=             -7.9245   XZ=              0.0000   YZ=             -0.0000

 269\MP4DQ=-33.8937779\MP4SDQ=-33.8958024\CCSD=-33.8968508\CCSD(T)=-33.
 Normal termination of Gaussian 16 at Sun Dec 10 06:40:22 2023.
