 Gaussian 16, Revision A.03,
 Gaussian 16:  ES64L-G16RevA.03 25-Dec-2016

 ------------------
 #p CCSD(T)/CEP-31G
 ------------------

 ------------
 H2O_H2O_3463
 ------------
 Symbolic Z-matrix:
 Charge =  0 Multiplicity = 1

                         Standard orientation:
 ---------------------------------------------------------------------
 Center     Atomic      Atomic             Coordinates (Angstroms)
 Number     Number       Type             X           Y           Z
 ---------------------------------------------------------------------
      1          8           0        0.052291    2.488592    0.000000
      2          1           0        0.050852    1.505991    0.000000
      3          1           0       -0.876735    2.808619    0.000000
      4          8           0        0.052291   -2.308692   -0.000000
      5          1           0        0.790101   -2.957647   -0.000000
      6          1           0       -0.800868   -2.796162   -0.000000
 ---------------------------------------------------------------------

 SCF Done:  E(RHF) =  -33.6543195925     A.U. after   11 cycles
 E2 =    -0.2283003007D+00 EUMP2 =    -0.33882619893160D+02
 CCSD(T)
 CCSD(T)= -0.33899548630D+02

 The electronic state is 1-A'.
 Alpha  occ. eigenvalues --   -1.36533  -1.34274  -0.72177  -0.69895  -0.56416
 Alpha  occ. eigenvalues --   -0.54078  -0.51141  -0.48882
 Alpha virt. eigenvalues --    0.19178   0.21823   0.29621   0.32020   0.79425
 Alpha virt. eigenvalues --    0.81612   0.82234   0.84653   0.85405   0.87792
 Alpha virt. eigenvalues --    1.16476   1.18843   1.20903   1.23923   2.56432

 Mulliken charges:
               1
     1  O   -0.750984
     2  H    0.384498
     3  H    0.366182
     4  O   -0.749759
     5  H    0.377019
     6  H    0.373044
 Sum of Mulliken charges =   0.00000

 Dipole moment (field-independent basis, Debye):
    X=             -2.3913    Y=             -4.2636    Z=             -0.0000  Tot=              4.8884
 Quadrupole moment (field-independent basis, Debye-Ang):
   XX=             -9.5135   YY=             -6.0813   ZZ=            -14.9937
   XY=             -6.0213   XZ=             -0.0000   YZ=              0.0000

 64\MP4DQ=-33.8939152\MP4SDQ=-33.895943\CCSD=-33.8969889\CCSD(T)=-33.89
 Normal termination of Gaussian 16 at Sun Dec 10 06:35:21 2023.
