 Gaussian 16, Revision A.03,
 Gaussian 16:  ES64L-G16RevA.03 25-Dec-2016

 ------------------
 #p CCSD(T)/CEP-31G
 ------------------

 -----------
 H2O_H2O_842
 -----------
 Symbolic Z-matrix:
 Charge =  0 Multiplicity = 1

                         Standard orientation:
 ---------------------------------------------------------------------
 Center     Atomic      Atomic             Coordinates (Angstroms)
 Number     Number       Type             X           Y           Z
 ---------------------------------------------------------------------
      1          8           0        0.037574    1.440983    0.000000
      2          1           0        0.034088    0.458388    0.000000
      3          1           0       -0.890783    1.762945    0.000000
      4          8           0        0.037574   -1.262127   -0.000000
      5          1           0        0.917296   -1.699843   -0.000000
      6          1           0       -0.661787   -1.952344   -0.000000
 ---------------------------------------------------------------------

 SCF Done:  E(RHF) =  -33.6624679443     A.U. after   11 cycles
 E2 =    -0.2290056010D+00 EUMP2 =    -0.33891473545222D+02
 CCSD(T)
 CCSD(T)= -0.33907686520D+02

 The electronic state is 1-A'.
 Alpha  occ. eigenvalues --   -1.39490  -1.30550  -0.75015  -0.68775  -0.59318
 Alpha  occ. eigenvalues --   -0.54222  -0.49921  -0.45168
 Alpha virt. eigenvalues --    0.17499   0.27160   0.27640   0.48365   0.74937
 Alpha virt. eigenvalues --    0.76117   0.85784   0.87422   0.95704   1.00255
 Alpha virt. eigenvalues --    1.15420   1.18434   1.23488   1.36694   2.56700

 Mulliken charges:
               1
     1  O   -0.785455
     2  H    0.433812
     3  H    0.345664
     4  O   -0.821532
     5  H    0.411560
     6  H    0.415950
 Sum of Mulliken charges =  -0.00000

 Dipole moment (field-independent basis, Debye):
    X=             -1.6455    Y=             -4.7997    Z=             -0.0000  Tot=              5.0739
 Quadrupole moment (field-independent basis, Debye-Ang):
   XX=             -9.3505   YY=             -9.0697   ZZ=            -15.0198
   XY=             -4.2727   XZ=             -0.0000   YZ=              0.0000

 25\MP4DQ=-33.9018071\MP4SDQ=-33.9039361\CCSD=-33.9048336\CCSD(T)=-33.9
 Normal termination of Gaussian 16 at Sun Dec 10 06:34:21 2023.
