 Gaussian 16, Revision A.03,
 Gaussian 16:  ES64L-G16RevA.03 25-Dec-2016

 ------------------
 #p CCSD(T)/CEP-31G
 ------------------

 -----------
 H2O_H2O_216
 -----------
 Symbolic Z-matrix:
 Charge =  0 Multiplicity = 1

                         Standard orientation:
 ---------------------------------------------------------------------
 Center     Atomic      Atomic             Coordinates (Angstroms)
 Number     Number       Type             X           Y           Z
 ---------------------------------------------------------------------
      1          8           0        0.041328    1.192175   -0.000000
      2          1           0        0.037339    0.209582   -0.000000
      3          1           0       -0.886864    1.514612   -0.000000
      4          8           0        0.041328   -1.012422    0.000000
      5          1           0        0.890285   -1.507173    0.000000
      6          1           0       -0.702007   -1.655041    0.000000
 ---------------------------------------------------------------------

 SCF Done:  E(RHF) =  -33.6265154647     A.U. after   11 cycles
 E2 =    -0.2280652438D+00 EUMP2 =    -0.33854580708490D+02
 CCSD(T)
 CCSD(T)= -0.33869382101D+02

 The electronic state is 1-A'.
 Alpha  occ. eigenvalues --   -1.43918  -1.27424  -0.78351  -0.76380  -0.57803
 Alpha  occ. eigenvalues --   -0.55881  -0.45060  -0.41575
 Alpha virt. eigenvalues --    0.16574   0.25675   0.29737   0.60758   0.73414
 Alpha virt. eigenvalues --    0.73419   0.86399   0.91215   0.92673   1.03640
 Alpha virt. eigenvalues --    1.14016   1.16861   1.27886   1.35461   2.86535

 Mulliken charges:
               1
     1  O   -0.759561
     2  H    0.359959
     3  H    0.315955
     4  O   -0.810758
     5  H    0.446828
     6  H    0.447577
 Sum of Mulliken charges =   0.00000

 Dipole moment (field-independent basis, Debye):
    X=             -1.7129    Y=             -5.5159    Z=              0.0000  Tot=              5.7758
 Quadrupole moment (field-independent basis, Debye-Ang):
   XX=             -9.2801   YY=            -10.4282   ZZ=            -14.9660
   XY=             -3.4863   XZ=              0.0000   YZ=             -0.0000

 82\MP4DQ=-33.8632794\MP4SDQ=-33.8655539\CCSD=-33.8662009\CCSD(T)=-33.8
 Normal termination of Gaussian 16 at Sun Dec 10 06:22:18 2023.
