 Gaussian 16, Revision A.03,
 Gaussian 16:  ES64L-G16RevA.03 25-Dec-2016

 ------------------
 #p CCSD(T)/CEP-31G
 ------------------

 ------------
 H2O_H2O_1714
 ------------
 Symbolic Z-matrix:
 Charge =  0 Multiplicity = 1

                         Standard orientation:
 ---------------------------------------------------------------------
 Center     Atomic      Atomic             Coordinates (Angstroms)
 Number     Number       Type             X           Y           Z
 ---------------------------------------------------------------------
      1          8           0        0.048633    1.790797    0.000000
      2          1           0        0.046419    0.808198    0.000000
      3          1           0       -0.880139    2.111557    0.000000
      4          8           0        0.048633   -1.610463   -0.000000
      5          1           0        0.826834   -2.210388   -0.000000
      6          1           0       -0.771245   -2.152041   -0.000000
 ---------------------------------------------------------------------

 SCF Done:  E(RHF) =  -33.6599633244     A.U. after   11 cycles
 E2 =    -0.2287397820D+00 EUMP2 =    -0.33888703106348D+02
 CCSD(T)
 CCSD(T)= -0.33905526325D+02

 The electronic state is 1-A'.
 Alpha  occ. eigenvalues --   -1.37679  -1.32670  -0.73323  -0.68402  -0.58055
 Alpha  occ. eigenvalues --   -0.52486  -0.52362  -0.47331
 Alpha virt. eigenvalues --    0.18024   0.24648   0.28782   0.37217   0.77697
 Alpha virt. eigenvalues --    0.81676   0.83674   0.86046   0.90169   0.93912
 Alpha virt. eigenvalues --    1.15425   1.19949   1.20769   1.33573   2.50216

 Mulliken charges:
               1
     1  O   -0.775495
     2  H    0.415892
     3  H    0.357639
     4  O   -0.772064
     5  H    0.390987
     6  H    0.383042
 Sum of Mulliken charges =   0.00000

 Dipole moment (field-independent basis, Debye):
    X=             -2.1785    Y=             -4.4986    Z=             -0.0000  Tot=              4.9984
 Quadrupole moment (field-independent basis, Debye-Ang):
   XX=             -9.4455   YY=             -7.7875   ZZ=            -15.0054
   XY=             -4.8340   XZ=             -0.0000   YZ=              0.0000

 0507\MP4DQ=-33.899783\MP4SDQ=-33.9018653\CCSD=-33.9028791\CCSD(T)=-33.
 Normal termination of Gaussian 16 at Sun Dec 10 06:51:15 2023.
