 Gaussian 16, Revision A.03,
 Gaussian 16:  ES64L-G16RevA.03 25-Dec-2016

 ------------------
 #p CCSD(T)/CEP-31G
 ------------------

 ------------
 H2O_H2O_1826
 ------------
 Symbolic Z-matrix:
 Charge =  0 Multiplicity = 1

                         Standard orientation:
 ---------------------------------------------------------------------
 Center     Atomic      Atomic             Coordinates (Angstroms)
 Number     Number       Type             X           Y           Z
 ---------------------------------------------------------------------
      1          8           0        0.090686   -1.818037    0.000000
      2          1           0        0.090576   -0.835435    0.000000
      3          1           0       -0.838771   -2.136807    0.000000
      4          8           0        0.090686    1.679333    0.000000
      5          1           0        0.154842    2.659838    0.000000
      6          1           0       -0.857630    1.422034    0.000000
 ---------------------------------------------------------------------

 SCF Done:  E(RHF) =  -33.6535523783     A.U. after   11 cycles
 E2 =    -0.2288930903D+00 EUMP2 =    -0.33882445468666D+02
 CCSD(T)
 CCSD(T)= -0.33899493371D+02

 The electronic state is 1-A'.
 Alpha  occ. eigenvalues --   -1.37683  -1.34241  -0.73512  -0.69743  -0.57579
 Alpha  occ. eigenvalues --   -0.53931  -0.52249  -0.48798
 Alpha virt. eigenvalues --    0.16701   0.23827   0.28525   0.34921   0.77814
 Alpha virt. eigenvalues --    0.82201   0.82356   0.84611   0.88262   0.97094
 Alpha virt. eigenvalues --    1.15320   1.18080   1.21068   1.38291   2.53205

 Mulliken charges:
               1
     1  O   -0.751506
     2  H    0.391553
     3  H    0.357070
     4  O   -0.752508
     5  H    0.390353
     6  H    0.365038
 Sum of Mulliken charges =   0.00000

 Dipole moment (field-independent basis, Debye):
    X=             -4.1006    Y=              3.4523    Z=              0.0000  Tot=              5.3603
 Quadrupole moment (field-independent basis, Debye-Ang):
   XX=            -11.1650   YY=             -9.2739   ZZ=            -14.9890
   XY=              2.5039   XZ=              0.0000   YZ=              0.0000

 9817\MP4DQ=-33.8937045\MP4SDQ=-33.8958255\CCSD=-33.8968456\CCSD(T)=-33
 Normal termination of Gaussian 16 at Sun Dec 10 06:53:21 2023.
