 Gaussian 16, Revision A.03,
 Gaussian 16:  ES64L-G16RevA.03 25-Dec-2016

 ------------------
 #p CCSD(T)/CEP-31G
 ------------------

 -----------
 H2O_H2O_139
 -----------
 Symbolic Z-matrix:
 Charge =  0 Multiplicity = 1

                         Standard orientation:
 ---------------------------------------------------------------------
 Center     Atomic      Atomic             Coordinates (Angstroms)
 Number     Number       Type             X           Y           Z
 ---------------------------------------------------------------------
      1          8           0        0.048752    1.162503    0.000000
      2          1           0        0.045240    0.179908    0.000000
      3          1           0       -0.879596    1.484490   -0.000000
      4          8           0        0.048752   -0.982298    0.000000
      5          1           0        0.826159   -1.583250    0.000000
      6          1           0       -0.771840   -1.522793   -0.000000
 ---------------------------------------------------------------------

 SCF Done:  E(RHF) =  -33.6129629475     A.U. after   11 cycles
 E2 =    -0.2278898581D+00 EUMP2 =    -0.33840852805649D+02
 CCSD(T)
 CCSD(T)= -0.33855474207D+02

 The electronic state is 1-A'.
 Alpha  occ. eigenvalues --   -1.44986  -1.26989  -0.78790  -0.78291  -0.58518
 Alpha  occ. eigenvalues --   -0.54993  -0.44214  -0.40999
 Alpha virt. eigenvalues --    0.16312   0.25274   0.30117   0.61680   0.73294
 Alpha virt. eigenvalues --    0.73388   0.86030   0.91668   0.92253   1.06477
 Alpha virt. eigenvalues --    1.12899   1.16097   1.28802   1.35081   2.92231

 Mulliken charges:
               1
     1  O   -0.751216
     2  H    0.334617
     3  H    0.307005
     4  O   -0.791464
     5  H    0.459280
     6  H    0.441778
 Sum of Mulliken charges =  -0.00000

 Dipole moment (field-independent basis, Debye):
    X=             -1.9786    Y=             -5.6604    Z=             -0.0000  Tot=              5.9962
 Quadrupole moment (field-independent basis, Debye-Ang):
   XX=             -9.3298   YY=            -10.6285   ZZ=            -14.9449
   XY=             -3.3583   XZ=              0.0000   YZ=             -0.0000

 062\MP4DQ=-33.8493058\MP4SDQ=-33.8516348\CCSD=-33.8522411\CCSD(T)=-33.
 Normal termination of Gaussian 16 at Sun Dec 10 06:20:46 2023.
