 Gaussian 16, Revision A.03,
 Gaussian 16:  ES64L-G16RevA.03 25-Dec-2016

 ------------------
 #p CCSD(T)/CEP-31G
 ------------------

 ------------
 H2O_H2O_2539
 ------------
 Symbolic Z-matrix:
 Charge =  0 Multiplicity = 1

                         Standard orientation:
 ---------------------------------------------------------------------
 Center     Atomic      Atomic             Coordinates (Angstroms)
 Number     Number       Type             X           Y           Z
 ---------------------------------------------------------------------
      1          8           0        0.048600    2.119888    0.000000
      2          1           0        0.046745    1.137288    0.000000
      3          1           0       -0.880289    2.440309    0.000000
      4          8           0        0.048600   -1.939518   -0.000000
      5          1           0        0.827020   -2.539159   -0.000000
      6          1           0       -0.771079   -2.481395   -0.000000
 ---------------------------------------------------------------------

 SCF Done:  E(RHF) =  -33.6564542774     A.U. after   11 cycles
 E2 =    -0.2284129455D+00 EUMP2 =    -0.33884867222914D+02
 CCSD(T)
 CCSD(T)= -0.33901760402D+02

 The electronic state is 1-A'.
 Alpha  occ. eigenvalues --   -1.36976  -1.33645  -0.72625  -0.69264  -0.57004
 Alpha  occ. eigenvalues --   -0.53483  -0.51613  -0.48279
 Alpha virt. eigenvalues --    0.18475   0.22949   0.29296   0.33192   0.78924
 Alpha virt. eigenvalues --    0.82227   0.84281   0.84445   0.85576   0.88362
 Alpha virt. eigenvalues --    1.16100   1.19784   1.20538   1.28650   2.54480

 Mulliken charges:
               1
     1  O   -0.760129
     2  H    0.395026
     3  H    0.363428
     4  O   -0.755716
     5  H    0.381268
     6  H    0.376123
 Sum of Mulliken charges =  -0.00000

 Dipole moment (field-independent basis, Debye):
    X=             -2.2059    Y=             -4.3617    Z=             -0.0000  Tot=              4.8878
 Quadrupole moment (field-independent basis, Debye-Ang):
   XX=             -9.4571   YY=             -6.9009   ZZ=            -14.9978
   XY=             -5.5222   XZ=             -0.0000   YZ=              0.0000

 8\MP4DQ=-33.8960957\MP4SDQ=-33.8981489\CCSD=-33.8991803\CCSD(T)=-33.90
 Normal termination of Gaussian 16 at Sun Dec 10 06:18:43 2023.
