 Gaussian 16, Revision A.03,
 Gaussian 16:  ES64L-G16RevA.03 25-Dec-2016

 ------------------
 #p CCSD(T)/CEP-31G
 ------------------

 ------------
 H2O_H2O_3048
 ------------
 Symbolic Z-matrix:
 Charge =  0 Multiplicity = 1

                         Standard orientation:
 ---------------------------------------------------------------------
 Center     Atomic      Atomic             Coordinates (Angstroms)
 Number     Number       Type             X           Y           Z
 ---------------------------------------------------------------------
      1          8           0       -0.016630    2.310107    0.000000
      2          1           0       -0.013724    1.327510    0.000000
      3          1           0        0.911916    2.631522    0.000000
      4          8           0       -0.016630   -2.146719    0.000000
      5          1           0       -0.996934   -2.213883    0.000000
      6          1           0        0.364826   -3.052255    0.000000
 ---------------------------------------------------------------------

 SCF Done:  E(RHF) =  -33.6552243038     A.U. after   11 cycles
 E2 =    -0.2282991439D+00 EUMP2 =    -0.33883523447635D+02
 CCSD(T)
 CCSD(T)= -0.33900436475D+02

 The electronic state is 1-A'.
 Alpha  occ. eigenvalues --   -1.36676  -1.34269  -0.72329  -0.69913  -0.56607
 Alpha  occ. eigenvalues --   -0.54109  -0.51296  -0.48897
 Alpha virt. eigenvalues --    0.18646   0.22164   0.29488   0.32173   0.79267
 Alpha virt. eigenvalues --    0.81594   0.82436   0.84360   0.85625   0.87722
 Alpha virt. eigenvalues --    1.16303   1.19112   1.20748   1.25770   2.56257

 Mulliken charges:
               1
     1  O   -0.754736
     2  H    0.385021
     3  H    0.369084
     4  O   -0.753066
     5  H    0.376333
     6  H    0.377363
 Sum of Mulliken charges =   0.00000

 Dipole moment (field-independent basis, Debye):
    X=              0.7571    Y=             -3.8931    Z=              0.0000  Tot=              3.9661
 Quadrupole moment (field-independent basis, Debye-Ang):
   XX=             -9.7668   YY=             -7.4385   ZZ=            -14.9952
   XY=              8.0854   XZ=              0.0000   YZ=              0.0000

 0418\MP4DQ=-33.8947959\MP4SDQ=-33.8968306\CCSD=-33.8978712\CCSD(T)=-33
 Normal termination of Gaussian 16 at Sun Dec 10 06:27:55 2023.
