 Gaussian 16, Revision A.03,
 Gaussian 16:  ES64L-G16RevA.03 25-Dec-2016

 ------------------
 #p CCSD(T)/CEP-31G
 ------------------

 ------------
 H2O_H2O_3815
 ------------
 Symbolic Z-matrix:
 Charge =  0 Multiplicity = 1

                         Standard orientation:
 ---------------------------------------------------------------------
 Center     Atomic      Atomic             Coordinates (Angstroms)
 Number     Number       Type             X           Y           Z
 ---------------------------------------------------------------------
      1          8           0        0.044840    2.628481   -0.000000
      2          1           0        0.043232    1.645881   -0.000000
      3          1           0       -0.884130    2.948668   -0.000000
      4          8           0        0.044840   -2.448063    0.000000
      5          1           0        0.860948   -2.995303    0.000000
      6          1           0       -0.737495   -3.042586    0.000000
 ---------------------------------------------------------------------

 SCF Done:  E(RHF) =  -33.6539873453     A.U. after   11 cycles
 E2 =    -0.2282873770D+00 EUMP2 =    -0.33882274722305D+02
 CCSD(T)
 CCSD(T)= -0.33899212523D+02

 The electronic state is 1-A'.
 Alpha  occ. eigenvalues --   -1.36415  -1.34416  -0.72056  -0.70043  -0.56278
 Alpha  occ. eigenvalues --   -0.54217  -0.51019  -0.49021
 Alpha virt. eigenvalues --    0.19384   0.21589   0.29726   0.31838   0.79540
 Alpha virt. eigenvalues --    0.81481   0.82297   0.84495   0.85552   0.87612
 Alpha virt. eigenvalues --    1.16581   1.18622   1.21016   1.23318   2.56540

 Mulliken charges:
               1
     1  O   -0.749687
     2  H    0.382228
     3  H    0.367340
     4  O   -0.748737
     5  H    0.375759
     6  H    0.373097
 Sum of Mulliken charges =   0.00000

 Dipole moment (field-independent basis, Debye):
    X=             -2.0538    Y=             -4.2556    Z=              0.0000  Tot=              4.7253
 Quadrupole moment (field-independent basis, Debye-Ang):
   XX=             -9.4272   YY=             -5.7262   ZZ=            -14.9931
   XY=             -6.8624   XZ=              0.0000   YZ=             -0.0000

 314\MP4DQ=-33.8935814\MP4SDQ=-33.895606\CCSD=-33.896655\CCSD(T)=-33.89
 Normal termination of Gaussian 16 at Sun Dec 10 06:41:39 2023.
