 Gaussian 16, Revision A.03,
 Gaussian 16:  ES64L-G16RevA.03 25-Dec-2016

 ------------------
 #p CCSD(T)/CEP-31G
 ------------------

 -----------
 H2O_H2O_105
 -----------
 Symbolic Z-matrix:
 Charge =  0 Multiplicity = 1

                         Standard orientation:
 ---------------------------------------------------------------------
 Center     Atomic      Atomic             Coordinates (Angstroms)
 Number     Number       Type             X           Y           Z
 ---------------------------------------------------------------------
      1          8           0        0.079897   -1.140986    0.000000
      2          1           0        0.078850   -0.158385    0.000000
      3          1           0       -0.849256   -1.460643    0.000000
      4          8           0        0.079897    0.982015    0.000000
      5          1           0        0.394752    1.912807    0.000000
      6          1           0       -0.902697    0.977989    0.000000
 ---------------------------------------------------------------------

 SCF Done:  E(RHF) =  -33.5921157187     A.U. after   11 cycles
 E2 =    -0.2279542222D+00 EUMP2 =    -0.33820069940891D+02
 CCSD(T)
 CCSD(T)= -0.33835172823D+02

 The electronic state is 1-A'.
 Alpha  occ. eigenvalues --   -1.46130  -1.28317  -0.83502  -0.73726  -0.58727
 Alpha  occ. eigenvalues --   -0.55567  -0.45843  -0.42311
 Alpha virt. eigenvalues --    0.15960   0.23536   0.30076   0.60895   0.73109
 Alpha virt. eigenvalues --    0.74732   0.89294   0.90878   0.96619   1.08257
 Alpha virt. eigenvalues --    1.10824   1.21374   1.27427   1.42445   3.04511

 Mulliken charges:
               1
     1  O   -0.696330
     2  H    0.264835
     3  H    0.301115
     4  O   -0.774117
     5  H    0.501460
     6  H    0.403036
 Sum of Mulliken charges =  -0.00000

 Dipole moment (field-independent basis, Debye):
    X=             -3.2431    Y=              5.1949    Z=              0.0000  Tot=              6.1241
 Quadrupole moment (field-independent basis, Debye-Ang):
   XX=            -10.4635   YY=            -10.4412   ZZ=            -14.9080
   XY=              2.8293   XZ=              0.0000   YZ=              0.0000

 21\MP4DQ=-33.8288093\MP4SDQ=-33.8313058\CCSD=-33.8319565\CCSD(T)=-33.8
 Normal termination of Gaussian 16 at Sun Dec 10 06:20:06 2023.
