 Gaussian 16, Revision A.03,
 Gaussian 16:  ES64L-G16RevA.03 25-Dec-2016

 ------------------
 #p CCSD(T)/CEP-31G
 ------------------

 ------------
 H2O_H2O_1769
 ------------
 Symbolic Z-matrix:
 Charge =  0 Multiplicity = 1

                         Standard orientation:
 ---------------------------------------------------------------------
 Center     Atomic      Atomic             Coordinates (Angstroms)
 Number     Number       Type             X           Y           Z
 ---------------------------------------------------------------------
      1          8           0        0.030255    1.808152    0.000000
      2          1           0        0.027159    0.825555    0.000000
      3          1           0       -0.898229    2.129746    0.000000
      4          8           0        0.030255   -1.632590   -0.000000
      5          1           0        0.959711   -1.951368   -0.000000
      6          1           0       -0.572724   -2.408427   -0.000000
 ---------------------------------------------------------------------

 SCF Done:  E(RHF) =  -33.6600071717     A.U. after   11 cycles
 E2 =    -0.2286521585D+00 EUMP2 =    -0.33888659330206D+02
 CCSD(T)
 CCSD(T)= -0.33905498788D+02

 The electronic state is 1-A'.
 Alpha  occ. eigenvalues --   -1.37592  -1.32825  -0.73252  -0.68554  -0.57951
 Alpha  occ. eigenvalues --   -0.52674  -0.52273  -0.47502
 Alpha virt. eigenvalues --    0.18022   0.24550   0.28878   0.36698   0.77820
 Alpha virt. eigenvalues --    0.81696   0.83456   0.86413   0.88901   0.94777
 Alpha virt. eigenvalues --    1.15550   1.19593   1.21021   1.34336   2.50879

 Mulliken charges:
               1
     1  O   -0.776026
     2  H    0.411703
     3  H    0.361948
     4  O   -0.771988
     5  H    0.386555
     6  H    0.387808
 Sum of Mulliken charges =  -0.00000

 Dipole moment (field-independent basis, Debye):
    X=             -1.3585    Y=             -4.3675    Z=             -0.0000  Tot=              4.5739
 Quadrupole moment (field-independent basis, Debye-Ang):
   XX=             -9.4518   YY=             -7.8511   ZZ=            -15.0052
   XY=             -5.6047   XZ=             -0.0000   YZ=              0.0000

 23\MP4DQ=-33.8997609\MP4SDQ=-33.9018447\CCSD=-33.9028609\CCSD(T)=-33.9
 Normal termination of Gaussian 16 at Sun Dec 10 06:52:17 2023.
