 Gaussian 16, Revision A.03,
 Gaussian 16:  ES64L-G16RevA.03 25-Dec-2016

 ------------------
 #p CCSD(T)/CEP-31G
 ------------------

 ------------
 H2O_H2O_3911
 ------------
 Symbolic Z-matrix:
 Charge =  0 Multiplicity = 1

                         Standard orientation:
 ---------------------------------------------------------------------
 Center     Atomic      Atomic             Coordinates (Angstroms)
 Number     Number       Type             X           Y           Z
 ---------------------------------------------------------------------
      1          8           0        0.059627    2.666762   -0.000000
      2          1           0        0.058530    1.684161   -0.000000
      3          1           0       -0.869510    2.986466    0.000000
      4          8           0        0.059627   -2.489298   -0.000000
      5          1           0        0.706676   -3.228780   -0.000000
      6          1           0       -0.849731   -2.861554    0.000000
 ---------------------------------------------------------------------

 SCF Done:  E(RHF) =  -33.6535772365     A.U. after   11 cycles
 E2 =    -0.2283016890D+00 EUMP2 =    -0.33881878925543D+02
 CCSD(T)
 CCSD(T)= -0.33898828201D+02

 The electronic state is 1-A'.
 Alpha  occ. eigenvalues --   -1.36400  -1.34509  -0.72043  -0.70131  -0.56239
 Alpha  occ. eigenvalues --   -0.54294  -0.50997  -0.49106
 Alpha virt. eigenvalues --    0.19388   0.21466   0.29710   0.31726   0.79563
 Alpha virt. eigenvalues --    0.81403   0.82352   0.84422   0.85568   0.87565
 Alpha virt. eigenvalues --    1.16579   1.18496   1.21005   1.23170   2.56543

 Mulliken charges:
               1
     1  O   -0.748112
     2  H    0.381290
     3  H    0.366738
     4  O   -0.747522
     5  H    0.375859
     6  H    0.371747
 Sum of Mulliken charges =   0.00000

 Dipole moment (field-independent basis, Debye):
    X=             -2.7337    Y=             -4.1833    Z=              0.0000  Tot=              4.9973
 Quadrupole moment (field-independent basis, Debye-Ang):
   XX=             -9.6723   YY=             -5.8681   ZZ=            -14.9922
   XY=             -5.7628   XZ=             -0.0000   YZ=              0.0000

 \MP4DQ=-33.8931948\MP4SDQ=-33.8952197\CCSD=-33.8962699\CCSD(T)=-33.898
 Normal termination of Gaussian 16 at Sun Dec 10 06:43:23 2023.
