 Gaussian 16, Revision A.03,
 Gaussian 16:  ES64L-G16RevA.03 25-Dec-2016

 ------------------
 #p CCSD(T)/CEP-31G
 ------------------

 -----------
 H2O_H2O_584
 -----------
 Symbolic Z-matrix:
 Charge =  0 Multiplicity = 1

                         Standard orientation:
 ---------------------------------------------------------------------
 Center     Atomic      Atomic             Coordinates (Angstroms)
 Number     Number       Type             X           Y           Z
 ---------------------------------------------------------------------
      1          8           0        0.066830    1.338074   -0.000000
      2          1           0        0.065054    0.355474   -0.000000
      3          1           0       -0.862085    1.658420   -0.000000
      4          8           0        0.066830   -1.165078    0.000000
      5          1           0        0.611257   -1.983066    0.000000
      6          1           0       -0.883510   -1.414797    0.000000
 ---------------------------------------------------------------------

 SCF Done:  E(RHF) =  -33.6532199916     A.U. after   11 cycles
 E2 =    -0.2289617312D+00 EUMP2 =    -0.33882181722790D+02
 CCSD(T)
 CCSD(T)= -0.33898120113D+02

 The electronic state is 1-A'.
 Alpha  occ. eigenvalues --   -1.40802  -1.30066  -0.76573  -0.70297  -0.58615
 Alpha  occ. eigenvalues --   -0.55308  -0.49021  -0.44510
 Alpha virt. eigenvalues --    0.16905   0.26415   0.27964   0.52604   0.74080
 Alpha virt. eigenvalues --    0.75396   0.85428   0.88599   0.96476   1.05575
 Alpha virt. eigenvalues --    1.15553   1.19309   1.23422   1.36185   2.67468

 Mulliken charges:
               1
     1  O   -0.761454
     2  H    0.415832
     3  H    0.329360
     4  O   -0.832649
     5  H    0.450350
     6  H    0.398561
 Sum of Mulliken charges =  -0.00000

 Dipole moment (field-independent basis, Debye):
    X=             -2.8246    Y=             -4.8717    Z=              0.0000  Tot=              5.6314
 Quadrupole moment (field-independent basis, Debye-Ang):
   XX=             -9.8708   YY=             -9.5128   ZZ=            -15.0043
   XY=             -3.5248   XZ=              0.0000   YZ=             -0.0000

 \MP4DQ=-33.8921104\MP4SDQ=-33.8943308\CCSD=-33.8951651\CCSD(T)=-33.898
 Normal termination of Gaussian 16 at Sun Dec 10 06:29:31 2023.
