 Gaussian 16, Revision A.03,
 Gaussian 16:  ES64L-G16RevA.03 25-Dec-2016

 ------------------
 #p CCSD(T)/CEP-31G
 ------------------

 ------------
 H2O_H2O_4626
 ------------
 Symbolic Z-matrix:
 Charge =  0 Multiplicity = 1

                         Standard orientation:
 ---------------------------------------------------------------------
 Center     Atomic      Atomic             Coordinates (Angstroms)
 Number     Number       Type             X           Y           Z
 ---------------------------------------------------------------------
      1          8           0        0.090683   -2.934897    0.000000
      2          1           0        0.090616   -1.952295    0.000000
      3          1           0       -0.838788   -3.253627    0.000000
      4          8           0        0.090683    2.796185    0.000000
      5          1           0        0.154881    3.776688    0.000000
      6          1           0       -0.857644    2.538927    0.000000
 ---------------------------------------------------------------------

 SCF Done:  E(RHF) =  -33.6520717762     A.U. after   11 cycles
 E2 =    -0.2283574954D+00 EUMP2 =    -0.33880429271606D+02
 CCSD(T)
 CCSD(T)= -0.33897423184D+02

 The electronic state is 1-A'.
 Alpha  occ. eigenvalues --   -1.36277  -1.35147  -0.71923  -0.70767  -0.56033
 Alpha  occ. eigenvalues --   -0.54884  -0.50851  -0.49720
 Alpha virt. eigenvalues --    0.19449   0.20709   0.29752   0.30927   0.79711
 Alpha virt. eigenvalues --    0.80822   0.82680   0.83840   0.85747   0.87011
 Alpha virt. eigenvalues --    1.16630   1.17772   1.21090   1.22270   2.56548

 Mulliken charges:
               1
     1  O   -0.742290
     2  H    0.374776
     3  H    0.367510
     4  O   -0.742562
     5  H    0.374300
     6  H    0.368266
 Sum of Mulliken charges =   0.00000

 Dipole moment (field-independent basis, Debye):
    X=             -4.1731    Y=              3.2538    Z=              0.0000  Tot=              5.2917
 Quadrupole moment (field-independent basis, Debye-Ang):
   XX=            -11.1252   YY=             -9.0222   ZZ=            -14.9886
   XY=              2.6535   XZ=              0.0000   YZ=              0.0000

 0384\MP4DQ=-33.8917799\MP4SDQ=-33.8938071\CCSD=-33.8948618\CCSD(T)=-33
 Normal termination of Gaussian 16 at Sun Dec 10 06:56:16 2023.
