 Gaussian 16, Revision A.03,
 Gaussian 16:  ES64L-G16RevA.03 25-Dec-2016

 ------------------
 #p CCSD(T)/CEP-31G
 ------------------

 ------------
 H2O_H2O_1497
 ------------
 Symbolic Z-matrix:
 Charge =  0 Multiplicity = 1

                         Standard orientation:
 ---------------------------------------------------------------------
 Center     Atomic      Atomic             Coordinates (Angstroms)
 Number     Number       Type             X           Y           Z
 ---------------------------------------------------------------------
      1          8           0       -0.019956    1.693846    0.000000
      2          1           0       -0.016104    0.711252    0.000000
      3          1           0        0.908281    2.016153    0.000000
      4          8           0       -0.019956   -1.526787    0.000000
      5          1           0       -0.993641   -1.658860    0.000000
      6          1           0        0.420754   -2.405014    0.000000
 ---------------------------------------------------------------------

 SCF Done:  E(RHF) =  -33.6609597070     A.U. after   11 cycles
 E2 =    -0.2287042011D+00 EUMP2 =    -0.33889663908078D+02
 CCSD(T)
 CCSD(T)= -0.33906482625D+02

 The electronic state is 1-A'.
 Alpha  occ. eigenvalues --   -1.37937  -1.32602  -0.73667  -0.68439  -0.58407
 Alpha  occ. eigenvalues --   -0.52621  -0.52413  -0.47291
 Alpha virt. eigenvalues --    0.17796   0.25179   0.28604   0.38739   0.77084
 Alpha virt. eigenvalues --    0.80475   0.84134   0.86414   0.89275   1.02389
 Alpha virt. eigenvalues --    1.15566   1.18479   1.21605   1.36519   2.50788

 Mulliken charges:
               1
     1  O   -0.780293
     2  H    0.414083
     3  H    0.363005
     4  O   -0.783121
     5  H    0.388116
     6  H    0.398210
 Sum of Mulliken charges =  -0.00000

 Dipole moment (field-independent basis, Debye):
    X=              0.8943    Y=             -4.2283    Z=              0.0000  Tot=              4.3218
 Quadrupole moment (field-independent basis, Debye-Ang):
   XX=             -9.6511   YY=             -8.3464   ZZ=            -15.0076
   XY=              5.7044   XZ=              0.0000   YZ=              0.0000

 11\MP4DQ=-33.9006989\MP4SDQ=-33.9028051\CCSD=-33.9038105\CCSD(T)=-33.9
 Normal termination of Gaussian 16 at Sun Dec 10 06:47:00 2023.
