 Gaussian 16, Revision A.03,
 Gaussian 16:  ES64L-G16RevA.03 25-Dec-2016

 ------------------
 #p CCSD(T)/CEP-31G
 ------------------

 ------------
 H2O_H2O_2810
 ------------
 Symbolic Z-matrix:
 Charge =  0 Multiplicity = 1

                         Standard orientation:
 ---------------------------------------------------------------------
 Center     Atomic      Atomic             Coordinates (Angstroms)
 Number     Number       Type             X           Y           Z
 ---------------------------------------------------------------------
      1          8           0        0.063242    2.226931    0.000000
      2          1           0        0.062063    1.244330    0.000000
      3          1           0       -0.865868    2.546712   -0.000000
      4          8           0        0.063242   -2.051432    0.000000
      5          1           0        0.660476   -2.831698    0.000000
      6          1           0       -0.868541   -2.363337   -0.000000
 ---------------------------------------------------------------------

 SCF Done:  E(RHF) =  -33.6551029995     A.U. after   11 cycles
 E2 =    -0.2283819988D+00 EUMP2 =    -0.33883484998242D+02
 CCSD(T)
 CCSD(T)= -0.33900403870D+02

 The electronic state is 1-A'.
 Alpha  occ. eigenvalues --   -1.36835  -1.33988  -0.72489  -0.69594  -0.56770
 Alpha  occ. eigenvalues --   -0.53794  -0.51451  -0.48600
 Alpha virt. eigenvalues --    0.18556   0.22436   0.29327   0.32558   0.79115
 Alpha virt. eigenvalues --    0.81896   0.83033   0.84868   0.85196   0.88167
 Alpha virt. eigenvalues --    1.16182   1.19364   1.20606   1.26919   2.55548

 Mulliken charges:
               1
     1  O   -0.754427
     2  H    0.389887
     3  H    0.363451
     4  O   -0.752084
     5  H    0.380156
     6  H    0.373016
 Sum of Mulliken charges =   0.00000

 Dipole moment (field-independent basis, Debye):
    X=             -2.8814    Y=             -4.2146    Z=             -0.0000  Tot=              5.1054
 Quadrupole moment (field-independent basis, Debye-Ang):
   XX=             -9.7774   YY=             -6.9106   ZZ=            -14.9950
   XY=             -4.8502   XZ=              0.0000   YZ=             -0.0000

 3\MP4DQ=-33.8947501\MP4SDQ=-33.8967945\CCSD=-33.8978315\CCSD(T)=-33.90
 Normal termination of Gaussian 16 at Sun Dec 10 06:23:34 2023.
