 Gaussian 16, Revision A.03,
 Gaussian 16:  ES64L-G16RevA.03 25-Dec-2016

 ------------------
 #p CCSD(T)/CEP-31G
 ------------------

 ------------
 H2O_H2O_2101
 ------------
 Symbolic Z-matrix:
 Charge =  0 Multiplicity = 1

                         Standard orientation:
 ---------------------------------------------------------------------
 Center     Atomic      Atomic             Coordinates (Angstroms)
 Number     Number       Type             X           Y           Z
 ---------------------------------------------------------------------
      1          8           0        0.090686   -1.927729    0.000000
      2          1           0        0.090582   -0.945127    0.000000
      3          1           0       -0.838773   -2.246493    0.000000
      4          8           0        0.090686    1.789024    0.000000
      5          1           0        0.154848    2.769528    0.000000
      6          1           0       -0.857632    1.531731    0.000000
 ---------------------------------------------------------------------

 SCF Done:  E(RHF) =  -33.6533215166     A.U. after   11 cycles
 E2 =    -0.2287362405D+00 EUMP2 =    -0.33882057757099D+02
 CCSD(T)
 CCSD(T)= -0.33899085467D+02

 The electronic state is 1-A'.
 Alpha  occ. eigenvalues --   -1.37396  -1.34428  -0.73154  -0.69963  -0.57258
 Alpha  occ. eigenvalues --   -0.54138  -0.51969  -0.48992
 Alpha virt. eigenvalues --    0.16765   0.23349   0.28763   0.33540   0.78363
 Alpha virt. eigenvalues --    0.81850   0.82650   0.84519   0.87934   0.91850
 Alpha virt. eigenvalues --    1.15357   1.18579   1.20677   1.35498   2.54664

 Mulliken charges:
               1
     1  O   -0.749600
     2  H    0.388311
     3  H    0.359386
     4  O   -0.749294
     5  H    0.385851
     6  H    0.365345
 Sum of Mulliken charges =  -0.00000

 Dipole moment (field-independent basis, Debye):
    X=             -4.1163    Y=              3.4052    Z=              0.0000  Tot=              5.3422
 Quadrupole moment (field-independent basis, Debye-Ang):
   XX=            -11.1567   YY=             -9.2410   ZZ=            -14.9889
   XY=              2.5221   XZ=              0.0000   YZ=              0.0000

 123\MP4DQ=-33.8933436\MP4SDQ=-33.8954372\CCSD=-33.8964649\CCSD(T)=-33.
 Normal termination of Gaussian 16 at Sun Dec 10 06:58:35 2023.
