 Gaussian 16, Revision A.03,
 Gaussian 16:  ES64L-G16RevA.03 25-Dec-2016

 ------------------
 #p CCSD(T)/CEP-31G
 ------------------

 ------------
 H2O_H2O_4297
 ------------
 Symbolic Z-matrix:
 Charge =  0 Multiplicity = 1

                         Standard orientation:
 ---------------------------------------------------------------------
 Center     Atomic      Atomic             Coordinates (Angstroms)
 Number     Number       Type             X           Y           Z
 ---------------------------------------------------------------------
      1          8           0       -0.019821    2.810729    0.000000
      2          1           0       -0.017547    1.828130    0.000000
      3          1           0        0.908931    3.131546    0.000000
      4          8           0       -0.019821   -2.643607    0.000000
      5          1           0       -0.993718   -2.774116    0.000000
      6          1           0        0.419477   -3.522539    0.000000
 ---------------------------------------------------------------------

 SCF Done:  E(RHF) =  -33.6535787709     A.U. after   11 cycles
 E2 =    -0.2282838913D+00 EUMP2 =    -0.33881862662168D+02
 CCSD(T)
 CCSD(T)= -0.33898813651D+02

 The electronic state is 1-A'.
 Alpha  occ. eigenvalues --   -1.36289  -1.34717  -0.71930  -0.70356  -0.56124
 Alpha  occ. eigenvalues --   -0.54515  -0.50887  -0.49320
 Alpha virt. eigenvalues --    0.19543   0.21211   0.29826   0.31484   0.79666
 Alpha virt. eigenvalues --    0.81194   0.82490   0.84177   0.85678   0.87279
 Alpha virt. eigenvalues --    1.16689   1.18274   1.21120   1.22812   2.56636

 Mulliken charges:
               1
     1  O   -0.748098
     2  H    0.378419
     3  H    0.369658
     4  O   -0.747594
     5  H    0.373754
     6  H    0.373861
 Sum of Mulliken charges =  -0.00000

 Dipole moment (field-independent basis, Debye):
    X=              0.9094    Y=             -3.9220    Z=              0.0000  Tot=              4.0260
 Quadrupole moment (field-independent basis, Debye-Ang):
   XX=             -9.6798   YY=             -6.4035   ZZ=            -14.9921
   XY=              9.5272   XZ=              0.0000   YZ=              0.0000

 433\MP4DQ=-33.8931814\MP4SDQ=-33.8952049\CCSD=-33.8962566\CCSD(T)=-33.
 Normal termination of Gaussian 16 at Sun Dec 10 06:50:20 2023.
