 Gaussian 16, Revision A.03,
 Gaussian 16:  ES64L-G16RevA.03 25-Dec-2016

 ------------------
 #p CCSD(T)/CEP-31G
 ------------------

 ------------
 H2O_H2O_1225
 ------------
 Symbolic Z-matrix:
 Charge =  0 Multiplicity = 1

                         Standard orientation:
 ---------------------------------------------------------------------
 Center     Atomic      Atomic             Coordinates (Angstroms)
 Number     Number       Type             X           Y           Z
 ---------------------------------------------------------------------
      1          8           0        0.092949   -1.575496    0.000000
      2          1           0        0.092949   -0.592895    0.000000
      3          1           0       -0.836544   -1.894163    0.000000
      4          8           0        0.092949    1.442709    0.000000
      5          1           0        0.092949    2.425311    0.000000
      6          1           0       -0.836544    1.124043    0.000000
 ---------------------------------------------------------------------

 SCF Done:  E(RHF) =  -33.6515206154     A.U. after   11 cycles
 E2 =    -0.2293187539D+00 EUMP2 =    -0.33880839369227D+02
 CCSD(T)
 CCSD(T)= -0.33897895479D+02

 The electronic state is 1-A'.
 Alpha  occ. eigenvalues --   -1.38709  -1.33835  -0.75031  -0.69159  -0.58525
 Alpha  occ. eigenvalues --   -0.53399  -0.53188  -0.48334
 Alpha virt. eigenvalues --    0.16519   0.24769   0.27904   0.39915   0.75903
 Alpha virt. eigenvalues --    0.80544   0.84141   0.84595   0.89644   1.11198
 Alpha virt. eigenvalues --    1.15469   1.19739   1.22682   1.39517   2.50435

 Mulliken charges:
               1
     1  O   -0.744715
     2  H    0.384463
     3  H    0.349848
     4  O   -0.759026
     5  H    0.406956
     6  H    0.362474
 Sum of Mulliken charges =   0.00000

 Dipole moment (field-independent basis, Debye):
    X=             -4.1496    Y=              3.4702    Z=              0.0000  Tot=              5.4094
 Quadrupole moment (field-independent basis, Debye-Ang):
   XX=            -11.3498   YY=             -9.6034   ZZ=            -14.9867
   XY=              2.2445   XZ=              0.0000   YZ=              0.0000

 697\MP4DQ=-33.8919511\MP4SDQ=-33.8941655\CCSD=-33.8951443\CCSD(T)=-33.
 Normal termination of Gaussian 16 at Sun Dec 10 06:41:37 2023.
