 Gaussian 16, Revision A.03,
 Gaussian 16:  ES64L-G16RevA.03 25-Dec-2016

 ------------------
 #p CCSD(T)/CEP-31G
 ------------------

 ------------
 H2O_H2O_1279
 ------------
 Symbolic Z-matrix:
 Charge =  0 Multiplicity = 1

                         Standard orientation:
 ---------------------------------------------------------------------
 Center     Atomic      Atomic             Coordinates (Angstroms)
 Number     Number       Type             X           Y           Z
 ---------------------------------------------------------------------
      1          8           0        0.082818   -1.607228    0.000000
      2          1           0        0.082255   -0.624627    0.000000
      3          1           0       -0.846492   -1.926427    0.000000
      4          8           0        0.082818    1.452742    0.000000
      5          1           0        0.336590    2.402007    0.000000
      6          1           0       -0.897442    1.384942    0.000000
 ---------------------------------------------------------------------

 SCF Done:  E(RHF) =  -33.6561676359     A.U. after   11 cycles
 E2 =    -0.2290221891D+00 EUMP2 =    -0.33885189825063D+02
 CCSD(T)
 CCSD(T)= -0.33902128623D+02

 The electronic state is 1-A'.
 Alpha  occ. eigenvalues --   -1.38482  -1.33002  -0.74429  -0.68710  -0.58583
 Alpha  occ. eigenvalues --   -0.53062  -0.52616  -0.47563
 Alpha virt. eigenvalues --    0.17038   0.25100   0.27953   0.40078   0.76281
 Alpha virt. eigenvalues --    0.80135   0.84481   0.85058   0.90912   1.09692
 Alpha virt. eigenvalues --    1.15865   1.17408   1.21903   1.38731   2.50335

 Mulliken charges:
               1
     1  O   -0.760809
     2  H    0.406373
     3  H    0.348949
     4  O   -0.777495
     5  H    0.410690
     6  H    0.372291
 Sum of Mulliken charges =  -0.00000

 Dipole moment (field-independent basis, Debye):
    X=             -3.6879    Y=              4.0038    Z=              0.0000  Tot=              5.4435
 Quadrupole moment (field-independent basis, Debye-Ang):
   XX=            -10.6811   YY=             -8.8713   ZZ=            -14.9975
   XY=              3.0612   XZ=              0.0000   YZ=              0.0000

 485\MP4DQ=-33.8962483\MP4SDQ=-33.8984147\CCSD=-33.8994102\CCSD(T)=-33.
 Normal termination of Gaussian 16 at Sun Dec 10 06:42:41 2023.
