 Gaussian 16, Revision A.03,
 Gaussian 16:  ES64L-G16RevA.03 25-Dec-2016

 ------------------
 #p CCSD(T)/CEP-31G
 ------------------

 ------------
 H2O_H2O_2763
 ------------
 Symbolic Z-matrix:
 Charge =  0 Multiplicity = 1

                         Standard orientation:
 ---------------------------------------------------------------------
 Center     Atomic      Atomic             Coordinates (Angstroms)
 Number     Number       Type             X           Y           Z
 ---------------------------------------------------------------------
      1          8           0        0.052308    2.209368   -0.000000
      2          1           0        0.050680    1.226768   -0.000000
      3          1           0       -0.876656    2.529574   -0.000000
      4          8           0        0.052308   -2.029488    0.000000
      5          1           0        0.789992   -2.678585    0.000000
      6          1           0       -0.800945   -2.516793    0.000000
 ---------------------------------------------------------------------

 SCF Done:  E(RHF) =  -33.6557027436     A.U. after   11 cycles
 E2 =    -0.2283718903D+00 EUMP2 =    -0.33884074633907D+02
 CCSD(T)
 CCSD(T)= -0.33900977803D+02

 The electronic state is 1-A'.
 Alpha  occ. eigenvalues --   -1.36848  -1.33846  -0.72497  -0.69461  -0.56820
 Alpha  occ. eigenvalues --   -0.53672  -0.51475  -0.48470
 Alpha virt. eigenvalues --    0.18630   0.22589   0.29378   0.32724   0.79088
 Alpha virt. eigenvalues --    0.82018   0.83301   0.84653   0.85342   0.88201
 Alpha virt. eigenvalues --    1.16207   1.19526   1.20635   1.27054   2.55327

 Mulliken charges:
               1
     1  O   -0.756796
     2  H    0.391516
     3  H    0.364039
     4  O   -0.753567
     5  H    0.380063
     6  H    0.374746
 Sum of Mulliken charges =  -0.00000

 Dipole moment (field-independent basis, Debye):
    X=             -2.3802    Y=             -4.3238    Z=              0.0000  Tot=              4.9357
 Quadrupole moment (field-independent basis, Debye-Ang):
   XX=             -9.5119   YY=             -6.7143   ZZ=            -14.9963
   XY=             -5.4915   XZ=              0.0000   YZ=             -0.0000

 14\MP4DQ=-33.8953253\MP4SDQ=-33.8973704\CCSD=-33.8984056\CCSD(T)=-33.9
 Normal termination of Gaussian 16 at Sun Dec 10 06:22:44 2023.
