 Gaussian 16, Revision A.03,
 Gaussian 16:  ES64L-G16RevA.03 25-Dec-2016

 ------------------
 #p CCSD(T)/CEP-31G
 ------------------

 ------------
 H2O_H2O_4519
 ------------
 Symbolic Z-matrix:
 Charge =  0 Multiplicity = 1

                         Standard orientation:
 ---------------------------------------------------------------------
 Center     Atomic      Atomic             Coordinates (Angstroms)
 Number     Number       Type             X           Y           Z
 ---------------------------------------------------------------------
      1          8           0        0.030148    2.905098    0.000000
      2          1           0        0.028257    1.922499    0.000000
      3          1           0       -0.898731    3.225553    0.000000
      4          8           0        0.030148   -2.729463    0.000000
      5          1           0        0.959993   -3.047099    0.000000
      6          1           0       -0.571879   -3.506039    0.000000
 ---------------------------------------------------------------------

 SCF Done:  E(RHF) =  -33.6534233732     A.U. after   11 cycles
 E2 =    -0.2282924994D+00 EUMP2 =    -0.33881715872635D+02
 CCSD(T)
 CCSD(T)= -0.33898670426D+02

 The electronic state is 1-A'.
 Alpha  occ. eigenvalues --   -1.36246  -1.34698  -0.71886  -0.70333  -0.56074
 Alpha  occ. eigenvalues --   -0.54488  -0.50842  -0.49297
 Alpha virt. eigenvalues --    0.19602   0.21208   0.29863   0.31489   0.79709
 Alpha virt. eigenvalues --    0.81220   0.82556   0.84206   0.85746   0.87307
 Alpha virt. eigenvalues --    1.16726   1.18278   1.21165   1.22783   2.56691

 Mulliken charges:
               1
     1  O   -0.747488
     2  H    0.378412
     3  H    0.369065
     4  O   -0.746928
     5  H    0.373905
     6  H    0.373033
 Sum of Mulliken charges =  -0.00000

 Dipole moment (field-independent basis, Debye):
    X=             -1.3842    Y=             -4.1173    Z=              0.0000  Tot=              4.3438
 Quadrupole moment (field-independent basis, Debye-Ang):
   XX=             -9.4754   YY=             -5.5011   ZZ=            -14.9919
   XY=             -8.8258   XZ=              0.0000   YZ=              0.0000

 2899\MP4DQ=-33.8930378\MP4SDQ=-33.8950613\CCSD=-33.8961134\CCSD(T)=-33
 Normal termination of Gaussian 16 at Sun Dec 10 06:54:20 2023.
