 Gaussian 16, Revision A.03,
 Gaussian 16:  ES64L-G16RevA.03 25-Dec-2016

 ------------------
 #p CCSD(T)/CEP-31G
 ------------------

 ------------
 H2O_H2O_1472
 ------------
 Symbolic Z-matrix:
 Charge =  0 Multiplicity = 1

                         Standard orientation:
 ---------------------------------------------------------------------
 Center     Atomic      Atomic             Coordinates (Angstroms)
 Number     Number       Type             X           Y           Z
 ---------------------------------------------------------------------
      1          8           0       -0.019958    1.683873    0.000000
      2          1           0       -0.016082    0.701280    0.000000
      3          1           0        0.908271    2.006203    0.000000
      4          8           0       -0.019958   -1.516816    0.000000
      5          1           0       -0.993640   -1.648912    0.000000
      6          1           0        0.420773   -2.395031    0.000000
 ---------------------------------------------------------------------

 SCF Done:  E(RHF) =  -33.6610777406     A.U. after   11 cycles
 E2 =    -0.2287104404D+00 EUMP2 =    -0.33889788181031D+02
 CCSD(T)
 CCSD(T)= -0.33906599721D+02

 The electronic state is 1-A'.
 Alpha  occ. eigenvalues --   -1.37976  -1.32556  -0.73709  -0.68410  -0.58458
 Alpha  occ. eigenvalues --   -0.52660  -0.52361  -0.47245
 Alpha virt. eigenvalues --    0.17789   0.25243   0.28575   0.38988   0.77009
 Alpha virt. eigenvalues --    0.80358   0.84224   0.86419   0.89380   1.02923
 Alpha virt. eigenvalues --    1.15583   1.18384   1.21667   1.36533   2.50762

 Mulliken charges:
               1
     1  O   -0.780714
     2  H    0.414640
     3  H    0.362802
     4  O   -0.784319
     5  H    0.388492
     6  H    0.399099
 Sum of Mulliken charges =   0.00000

 Dipole moment (field-independent basis, Debye):
    X=              0.8943    Y=             -4.2359    Z=              0.0000  Tot=              4.3293
 Quadrupole moment (field-independent basis, Debye-Ang):
   XX=             -9.6505   YY=             -8.3692   ZZ=            -15.0080
   XY=              5.6686   XZ=              0.0000   YZ=              0.0000

 6\MP4DQ=-33.9008123\MP4SDQ=-33.9029199\CCSD=-33.9039237\CCSD(T)=-33.90
 Normal termination of Gaussian 16 at Sun Dec 10 06:46:31 2023.
