 Gaussian 16, Revision A.03,
 Gaussian 16:  ES64L-G16RevA.03 25-Dec-2016

 ------------------
 #p CCSD(T)/CEP-31G
 ------------------

 ------------
 H2O_H2O_1730
 ------------
 Symbolic Z-matrix:
 Charge =  0 Multiplicity = 1

                         Standard orientation:
 ---------------------------------------------------------------------
 Center     Atomic      Atomic             Coordinates (Angstroms)
 Number     Number       Type             X           Y           Z
 ---------------------------------------------------------------------
      1          8           0        0.079865   -1.789194    0.000000
      2          1           0        0.079215   -0.806593    0.000000
      3          1           0       -0.849417   -2.108475    0.000000
      4          8           0        0.079865    1.630158    0.000000
      5          1           0        0.395095    2.560822    0.000000
      6          1           0       -0.902730    1.626529    0.000000
 ---------------------------------------------------------------------

 SCF Done:  E(RHF) =  -33.6562376890     A.U. after   11 cycles
 E2 =    -0.2288166133D+00 EUMP2 =    -0.33885054302335D+02
 CCSD(T)
 CCSD(T)= -0.33902026904D+02

 The electronic state is 1-A'.
 Alpha  occ. eigenvalues --   -1.37743  -1.33479  -0.73499  -0.69073  -0.57831
 Alpha  occ. eigenvalues --   -0.53206  -0.52353  -0.48073
 Alpha virt. eigenvalues --    0.17327   0.24194   0.28543   0.36088   0.77664
 Alpha virt. eigenvalues --    0.81870   0.83070   0.85143   0.89323   0.98059
 Alpha virt. eigenvalues --    1.15161   1.18761   1.20944   1.37497   2.51466

 Mulliken charges:
               1
     1  O   -0.761606
     2  H    0.403682
     3  H    0.355186
     4  O   -0.763377
     5  H    0.394471
     6  H    0.371645
 Sum of Mulliken charges =   0.00000

 Dipole moment (field-independent basis, Debye):
    X=             -3.5962    Y=              3.9804    Z=              0.0000  Tot=              5.3644
 Quadrupole moment (field-independent basis, Debye-Ang):
   XX=            -10.5012   YY=             -8.4469   ZZ=            -14.9961
   XY=              3.3554   XZ=              0.0000   YZ=              0.0000

 168\MP4DQ=-33.8962436\MP4SDQ=-33.8983576\CCSD=-33.8993773\CCSD(T)=-33.
 Normal termination of Gaussian 16 at Sun Dec 10 06:51:33 2023.
