 Gaussian 16, Revision A.03,
 Gaussian 16:  ES64L-G16RevA.03 25-Dec-2016

 ------------------
 #p CCSD(T)/CEP-31G
 ------------------

 ------------
 H2O_H2O_1819
 ------------
 Symbolic Z-matrix:
 Charge =  0 Multiplicity = 1

                         Standard orientation:
 ---------------------------------------------------------------------
 Center     Atomic      Atomic             Coordinates (Angstroms)
 Number     Number       Type             X           Y           Z
 ---------------------------------------------------------------------
      1          8           0        0.030252    1.828097   -0.000000
      2          1           0        0.027191    0.845500   -0.000000
      3          1           0       -0.898244    2.149657   -0.000000
      4          8           0        0.030252   -1.652533    0.000000
      5          1           0        0.959719   -1.971277    0.000000
      6          1           0       -0.572698   -2.428391    0.000000
 ---------------------------------------------------------------------

 SCF Done:  E(RHF) =  -33.6597413934     A.U. after   11 cycles
 E2 =    -0.2286302662D+00 EUMP2 =    -0.33888371659592D+02
 CCSD(T)
 CCSD(T)= -0.33905218863D+02

 The electronic state is 1-A'.
 Alpha  occ. eigenvalues --   -1.37537  -1.32899  -0.73196  -0.68612  -0.57868
 Alpha  occ. eigenvalues --   -0.52753  -0.52215  -0.47574
 Alpha virt. eigenvalues --    0.18040   0.24430   0.28918   0.36337   0.77930
 Alpha virt. eigenvalues --    0.81903   0.83327   0.86387   0.88719   0.93958
 Alpha virt. eigenvalues --    1.15594   1.19682   1.20935   1.34155   2.51107

 Mulliken charges:
               1
     1  O   -0.774921
     2  H    0.410218
     3  H    0.362310
     4  O   -0.770365
     5  H    0.385941
     6  H    0.386816
 Sum of Mulliken charges =   0.00000

 Dipole moment (field-independent basis, Debye):
    X=             -1.3592    Y=             -4.3568    Z=              0.0000  Tot=              4.5639
 Quadrupole moment (field-independent basis, Debye-Ang):
   XX=             -9.4530   YY=             -7.7991   ZZ=            -15.0045
   XY=             -5.6654   XZ=              0.0000   YZ=             -0.0000

 7461\MP4DQ=-33.8994869\MP4SDQ=-33.9015689\CCSD=-33.9025867\CCSD(T)=-33
 Normal termination of Gaussian 16 at Sun Dec 10 06:53:13 2023.
