 Gaussian 16, Revision A.03,
 Gaussian 16:  ES64L-G16RevA.03 25-Dec-2016

 ------------------
 #p CCSD(T)/CEP-31G
 ------------------

 ------------
 H2O_H2O_4640
 ------------
 Symbolic Z-matrix:
 Charge =  0 Multiplicity = 1

                         Standard orientation:
 ---------------------------------------------------------------------
 Center     Atomic      Atomic             Coordinates (Angstroms)
 Number     Number       Type             X           Y           Z
 ---------------------------------------------------------------------
      1          8           0        0.044823    2.957562    0.000000
      2          1           0        0.043399    1.974962    0.000000
      3          1           0       -0.884207    3.277575   -0.000000
      4          8           0        0.044823   -2.777128    0.000000
      5          1           0        0.861036   -3.324215    0.000000
      6          1           0       -0.737399   -3.371799   -0.000000
 ---------------------------------------------------------------------

 SCF Done:  E(RHF) =  -33.6532428537     A.U. after   11 cycles
 E2 =    -0.2283023908D+00 EUMP2 =    -0.33881545244479D+02
 CCSD(T)
 CCSD(T)= -0.33898504371D+02

 The electronic state is 1-A'.
 Alpha  occ. eigenvalues --   -1.36229  -1.34695  -0.71868  -0.70325  -0.56047
 Alpha  occ. eigenvalues --   -0.54477  -0.50823  -0.49290
 Alpha virt. eigenvalues --    0.19614   0.21200   0.29870   0.31480   0.79729
 Alpha virt. eigenvalues --    0.81229   0.82594   0.84220   0.85778   0.87334
 Alpha virt. eigenvalues --    1.16735   1.18270   1.21179   1.22768   2.56708

 Mulliken charges:
               1
     1  O   -0.746790
     2  H    0.378390
     3  H    0.368393
     4  O   -0.746277
     5  H    0.374140
     6  H    0.372144
 Sum of Mulliken charges =  -0.00000

 Dipole moment (field-independent basis, Debye):
    X=             -2.0594    Y=             -4.2283    Z=             -0.0000  Tot=              4.7032
 Quadrupole moment (field-independent basis, Debye-Ang):
   XX=             -9.4288   YY=             -4.9776   ZZ=            -14.9915
   XY=             -7.5982   XZ=              0.0000   YZ=             -0.0000

 236\MP4DQ=-33.8928707\MP4SDQ=-33.8948946\CCSD=-33.8959471\CCSD(T)=-33.
 Normal termination of Gaussian 16 at Sun Dec 10 06:56:31 2023.
