 Gaussian 16, Revision A.03,
 Gaussian 16:  ES64L-G16RevA.03 25-Dec-2016

 ------------------
 #p CCSD(T)/CEP-31G
 ------------------

 ------------
 H2O_H2O_4495
 ------------
 Symbolic Z-matrix:
 Charge =  0 Multiplicity = 1

                         Standard orientation:
 ---------------------------------------------------------------------
 Center     Atomic      Atomic             Coordinates (Angstroms)
 Number     Number       Type             X           Y           Z
 ---------------------------------------------------------------------
      1          8           0        0.026614    2.893832    0.000000
      2          1           0        0.024610    1.911232    0.000000
      3          1           0       -0.902227    3.214394    0.000000
      4          8           0        0.026614   -2.720581   -0.000000
      5          1           0        0.975214   -2.976831   -0.000000
      6          1           0       -0.523427   -3.534805   -0.000000
 ---------------------------------------------------------------------

 SCF Done:  E(RHF) =  -33.6534440444     A.U. after   11 cycles
 E2 =    -0.2282907427D+00 EUMP2 =    -0.33881734787137D+02
 CCSD(T)
 CCSD(T)= -0.33898688967D+02

 The electronic state is 1-A'.
 Alpha  occ. eigenvalues --   -1.36250  -1.34713  -0.71890  -0.70349  -0.56078
 Alpha  occ. eigenvalues --   -0.54505  -0.50846  -0.49313
 Alpha virt. eigenvalues --    0.19597   0.21194   0.29860   0.31475   0.79705
 Alpha virt. eigenvalues --    0.81204   0.82550   0.84189   0.85738   0.87288
 Alpha virt. eigenvalues --    1.16723   1.18265   1.21161   1.22772   2.56686

 Mulliken charges:
               1
     1  O   -0.747569
     2  H    0.378283
     3  H    0.369275
     4  O   -0.747030
     5  H    0.373803
     6  H    0.373238
 Sum of Mulliken charges =  -0.00000

 Dipole moment (field-independent basis, Debye):
    X=             -1.2219    Y=             -4.0616    Z=             -0.0000  Tot=              4.2414
 Quadrupole moment (field-independent basis, Debye-Ang):
   XX=             -9.5294   YY=             -5.7294   ZZ=            -14.9919
   XY=             -9.1301   XZ=             -0.0000   YZ=             -0.0000

 084\MP4DQ=-33.8930564\MP4SDQ=-33.8950799\CCSD=-33.896132\CCSD(T)=-33.8
 Normal termination of Gaussian 16 at Sun Dec 10 06:53:54 2023.
