 Gaussian 16, Revision A.03,
 Gaussian 16:  ES64L-G16RevA.03 25-Dec-2016

 ------------------
 #p CCSD(T)/CEP-31G
 ------------------

 -----------
 H2O_H2O_748
 -----------
 Symbolic Z-matrix:
 Charge =  0 Multiplicity = 1

                         Standard orientation:
 ---------------------------------------------------------------------
 Center     Atomic      Atomic             Coordinates (Angstroms)
 Number     Number       Type             X           Y           Z
 ---------------------------------------------------------------------
      1          8           0        0.016799   -1.392662    0.000000
      2          1           0        0.011859   -0.410073    0.000000
      3          1           0       -0.911080   -1.715997    0.000000
      4          8           0        0.016799    1.229343    0.000000
      5          1           0        0.996962    1.298536    0.000000
      6          1           0       -0.366530    2.134088    0.000000
 ---------------------------------------------------------------------

 SCF Done:  E(RHF) =  -33.6585945485     A.U. after   11 cycles
 E2 =    -0.2284629143D+00 EUMP2 =    -0.33887057462820D+02
 CCSD(T)
 CCSD(T)= -0.33903332199D+02

 The electronic state is 1-A'.
 Alpha  occ. eigenvalues --   -1.39907  -1.30721  -0.76081  -0.68531  -0.59589
 Alpha  occ. eigenvalues --   -0.54486  -0.49988  -0.45345
 Alpha virt. eigenvalues --    0.17477   0.26909   0.27678   0.49272   0.74560
 Alpha virt. eigenvalues --    0.76917   0.86627   0.87636   0.92506   1.07625
 Alpha virt. eigenvalues --    1.15570   1.21970   1.26409   1.37528   2.60475

 Mulliken charges:
               1
     1  O   -0.774311
     2  H    0.402222
     3  H    0.354261
     4  O   -0.827944
     5  H    0.404844
     6  H    0.440929
 Sum of Mulliken charges =  -0.00000

 Dipole moment (field-independent basis, Debye):
    X=             -0.7530    Y=              4.5072    Z=              0.0000  Tot=              4.5697
 Quadrupole moment (field-independent basis, Debye-Ang):
   XX=             -9.7160   YY=             -9.2316   ZZ=            -15.0133
   XY=              4.7206   XZ=              0.0000   YZ=              0.0000

 98\MP4DQ=-33.8974048\MP4SDQ=-33.8995827\CCSD=-33.9004844\CCSD(T)=-33.9
 Normal termination of Gaussian 16 at Sun Dec 10 06:32:35 2023.
