 Gaussian 16, Revision A.03,
 Gaussian 16:  ES64L-G16RevA.03 25-Dec-2016

 ------------------
 #p CCSD(T)/CEP-31G
 ------------------

 -----------
 H2O_H2O_622
 -----------
 Symbolic Z-matrix:
 Charge =  0 Multiplicity = 1

                         Standard orientation:
 ---------------------------------------------------------------------
 Center     Atomic      Atomic             Coordinates (Angstroms)
 Number     Number       Type             X           Y           Z
 ---------------------------------------------------------------------
      1          8           0       -0.020046    1.344810    0.000000
      2          1           0       -0.015129    0.362220    0.000000
      3          1           0        0.907841    1.668123    0.000000
      4          8           0       -0.020046   -1.177794    0.000000
      5          1           0       -0.993588   -1.310923    0.000000
      6          1           0        0.421615   -2.055542    0.000000
 ---------------------------------------------------------------------

 SCF Done:  E(RHF) =  -33.6560376531     A.U. after   11 cycles
 E2 =    -0.2283872581D+00 EUMP2 =    -0.33884424911207D+02
 CCSD(T)
 CCSD(T)= -0.33900425743D+02

 The electronic state is 1-A'.
 Alpha  occ. eigenvalues --   -1.40521  -1.30053  -0.76645  -0.69330  -0.59266
 Alpha  occ. eigenvalues --   -0.55047  -0.49089  -0.44626
 Alpha virt. eigenvalues --    0.17377   0.26796   0.27972   0.52006   0.74218
 Alpha virt. eigenvalues --    0.76053   0.86789   0.88457   0.93576   1.04891
 Alpha virt. eigenvalues --    1.15603   1.21714   1.26198   1.37854   2.65508

 Mulliken charges:
               1
     1  O   -0.772085
     2  H    0.400038
     3  H    0.348607
     4  O   -0.835720
     5  H    0.411062
     6  H    0.448098
 Sum of Mulliken charges =  -0.00000

 Dipole moment (field-independent basis, Debye):
    X=              0.8941    Y=             -4.7029    Z=              0.0000  Tot=              4.7871
 Quadrupole moment (field-independent basis, Debye-Ang):
   XX=             -9.6079   YY=             -9.4201   ZZ=            -15.0112
   XY=              4.4046   XZ=              0.0000   YZ=              0.0000

 138\MP4DQ=-33.8944753\MP4SDQ=-33.8966604\CCSD=-33.8975194\CCSD(T)=-33.
 Normal termination of Gaussian 16 at Sun Dec 10 06:30:14 2023.
