 Gaussian 16, Revision A.03,
 Gaussian 16:  ES64L-G16RevA.03 25-Dec-2016

 ------------------
 #p CCSD(T)/CEP-31G
 ------------------

 ------------
 H2O_H2O_4714
 ------------
 Symbolic Z-matrix:
 Charge =  0 Multiplicity = 1

                         Standard orientation:
 ---------------------------------------------------------------------
 Center     Atomic      Atomic             Coordinates (Angstroms)
 Number     Number       Type             X           Y           Z
 ---------------------------------------------------------------------
      1          8           0        0.048549    2.987472    0.000000
      2          1           0        0.047249    2.004872    0.000000
      3          1           0       -0.880521    3.307368   -0.000000
      4          8           0        0.048549   -2.807048    0.000000
      5          1           0        0.827308   -3.406248    0.000000
      6          1           0       -0.770823   -3.349388   -0.000000
 ---------------------------------------------------------------------

 SCF Done:  E(RHF) =  -33.6531531093     A.U. after   11 cycles
 E2 =    -0.2283063595D+00 EUMP2 =    -0.33881459468756D+02
 CCSD(T)
 CCSD(T)= -0.33898421079D+02

 The electronic state is 1-A'.
 Alpha  occ. eigenvalues --   -1.36218  -1.34718  -0.71857  -0.70348  -0.56031
 Alpha  occ. eigenvalues --   -0.54497  -0.50810  -0.49312
 Alpha virt. eigenvalues --    0.19622   0.21170   0.29876   0.31448   0.79742
 Alpha virt. eigenvalues --    0.81209   0.82618   0.84201   0.85794   0.87319
 Alpha virt. eigenvalues --    1.16743   1.18242   1.21188   1.22737   2.56719

 Mulliken charges:
               1
     1  O   -0.746441
     2  H    0.378128
     3  H    0.368307
     4  O   -0.745980
     5  H    0.374103
     6  H    0.371882
 Sum of Mulliken charges =  -0.00000

 Dipole moment (field-independent basis, Debye):
    X=             -2.2312    Y=             -4.2267    Z=             -0.0000  Tot=              4.7794
 Quadrupole moment (field-independent basis, Debye-Ang):
   XX=             -9.4627   YY=             -4.9130   ZZ=            -14.9914
   XY=             -7.3153   XZ=              0.0000   YZ=             -0.0000

 401\MP4DQ=-33.8927868\MP4SDQ=-33.8948109\CCSD=-33.8958636\CCSD(T)=-33.
 Normal termination of Gaussian 16 at Sun Dec 10 06:57:51 2023.
