 Gaussian 16, Revision A.03,
 Gaussian 16:  ES64L-G16RevA.03 25-Dec-2016

 ------------------
 #p CCSD(T)/CEP-31G
 ------------------

 ------------
 H2O_H2O_1944
 ------------
 Symbolic Z-matrix:
 Charge =  0 Multiplicity = 1

                         Standard orientation:
 ---------------------------------------------------------------------
 Center     Atomic      Atomic             Coordinates (Angstroms)
 Number     Number       Type             X           Y           Z
 ---------------------------------------------------------------------
      1          8           0        0.030244    1.877959    0.000000
      2          1           0        0.027269    0.895362    0.000000
      3          1           0       -0.898279    2.199438    0.000000
      4          8           0        0.030244   -1.702390    0.000000
      5          1           0        0.959739   -2.021053    0.000000
      6          1           0       -0.572639   -2.478301    0.000000
 ---------------------------------------------------------------------

 SCF Done:  E(RHF) =  -33.6591064478     A.U. after   11 cycles
 E2 =    -0.2285778485D+00 EUMP2 =    -0.33887684296336D+02
 CCSD(T)
 CCSD(T)= -0.33904546403D+02

 The electronic state is 1-A'.
 Alpha  occ. eigenvalues --   -1.37412  -1.33071  -0.73069  -0.68755  -0.57675
 Alpha  occ. eigenvalues --   -0.52933  -0.52082  -0.47741
 Alpha virt. eigenvalues --    0.18088   0.24140   0.29009   0.35529   0.78177
 Alpha virt. eigenvalues --    0.82371   0.83037   0.86287   0.88323   0.92044
 Alpha virt. eigenvalues --    1.15701   1.19867   1.20745   1.33570   2.51732

 Mulliken charges:
               1
     1  O   -0.772196
     2  H    0.406670
     3  H    0.363133
     4  O   -0.766800
     5  H    0.384551
     6  H    0.384643
 Sum of Mulliken charges =  -0.00000

 Dipole moment (field-independent basis, Debye):
    X=             -1.3610    Y=             -4.3322    Z=              0.0000  Tot=              4.5409
 Quadrupole moment (field-independent basis, Debye-Ang):
   XX=             -9.4558   YY=             -7.6727   ZZ=            -15.0031
   XY=             -5.8162   XZ=              0.0000   YZ=              0.0000

 32\MP4DQ=-33.8988286\MP4SDQ=-33.900906\CCSD=-33.9019271\CCSD(T)=-33.90
 Normal termination of Gaussian 16 at Sun Dec 10 06:55:35 2023.
