 Gaussian 16, Revision A.03,
 Gaussian 16:  ES64L-G16RevA.03 25-Dec-2016

 ------------------
 #p CCSD(T)/CEP-31G
 ------------------

 ------------
 H2O_H2O_2144
 ------------
 Symbolic Z-matrix:
 Charge =  0 Multiplicity = 1

                         Standard orientation:
 ---------------------------------------------------------------------
 Center     Atomic      Atomic             Coordinates (Angstroms)
 Number     Number       Type             X           Y           Z
 ---------------------------------------------------------------------
      1          8           0        0.030233    1.957738   -0.000000
      2          1           0        0.027384    0.975141   -0.000000
      3          1           0       -0.898332    2.279098   -0.000000
      4          8           0        0.030233   -1.782161    0.000000
      5          1           0        0.959769   -2.100704    0.000000
      6          1           0       -0.572551   -2.558150    0.000000
 ---------------------------------------------------------------------

 SCF Done:  E(RHF) =  -33.6581911177     A.U. after   11 cycles
 E2 =    -0.2285024862D+00 EUMP2 =    -0.33886693603882D+02
 CCSD(T)
 CCSD(T)= -0.33903569985D+02

 The electronic state is 1-A'.
 Alpha  occ. eigenvalues --   -1.37236  -1.33315  -0.72891  -0.68972  -0.57407
 Alpha  occ. eigenvalues --   -0.53180  -0.51895  -0.47976
 Alpha virt. eigenvalues --    0.18174   0.23702   0.29133   0.34487   0.78501
 Alpha virt. eigenvalues --    0.82661   0.82972   0.86001   0.87744   0.89610
 Alpha virt. eigenvalues --    1.15857   1.20030   1.20531   1.32276   2.52793

 Mulliken charges:
               1
     1  O   -0.768088
     2  H    0.401593
     3  H    0.364237
     4  O   -0.762375
     5  H    0.382690
     6  H    0.381943
 Sum of Mulliken charges =  -0.00000

 Dipole moment (field-independent basis, Debye):
    X=             -1.3638    Y=             -4.2976    Z=              0.0000  Tot=              4.5088
 Quadrupole moment (field-independent basis, Debye-Ang):
   XX=             -9.4595   YY=             -7.4793   ZZ=            -15.0011
   XY=             -6.0550   XZ=              0.0000   YZ=             -0.0000

 1223\MP4DQ=-33.897873\MP4SDQ=-33.8999426\CCSD=-33.9009675\CCSD(T)=-33.
 Normal termination of Gaussian 16 at Sun Dec 10 06:59:26 2023.
