 Gaussian 16, Revision A.03,
 Gaussian 16:  ES64L-G16RevA.03 25-Dec-2016

 ------------------
 #p CCSD(T)/CEP-31G
 ------------------

 ------------
 H2O_H2O_2542
 ------------
 Symbolic Z-matrix:
 Charge =  0 Multiplicity = 1

                         Standard orientation:
 ---------------------------------------------------------------------
 Center     Atomic      Atomic             Coordinates (Angstroms)
 Number     Number       Type             X           Y           Z
 ---------------------------------------------------------------------
      1          8           0        0.037468    2.119116   -0.000000
      2          1           0        0.035147    1.136518   -0.000000
      3          1           0       -0.891270    2.439978   -0.000000
      4          8           0        0.037468   -1.940171    0.000000
      5          1           0        0.917708   -2.376844    0.000000
      6          1           0       -0.661074   -2.631217    0.000000
 ---------------------------------------------------------------------

 SCF Done:  E(RHF) =  -33.6566969607     A.U. after   11 cycles
 E2 =    -0.2283969219D+00 EUMP2 =    -0.33885093882581D+02
 CCSD(T)
 CCSD(T)= -0.33901981716D+02

 The electronic state is 1-A'.
 Alpha  occ. eigenvalues --   -1.36962  -1.33652  -0.72610  -0.69282  -0.57003
 Alpha  occ. eigenvalues --   -0.53504  -0.51603  -0.48293
 Alpha virt. eigenvalues --    0.18477   0.22964   0.29322   0.33195   0.78932
 Alpha virt. eigenvalues --    0.82210   0.83831   0.84713   0.85818   0.88263
 Alpha virt. eigenvalues --    1.16119   1.19809   1.20556   1.28766   2.54548

 Mulliken charges:
               1
     1  O   -0.761113
     2  H    0.394655
     3  H    0.364793
     4  O   -0.756511
     5  H    0.380520
     6  H    0.377656
 Sum of Mulliken charges =   0.00000

 Dipole moment (field-independent basis, Debye):
    X=             -1.6992    Y=             -4.3247    Z=              0.0000  Tot=              4.6466
 Quadrupole moment (field-independent basis, Debye-Ang):
   XX=             -9.4070   YY=             -6.9617   ZZ=            -14.9983
   XY=             -6.1211   XZ=              0.0000   YZ=             -0.0000

 634\MP4DQ=-33.8963186\MP4SDQ=-33.8983712\CCSD=-33.8994023\CCSD(T)=-33.
 Normal termination of Gaussian 16 at Sun Dec 10 06:18:46 2023.
