 Gaussian 16, Revision A.03,
 Gaussian 16:  ES64L-G16RevA.03 25-Dec-2016

 ------------------
 #p CCSD(T)/CEP-31G
 ------------------

 ------------
 H2O_H2O_1945
 ------------
 Symbolic Z-matrix:
 Charge =  0 Multiplicity = 1

                         Standard orientation:
 ---------------------------------------------------------------------
 Center     Atomic      Atomic             Coordinates (Angstroms)
 Number     Number       Type             X           Y           Z
 ---------------------------------------------------------------------
      1          8           0        0.026715    1.876667    0.000000
      2          1           0        0.023572    0.894071    0.000000
      3          1           0       -0.901754    2.198305    0.000000
      4          8           0        0.026715   -1.703477    0.000000
      5          1           0        0.975017   -1.960828    0.000000
      6          1           0       -0.524270   -2.517064    0.000000
 ---------------------------------------------------------------------

 SCF Done:  E(RHF) =  -33.6590408169     A.U. after   11 cycles
 E2 =    -0.2285695905D+00 EUMP2 =    -0.33887610407350D+02
 CCSD(T)
 CCSD(T)= -0.33904478746D+02

 The electronic state is 1-A'.
 Alpha  occ. eigenvalues --   -1.37407  -1.33127  -0.73071  -0.68812  -0.57662
 Alpha  occ. eigenvalues --   -0.52991  -0.52075  -0.47798
 Alpha virt. eigenvalues --    0.18042   0.24127   0.29013   0.35459   0.78177
 Alpha virt. eigenvalues --    0.82304   0.82989   0.86234   0.88227   0.92454
 Alpha virt. eigenvalues --    1.15701   1.19814   1.20763   1.33959   2.51924

 Mulliken charges:
               1
     1  O   -0.772041
     2  H    0.405649
     3  H    0.363959
     4  O   -0.766952
     5  H    0.384019
     6  H    0.385367
 Sum of Mulliken charges =   0.00000

 Dipole moment (field-independent basis, Debye):
    X=             -1.2020    Y=             -4.2731    Z=              0.0000  Tot=              4.4389
 Quadrupole moment (field-independent basis, Debye-Ang):
   XX=             -9.5096   YY=             -7.7531   ZZ=            -15.0028
   XY=             -5.9843   XZ=              0.0000   YZ=              0.0000

 0134\MP4DQ=-33.8987592\MP4SDQ=-33.9008384\CCSD=-33.9018596\CCSD(T)=-33
 Normal termination of Gaussian 16 at Sun Dec 10 06:55:36 2023.
