 Gaussian 16, Revision A.03,
 Gaussian 16:  ES64L-G16RevA.03 25-Dec-2016

 ------------------
 #p CCSD(T)/CEP-31G
 ------------------

 -----------
 H2O_H2O_234
 -----------
 Symbolic Z-matrix:
 Charge =  0 Multiplicity = 1

                         Standard orientation:
 ---------------------------------------------------------------------
 Center     Atomic      Atomic             Coordinates (Angstroms)
 Number     Number       Type             X           Y           Z
 ---------------------------------------------------------------------
      1          8           0        0.066850    1.198452   -0.000000
      2          1           0        0.064851    0.215852   -0.000000
      3          1           0       -0.861993    1.519008   -0.000000
      4          8           0        0.066850   -1.025486    0.000000
      5          1           0        0.611091   -1.843598    0.000000
      6          1           0       -0.883547   -1.274990    0.000000
 ---------------------------------------------------------------------

 SCF Done:  E(RHF) =  -33.6249292430     A.U. after   11 cycles
 E2 =    -0.2283883205D+00 EUMP2 =    -0.33853317563487D+02
 CCSD(T)
 CCSD(T)= -0.33868401401D+02

 The electronic state is 1-A'.
 Alpha  occ. eigenvalues --   -1.43849  -1.28234  -0.79748  -0.74297  -0.57606
 Alpha  occ. eigenvalues --   -0.56225  -0.46128  -0.42378
 Alpha virt. eigenvalues --    0.16344   0.25111   0.29490   0.59703   0.73362
 Alpha virt. eigenvalues --    0.74160   0.87219   0.90685   0.94960   1.07014
 Alpha virt. eigenvalues --    1.12560   1.19849   1.25940   1.34697   2.90605

 Mulliken charges:
               1
     1  O   -0.739017
     2  H    0.358771
     3  H    0.309899
     4  O   -0.819909
     5  H    0.476556
     6  H    0.413700
 Sum of Mulliken charges =  -0.00000

 Dipole moment (field-independent basis, Debye):
    X=             -2.7230    Y=             -5.3095    Z=              0.0000  Tot=              5.9670
 Quadrupole moment (field-independent basis, Debye-Ang):
   XX=             -9.8352   YY=            -10.2680   ZZ=            -14.9589
   XY=             -3.2842   XZ=              0.0000   YZ=             -0.0000

 41\MP4DQ=-33.8622218\MP4SDQ=-33.8645628\CCSD=-33.8652448\CCSD(T)=-33.8
 Normal termination of Gaussian 16 at Sun Dec 10 06:22:39 2023.
