 Gaussian 16, Revision A.03,
 Gaussian 16:  ES64L-G16RevA.03 25-Dec-2016

 ------------------
 #p CCSD(T)/CEP-31G
 ------------------

 ------------
 H2O_H2O_4199
 ------------
 Symbolic Z-matrix:
 Charge =  0 Multiplicity = 1

                         Standard orientation:
 ---------------------------------------------------------------------
 Center     Atomic      Atomic             Coordinates (Angstroms)
 Number     Number       Type             X           Y           Z
 ---------------------------------------------------------------------
      1          8           0       -0.013481    2.766580    0.000000
      2          1           0       -0.010973    1.783982    0.000000
      3          1           0        0.915195    3.087618    0.000000
      4          8           0       -0.013481   -2.607305    0.000000
      5          1           0       -0.996079   -2.609814    0.000000
      6          1           0        0.307557   -3.535982    0.000000
 ---------------------------------------------------------------------

 SCF Done:  E(RHF) =  -33.6535945605     A.U. after   11 cycles
 E2 =    -0.2282810803D+00 EUMP2 =    -0.33881875640791D+02
 CCSD(T)
 CCSD(T)= -0.33898826994D+02

 The electronic state is 1-A'.
 Alpha  occ. eigenvalues --   -1.36310  -1.34773  -0.71954  -0.70414  -0.56146
 Alpha  occ. eigenvalues --   -0.54573  -0.50908  -0.49376
 Alpha virt. eigenvalues --    0.19490   0.21176   0.29808   0.31424   0.79645
 Alpha virt. eigenvalues --    0.81138   0.82465   0.84118   0.85637   0.87227
 Alpha virt. eigenvalues --    1.16664   1.18230   1.21099   1.22786   2.56584

 Mulliken charges:
               1
     1  O   -0.748160
     2  H    0.377956
     3  H    0.370178
     4  O   -0.747786
     5  H    0.373468
     6  H    0.374344
 Sum of Mulliken charges =   0.00000

 Dipole moment (field-independent basis, Debye):
    X=              0.6185    Y=             -3.7392    Z=              0.0000  Tot=              3.7900
 Quadrupole moment (field-independent basis, Debye-Ang):
   XX=             -9.8758   YY=             -7.1397   ZZ=            -14.9921
   XY=             10.0244   XZ=              0.0000   YZ=              0.0000

 4459\MP4DQ=-33.8931944\MP4SDQ=-33.895218\CCSD=-33.8962696\CCSD(T)=-33.
 Normal termination of Gaussian 16 at Sun Dec 10 06:48:35 2023.
