 Gaussian 16, Revision A.03,
 Gaussian 16:  ES64L-G16RevA.03 25-Dec-2016

 ------------------
 #p CCSD(T)/CEP-31G
 ------------------

 ------------
 H2O_H2O_3282
 ------------
 Symbolic Z-matrix:
 Charge =  0 Multiplicity = 1

                         Standard orientation:
 ---------------------------------------------------------------------
 Center     Atomic      Atomic             Coordinates (Angstroms)
 Number     Number       Type             X           Y           Z
 ---------------------------------------------------------------------
      1          8           0        0.073534    2.411749    0.000000
      2          1           0        0.072826    1.429148    0.000000
      3          1           0       -0.855729    2.731085    0.000000
      4          8           0        0.073534   -2.244804   -0.000000
      5          1           0        0.507492   -3.126386   -0.000000
      6          1           0       -0.901137   -2.369403   -0.000000
 ---------------------------------------------------------------------

 SCF Done:  E(RHF) =  -33.6537374505     A.U. after   11 cycles
 E2 =    -0.2283419188D+00 EUMP2 =    -0.33882079369303D+02
 CCSD(T)
 CCSD(T)= -0.33899026907D+02

 The electronic state is 1-A'.
 Alpha  occ. eigenvalues --   -1.36625  -1.34420  -0.72279  -0.70028  -0.56476
 Alpha  occ. eigenvalues --   -0.54197  -0.51222  -0.49014
 Alpha virt. eigenvalues --    0.18841   0.21786   0.29446   0.31907   0.79350
 Alpha virt. eigenvalues --    0.81493   0.82303   0.84537   0.85320   0.87816
 Alpha virt. eigenvalues --    1.16329   1.18753   1.20730   1.24474   2.56340

 Mulliken charges:
               1
     1  O   -0.748813
     2  H    0.383678
     3  H    0.364752
     4  O   -0.748316
     5  H    0.378047
     6  H    0.370651
 Sum of Mulliken charges =  -0.00000

 Dipole moment (field-independent basis, Debye):
    X=             -3.3636    Y=             -3.9697    Z=             -0.0000  Tot=              5.2031
 Quadrupole moment (field-independent basis, Debye-Ang):
   XX=            -10.1706   YY=             -7.0933   ZZ=            -14.9922
   XY=             -4.3041   XZ=             -0.0000   YZ=              0.0000

 9\MP4DQ=-33.8933848\MP4SDQ=-33.8954169\CCSD=-33.8964625\CCSD(T)=-33.89
 Normal termination of Gaussian 16 at Sun Dec 10 06:32:08 2023.
