 Gaussian 16, Revision A.03,
 Gaussian 16:  ES64L-G16RevA.03 25-Dec-2016

 ------------------
 #p CCSD(T)/CEP-31G
 ------------------

 ------------
 H2O_H2O_1014
 ------------
 Symbolic Z-matrix:
 Charge =  0 Multiplicity = 1

                         Standard orientation:
 ---------------------------------------------------------------------
 Center     Atomic      Atomic             Coordinates (Angstroms)
 Number     Number       Type             X           Y           Z
 ---------------------------------------------------------------------
      1          8           0        0.048673    1.511562   -0.000000
      2          1           0        0.046024    0.528964   -0.000000
      3          1           0       -0.879957    1.832734   -0.000000
      4          8           0        0.048673   -1.331271    0.000000
      5          1           0        0.826608   -1.931541    0.000000
      6          1           0       -0.771444   -1.872486    0.000000
 ---------------------------------------------------------------------

 SCF Done:  E(RHF) =  -33.6628790672     A.U. after   11 cycles
 E2 =    -0.2291098692D+00 EUMP2 =    -0.33891988936334D+02
 CCSD(T)
 CCSD(T)= -0.33908421940D+02

 The electronic state is 1-A'.
 Alpha  occ. eigenvalues --   -1.38955  -1.31139  -0.74513  -0.68253  -0.59264
 Alpha  occ. eigenvalues --   -0.53694  -0.50675  -0.45772
 Alpha virt. eigenvalues --    0.17587   0.26539   0.27945   0.45411   0.75528
 Alpha virt. eigenvalues --    0.77242   0.85567   0.86485   0.95505   0.99828
 Alpha virt. eigenvalues --    1.14919   1.19071   1.22408   1.35482   2.52814

 Mulliken charges:
               1
     1  O   -0.785088
     2  H    0.436666
     3  H    0.346592
     4  O   -0.808908
     5  H    0.411504
     6  H    0.399234
 Sum of Mulliken charges =  -0.00000

 Dipole moment (field-independent basis, Debye):
    X=             -2.1285    Y=             -4.7333    Z=              0.0000  Tot=              5.1899
 Quadrupole moment (field-independent basis, Debye-Ang):
   XX=             -9.4163   YY=             -8.7741   ZZ=            -15.0175
   XY=             -4.2296   XZ=              0.0000   YZ=             -0.0000

 43\MP4DQ=-33.9025716\MP4SDQ=-33.9046875\CCSD=-33.9056232\CCSD(T)=-33.9
 Normal termination of Gaussian 16 at Sun Dec 10 06:37:35 2023.
