 Gaussian 16, Revision A.03,
 Gaussian 16:  ES64L-G16RevA.03 25-Dec-2016

 ------------------
 #p CCSD(T)/CEP-31G
 ------------------

 ------------
 H2O_H2O_1844
 ------------
 Symbolic Z-matrix:
 Charge =  0 Multiplicity = 1

                         Standard orientation:
 ---------------------------------------------------------------------
 Center     Atomic      Atomic             Coordinates (Angstroms)
 Number     Number       Type             X           Y           Z
 ---------------------------------------------------------------------
      1          8           0        0.030250    1.838069   -0.000000
      2          1           0        0.027207    0.855473   -0.000000
      3          1           0       -0.898251    2.159613   -0.000000
      4          8           0        0.030250   -1.662505    0.000000
      5          1           0        0.959723   -1.981232    0.000000
      6          1           0       -0.572686   -2.438373    0.000000
 ---------------------------------------------------------------------

 SCF Done:  E(RHF) =  -33.6596108657     A.U. after   11 cycles
 E2 =    -0.2286195025D+00 EUMP2 =    -0.33888230368200D+02
 CCSD(T)
 CCSD(T)= -0.33905081031D+02

 The electronic state is 1-A'.
 Alpha  occ. eigenvalues --   -1.37511  -1.32935  -0.73170  -0.68641  -0.57828
 Alpha  occ. eigenvalues --   -0.52790  -0.52187  -0.47609
 Alpha virt. eigenvalues --    0.18049   0.24371   0.28937   0.36165   0.77982
 Alpha virt. eigenvalues --    0.82002   0.83265   0.86372   0.88633   0.93558
 Alpha virt. eigenvalues --    1.15616   1.19724   1.20894   1.34053   2.51227

 Mulliken charges:
               1
     1  O   -0.774370
     2  H    0.409488
     3  H    0.362484
     4  O   -0.769597
     5  H    0.385647
     6  H    0.386348
 Sum of Mulliken charges =  -0.00000

 Dipole moment (field-independent basis, Debye):
    X=             -1.3595    Y=             -4.3517    Z=              0.0000  Tot=              4.5591
 Quadrupole moment (field-independent basis, Debye-Ang):
   XX=             -9.4536   YY=             -7.7734   ZZ=            -15.0042
   XY=             -5.6957   XZ=              0.0000   YZ=             -0.0000

 6102\MP4DQ=-33.8993519\MP4SDQ=-33.9014331\CCSD=-33.9024516\CCSD(T)=-33
 Normal termination of Gaussian 16 at Sun Dec 10 06:53:41 2023.
