 Gaussian 16, Revision A.03,
 Gaussian 16:  ES64L-G16RevA.03 25-Dec-2016

 ------------------
 #p CCSD(T)/CEP-31G
 ------------------

 ------------
 H2O_H2O_2260
 ------------
 Symbolic Z-matrix:
 Charge =  0 Multiplicity = 1

                         Standard orientation:
 ---------------------------------------------------------------------
 Center     Atomic      Atomic             Coordinates (Angstroms)
 Number     Number       Type             X           Y           Z
 ---------------------------------------------------------------------
      1          8           0        0.063254    2.007540    0.000000
      2          1           0        0.061940    1.024939    0.000000
      3          1           0       -0.865812    2.327449    0.000000
      4          8           0        0.063254   -1.832058   -0.000000
      5          1           0        0.660382   -2.612407   -0.000000
      6          1           0       -0.868572   -2.143836   -0.000000
 ---------------------------------------------------------------------

 SCF Done:  E(RHF) =  -33.6565784800     A.U. after   11 cycles
 E2 =    -0.2285244743D+00 EUMP2 =    -0.33885102954252D+02
 CCSD(T)
 CCSD(T)= -0.33902013491D+02

 The electronic state is 1-A'.
 Alpha  occ. eigenvalues --   -1.37189  -1.33537  -0.72851  -0.69144  -0.57247
 Alpha  occ. eigenvalues --   -0.53349  -0.51823  -0.48162
 Alpha virt. eigenvalues --    0.18118   0.23326   0.29075   0.33878   0.78640
 Alpha virt. eigenvalues --    0.82434   0.83542   0.85316   0.87531   0.88688
 Alpha virt. eigenvalues --    1.15835   1.19926   1.20355   1.31360   2.53345

 Mulliken charges:
               1
     1  O   -0.761335
     2  H    0.398804
     3  H    0.360507
     4  O   -0.757202
     5  H    0.384501
     6  H    0.374726
 Sum of Mulliken charges =  -0.00000

 Dipole moment (field-independent basis, Debye):
    X=             -2.8654    Y=             -4.2838    Z=             -0.0000  Tot=              5.1538
 Quadrupole moment (field-independent basis, Debye-Ang):
   XX=             -9.7778   YY=             -7.3866   ZZ=            -14.9977
   XY=             -4.5450   XZ=             -0.0000   YZ=              0.0000

 8\MP4DQ=-33.8963195\MP4SDQ=-33.8983875\CCSD=-33.8994161\CCSD(T)=-33.90
 Normal termination of Gaussian 16 at Sun Dec 10 07:02:49 2023.
