 Gaussian 16, Revision A.03,
 Gaussian 16:  ES64L-G16RevA.03 25-Dec-2016

 ------------------
 #p CCSD(T)/CEP-31G
 ------------------

 -----------
 H2O_H2O_820
 -----------
 Symbolic Z-matrix:
 Charge =  0 Multiplicity = 1

                         Standard orientation:
 ---------------------------------------------------------------------
 Center     Atomic      Atomic             Coordinates (Angstroms)
 Number     Number       Type             X           Y           Z
 ---------------------------------------------------------------------
      1          8           0        0.026807    1.427905   -0.000000
      2          1           0        0.022613    0.445312   -0.000000
      3          1           0       -0.901317    1.750536   -0.000000
      4          8           0        0.026807   -1.254772    0.000000
      5          1           0        0.974833   -1.513138    0.000000
      6          1           0       -0.525047   -2.067769    0.000000
 ---------------------------------------------------------------------

 SCF Done:  E(RHF) =  -33.6616140133     A.U. after   11 cycles
 E2 =    -0.2287745795D+00 EUMP2 =    -0.33890388592721D+02
 CCSD(T)
 CCSD(T)= -0.33906637481D+02

 The electronic state is 1-A'.
 Alpha  occ. eigenvalues --   -1.39573  -1.30632  -0.75309  -0.68657  -0.59425
 Alpha  occ. eigenvalues --   -0.54263  -0.49987  -0.45261
 Alpha virt. eigenvalues --    0.17513   0.27147   0.27585   0.48452   0.74844
 Alpha virt. eigenvalues --    0.76472   0.86259   0.87444   0.93893   1.03864
 Alpha virt. eigenvalues --    1.16134   1.19081   1.23954   1.37112   2.57646

 Mulliken charges:
               1
     1  O   -0.783029
     2  H    0.423717
     3  H    0.349917
     4  O   -0.824842
     5  H    0.406565
     6  H    0.427672
 Sum of Mulliken charges =   0.00000

 Dipole moment (field-independent basis, Debye):
    X=             -1.1897    Y=             -4.6850    Z=              0.0000  Tot=              4.8337
 Quadrupole moment (field-independent basis, Debye-Ang):
   XX=             -9.4663   YY=             -9.0948   ZZ=            -15.0183
   XY=             -4.4902   XZ=              0.0000   YZ=             -0.0000

 8\MP4DQ=-33.9007487\MP4SDQ=-33.90289\CCSD=-33.903794\CCSD(T)=-33.90663
 Normal termination of Gaussian 16 at Sun Dec 10 06:33:56 2023.
