 Gaussian 16, Revision A.03,
 Gaussian 16:  ES64L-G16RevA.03 25-Dec-2016

 ------------------
 #p CCSD(T)/CEP-31G
 ------------------

 ------------
 H2O_H2O_3810
 ------------
 Symbolic Z-matrix:
 Charge =  0 Multiplicity = 1

                         Standard orientation:
 ---------------------------------------------------------------------
 Center     Atomic      Atomic             Coordinates (Angstroms)
 Number     Number       Type             X           Y           Z
 ---------------------------------------------------------------------
      1          8           0        0.063225    2.625820   -0.000000
      2          1           0        0.062232    1.643219   -0.000000
      3          1           0       -0.865945    2.945426    0.000000
      4          8           0        0.063225   -2.450297   -0.000000
      5          1           0        0.660607   -3.230451   -0.000000
      6          1           0       -0.868500   -2.762379    0.000000
 ---------------------------------------------------------------------

 SCF Done:  E(RHF) =  -33.6535750064     A.U. after   11 cycles
 E2 =    -0.2283059987D+00 EUMP2 =    -0.33881881005090D+02
 CCSD(T)
 CCSD(T)= -0.33898830409D+02

 The electronic state is 1-A'.
 Alpha  occ. eigenvalues --   -1.36431  -1.34501  -0.72076  -0.70120  -0.56271
 Alpha  occ. eigenvalues --   -0.54284  -0.51028  -0.49097
 Alpha virt. eigenvalues --    0.19327   0.21494   0.29671   0.31744   0.79534
 Alpha virt. eigenvalues --    0.81412   0.82322   0.84438   0.85526   0.87598
 Alpha virt. eigenvalues --    1.16547   1.18516   1.20963   1.23272   2.56516

 Mulliken charges:
               1
     1  O   -0.748108
     2  H    0.381597
     3  H    0.366401
     4  O   -0.747569
     5  H    0.376182
     6  H    0.371497
 Sum of Mulliken charges =  -0.00000

 Dipole moment (field-independent basis, Debye):
    X=             -2.8978    Y=             -4.1423    Z=              0.0000  Tot=              5.0553
 Quadrupole moment (field-independent basis, Debye-Ang):
   XX=             -9.7761   YY=             -6.0993   ZZ=            -14.9921
   XY=             -5.4044   XZ=             -0.0000   YZ=              0.0000

 1\MP4DQ=-33.8931962\MP4SDQ=-33.8952217\CCSD=-33.8962715\CCSD(T)=-33.89
 Normal termination of Gaussian 16 at Sun Dec 10 06:41:34 2023.
