 Gaussian 16, Revision A.03,
 Gaussian 16:  ES64L-G16RevA.03 25-Dec-2016

 ------------------
 #p CCSD(T)/CEP-31G
 ------------------

 ------------
 H2O_H2O_1343
 ------------
 Symbolic Z-matrix:
 Charge =  0 Multiplicity = 1

                         Standard orientation:
 ---------------------------------------------------------------------
 Center     Atomic      Atomic             Coordinates (Angstroms)
 Number     Number       Type             X           Y           Z
 ---------------------------------------------------------------------
      1          8           0        0.033882    1.639657    0.000000
      2          1           0        0.030645    0.657061    0.000000
      3          1           0       -0.894556    1.961385    0.000000
      4          8           0        0.033882   -1.462205    0.000000
      5          1           0        0.940444   -1.841219    0.000000
      6          1           0       -0.618653   -2.196849    0.000000
 ---------------------------------------------------------------------

 SCF Done:  E(RHF) =  -33.6623982386     A.U. after   11 cycles
 E2 =    -0.2288670340D+00 EUMP2 =    -0.33891265272546D+02
 CCSD(T)
 CCSD(T)= -0.33907959556D+02

 The electronic state is 1-A'.
 Alpha  occ. eigenvalues --   -1.38195  -1.32000  -0.73842  -0.68079  -0.58781
 Alpha  occ. eigenvalues --   -0.52914  -0.51752  -0.46682
 Alpha virt. eigenvalues --    0.17860   0.25651   0.28444   0.40814   0.76646
 Alpha virt. eigenvalues --    0.79467   0.84935   0.86306   0.91422   1.00605
 Alpha virt. eigenvalues --    1.15216   1.18844   1.21914   1.34702   2.50033

 Mulliken charges:
               1
     1  O   -0.784632
     2  H    0.426088
     3  H    0.356667
     4  O   -0.790614
     5  H    0.394654
     6  H    0.397837
 Sum of Mulliken charges =   0.00000

 Dipole moment (field-independent basis, Debye):
    X=             -1.5103    Y=             -4.5298    Z=              0.0000  Tot=              4.7749
 Quadrupole moment (field-independent basis, Debye-Ang):
   XX=             -9.3995   YY=             -8.3073   ZZ=            -15.0124
   XY=             -4.9580   XZ=              0.0000   YZ=              0.0000

 457\MP4DQ=-33.9021685\MP4SDQ=-33.9042648\CCSD=-33.905253\CCSD(T)=-33.9
 Normal termination of Gaussian 16 at Sun Dec 10 06:43:57 2023.
