 Gaussian 16, Revision A.03,
 Gaussian 16:  ES64L-G16RevA.03 25-Dec-2016

 ------------------
 #p CCSD(T)/CEP-31G
 ------------------

 ------------
 H2O_H2O_4957
 ------------
 Symbolic Z-matrix:
 Charge =  0 Multiplicity = 1

                         Standard orientation:
 ---------------------------------------------------------------------
 Center     Atomic      Atomic             Coordinates (Angstroms)
 Number     Number       Type             X           Y           Z
 ---------------------------------------------------------------------
      1          8           0        0.073521    3.079880   -0.000000
      2          1           0        0.072971    2.097279   -0.000000
      3          1           0       -0.855794    3.399067   -0.000000
      4          8           0        0.073521   -2.912912    0.000000
      5          1           0        0.507621   -3.794424    0.000000
      6          1           0       -0.901130   -3.037667    0.000000
 ---------------------------------------------------------------------

 SCF Done:  E(RHF) =  -33.6525802161     A.U. after   11 cycles
 E2 =    -0.2283321162D+00 EUMP2 =    -0.33880912332314D+02
 CCSD(T)
 CCSD(T)= -0.33897890407D+02

 The electronic state is 1-A'.
 Alpha  occ. eigenvalues --   -1.36195  -1.34921  -0.71837  -0.70546  -0.55976
 Alpha  occ. eigenvalues --   -0.54678  -0.50778  -0.49504
 Alpha virt. eigenvalues --    0.19611   0.20931   0.29866   0.31194   0.79777
 Alpha virt. eigenvalues --    0.81028   0.82713   0.84033   0.85831   0.87172
 Alpha virt. eigenvalues --    1.16742   1.18013   1.21190   1.22502   2.56736

 Mulliken charges:
               1
     1  O   -0.744231
     2  H    0.376341
     3  H    0.367888
     4  O   -0.744171
     5  H    0.373980
     6  H    0.370192
 Sum of Mulliken charges =  -0.00000

 Dipole moment (field-independent basis, Debye):
    X=             -3.3833    Y=             -3.9084    Z=              0.0000  Tot=              5.1694
 Quadrupole moment (field-independent basis, Debye-Ang):
   XX=            -10.1645   YY=             -6.0191   ZZ=            -14.9900
   XY=             -4.9110   XZ=              0.0000   YZ=             -0.0000

 5077\MP4DQ=-33.8922518\MP4SDQ=-33.8942773\CCSD=-33.8953313\CCSD(T)=-33
 Normal termination of Gaussian 16 at Sun Dec 10 07:03:31 2023.
