 Gaussian 16, Revision A.03,
 Gaussian 16:  ES64L-G16RevA.03 25-Dec-2016

 ------------------
 #p CCSD(T)/CEP-31G
 ------------------

 ------------
 H2O_H2O_2679
 ------------
 Symbolic Z-matrix:
 Charge =  0 Multiplicity = 1

                         Standard orientation:
 ---------------------------------------------------------------------
 Center     Atomic      Atomic             Coordinates (Angstroms)
 Number     Number       Type             X           Y           Z
 ---------------------------------------------------------------------
      1          8           0        0.082806   -2.165669    0.000000
      2          1           0        0.082394   -1.183068    0.000000
      3          1           0       -0.846553   -2.484726    0.000000
      4          8           0        0.082806    2.011157    0.000000
      5          1           0        0.336724    2.960384    0.000000
      6          1           0       -0.897465    1.943508    0.000000
 ---------------------------------------------------------------------

 SCF Done:  E(RHF) =  -33.6538155890     A.U. after   11 cycles
 E2 =    -0.2284613458D+00 EUMP2 =    -0.33882276934788D+02
 CCSD(T)
 CCSD(T)= -0.33899241829D+02

 The electronic state is 1-A'.
 Alpha  occ. eigenvalues --   -1.36941  -1.34365  -0.72619  -0.69952  -0.56805
 Alpha  occ. eigenvalues --   -0.54123  -0.51534  -0.48951
 Alpha virt. eigenvalues --    0.17817   0.22443   0.29167   0.32245   0.79024
 Alpha virt. eigenvalues --    0.81595   0.82904   0.84608   0.85953   0.88027
 Alpha virt. eigenvalues --    1.15841   1.19109   1.20501   1.28509   2.55787

 Mulliken charges:
               1
     1  O   -0.749747
     2  H    0.386367
     3  H    0.362369
     4  O   -0.748999
     5  H    0.380996
     6  H    0.369014
 Sum of Mulliken charges =  -0.00000

 Dipole moment (field-independent basis, Debye):
    X=             -3.7763    Y=              3.7222    Z=              0.0000  Tot=              5.3023
 Quadrupole moment (field-independent basis, Debye-Ang):
   XX=            -10.6512   YY=             -8.1990   ZZ=            -14.9915
   XY=              3.3387   XZ=              0.0000   YZ=              0.0000

 8254\MP4DQ=-33.8935699\MP4SDQ=-33.8956222\CCSD=-33.8966601\CCSD(T)=-33
 Normal termination of Gaussian 16 at Sun Dec 10 06:21:14 2023.
