 Gaussian 16, Revision A.03,
 Gaussian 16:  ES64L-G16RevA.03 25-Dec-2016

 ------------------
 #p CCSD(T)/CEP-31G
 ------------------

 ------------
 H2O_H2O_1393
 ------------
 Symbolic Z-matrix:
 Charge =  0 Multiplicity = 1

                         Standard orientation:
 ---------------------------------------------------------------------
 Center     Atomic      Atomic             Coordinates (Angstroms)
 Number     Number       Type             X           Y           Z
 ---------------------------------------------------------------------
      1          8           0        0.033879    1.659603   -0.000000
      2          1           0        0.030682    0.677006   -0.000000
      3          1           0       -0.894573    1.981291   -0.000000
      4          8           0        0.033879   -1.482147    0.000000
      5          1           0        0.940457   -1.861123    0.000000
      6          1           0       -0.618627   -2.216819    0.000000
 ---------------------------------------------------------------------

 SCF Done:  E(RHF) =  -33.6621422537     A.U. after   11 cycles
 E2 =    -0.2288450737D+00 EUMP2 =    -0.33890987327408D+02
 CCSD(T)
 CCSD(T)= -0.33907706285D+02

 The electronic state is 1-A'.
 Alpha  occ. eigenvalues --   -1.38109  -1.32108  -0.73757  -0.68114  -0.58679
 Alpha  occ. eigenvalues --   -0.52823  -0.51878  -0.46790
 Alpha virt. eigenvalues --    0.17886   0.25516   0.28504   0.40240   0.76805
 Alpha virt. eigenvalues --    0.79771   0.84733   0.86333   0.91095   1.00005
 Alpha virt. eigenvalues --    1.15228   1.18947   1.21780   1.34622   2.49931

 Mulliken charges:
               1
     1  O   -0.783815
     2  H    0.424619
     3  H    0.357312
     4  O   -0.787906
     5  H    0.393576
     6  H    0.396214
 Sum of Mulliken charges =  -0.00000

 Dipole moment (field-independent basis, Debye):
    X=             -1.5116    Y=             -4.5133    Z=              0.0000  Tot=              4.7597
 Quadrupole moment (field-independent basis, Debye-Ang):
   XX=             -9.4016   YY=             -8.2425   ZZ=            -15.0114
   XY=             -5.0173   XZ=              0.0000   YZ=             -0.0000

 207\MP4DQ=-33.9019223\MP4SDQ=-33.9040166\CCSD=-33.9050098\CCSD(T)=-33.
 Normal termination of Gaussian 16 at Sun Dec 10 06:44:57 2023.
