 Gaussian 16, Revision A.03,
 Gaussian 16:  ES64L-G16RevA.03 25-Dec-2016

 ------------------
 #p CCSD(T)/CEP-31G
 ------------------

 ------------
 H2O_H2O_3381
 ------------
 Symbolic Z-matrix:
 Charge =  0 Multiplicity = 1

                         Standard orientation:
 ---------------------------------------------------------------------
 Center     Atomic      Atomic             Coordinates (Angstroms)
 Number     Number       Type             X           Y           Z
 ---------------------------------------------------------------------
      1          8           0        0.076756    2.449609    0.000000
      2          1           0        0.076176    1.467008    0.000000
      3          1           0       -0.852549    2.768824    0.000000
      4          8           0        0.076756   -2.286396   -0.000000
      5          1           0        0.452245   -3.194425   -0.000000
      6          1           0       -0.903968   -2.347109   -0.000000
 ---------------------------------------------------------------------

 SCF Done:  E(RHF) =  -33.6534368909     A.U. after   11 cycles
 E2 =    -0.2283413492D+00 EUMP2 =    -0.33881778240116D+02
 CCSD(T)
 CCSD(T)= -0.33898733756D+02

 The electronic state is 1-A'.
 Alpha  occ. eigenvalues --   -1.36591  -1.34525  -0.72246  -0.70133  -0.56425
 Alpha  occ. eigenvalues --   -0.54294  -0.51184  -0.49115
 Alpha virt. eigenvalues --    0.18876   0.21654   0.29471   0.31763   0.79389
 Alpha virt. eigenvalues --    0.81397   0.82282   0.84429   0.85359   0.87726
 Alpha virt. eigenvalues --    1.16342   1.18616   1.20758   1.24090   2.56373

 Mulliken charges:
               1
     1  O   -0.747634
     2  H    0.382360
     3  H    0.364989
     4  O   -0.747435
     5  H    0.377664
     6  H    0.370056
 Sum of Mulliken charges =   0.00000

 Dipole moment (field-independent basis, Debye):
    X=             -3.5137    Y=             -3.8746    Z=             -0.0000  Tot=              5.2306
 Quadrupole moment (field-independent basis, Debye-Ang):
   XX=            -10.3221   YY=             -7.2929   ZZ=            -14.9915
   XY=             -4.0561   XZ=             -0.0000   YZ=              0.0000

 53\MP4DQ=-33.893092\MP4SDQ=-33.8951227\CCSD=-33.89617\CCSD(T)=-33.8987
 Normal termination of Gaussian 16 at Sun Dec 10 06:33:54 2023.
