 Gaussian 16, Revision A.03,
 Gaussian 16:  ES64L-G16RevA.03 25-Dec-2016

 ------------------
 #p CCSD(T)/CEP-31G
 ------------------

 ------------
 H2O_H2O_4312
 ------------
 Symbolic Z-matrix:
 Charge =  0 Multiplicity = 1

                         Standard orientation:
 ---------------------------------------------------------------------
 Center     Atomic      Atomic             Coordinates (Angstroms)
 Number     Number       Type             X           Y           Z
 ---------------------------------------------------------------------
      1          8           0        0.055968    2.827112    0.000000
      2          1           0        0.054822    1.844511    0.000000
      3          1           0       -0.873153    3.146862    0.000000
      4          8           0        0.055968   -2.648177   -0.000000
      5          1           0        0.749961   -3.343790   -0.000000
      6          1           0       -0.827118   -3.079067   -0.000000
 ---------------------------------------------------------------------

 SCF Done:  E(RHF) =  -33.6533128712     A.U. after   11 cycles
 E2 =    -0.2283031135D+00 EUMP2 =    -0.33881615984621D+02
 CCSD(T)
 CCSD(T)= -0.33898572908D+02

 The electronic state is 1-A'.
 Alpha  occ. eigenvalues --   -1.36300  -1.34625  -0.71941  -0.70250  -0.56124
 Alpha  occ. eigenvalues --   -0.54405  -0.50894  -0.49219
 Alpha virt. eigenvalues --    0.19528   0.21294   0.29802   0.31571   0.79661
 Alpha virt. eigenvalues --    0.81297   0.82500   0.84297   0.85694   0.87425
 Alpha virt. eigenvalues --    1.16668   1.18347   1.21108   1.22885   2.56634

 Mulliken charges:
               1
     1  O   -0.747082
     2  H    0.379526
     3  H    0.367532
     4  O   -0.746585
     5  H    0.374904
     6  H    0.371704
 Sum of Mulliken charges =   0.00000

 Dipole moment (field-independent basis, Debye):
    X=             -2.5695    Y=             -4.2031    Z=             -0.0000  Tot=              4.9263
 Quadrupole moment (field-independent basis, Debye-Ang):
   XX=             -9.5848   YY=             -5.4037   ZZ=            -14.9917
   XY=             -6.3374   XZ=             -0.0000   YZ=              0.0000

 92\MP4DQ=-33.8929392\MP4SDQ=-33.8949634\CCSD=-33.8960152\CCSD(T)=-33.8
 Normal termination of Gaussian 16 at Sun Dec 10 06:50:37 2023.
