 Gaussian 16, Revision A.03,
 Gaussian 16:  ES64L-G16RevA.03 25-Dec-2016

 ------------------
 #p CCSD(T)/CEP-31G
 ------------------

 ------------
 H2O_H2O_4921
 ------------
 Symbolic Z-matrix:
 Charge =  0 Multiplicity = 1

                         Standard orientation:
 ---------------------------------------------------------------------
 Center     Atomic      Atomic             Coordinates (Angstroms)
 Number     Number       Type             X           Y           Z
 ---------------------------------------------------------------------
      1          8           0       -0.023155    3.061815    0.000000
      2          1           0       -0.021167    2.079215    0.000000
      3          1           0        0.905691    3.382361    0.000000
      4          8           0       -0.023155   -2.891398    0.000000
      5          1           0       -0.986487   -3.085044    0.000000
      6          1           0        0.472442   -3.739861    0.000000
 ---------------------------------------------------------------------

 SCF Done:  E(RHF) =  -33.6531579137     A.U. after   11 cycles
 E2 =    -0.2283014755D+00 EUMP2 =    -0.33881459389213D+02
 CCSD(T)
 CCSD(T)= -0.33898421720D+02

 The electronic state is 1-A'.
 Alpha  occ. eigenvalues --   -1.36177  -1.34845  -0.71816  -0.70482  -0.55987
 Alpha  occ. eigenvalues --   -0.54629  -0.50769  -0.49440
 Alpha virt. eigenvalues --    0.19668   0.21030   0.29920   0.31305   0.79781
 Alpha virt. eigenvalues --    0.81083   0.82669   0.84069   0.85829   0.87166
 Alpha virt. eigenvalues --    1.16784   1.18118   1.21229   1.22596   2.56762

 Mulliken charges:
               1
     1  O   -0.746436
     2  H    0.376717
     3  H    0.369718
     4  O   -0.746052
     5  H    0.373154
     6  H    0.372901
 Sum of Mulliken charges =  -0.00000

 Dipole moment (field-independent basis, Debye):
    X=              1.0644    Y=             -3.9857    Z=              0.0000  Tot=              4.1254
 Quadrupole moment (field-independent basis, Debye-Ang):
   XX=             -9.5994   YY=             -5.6775   ZZ=            -14.9913
   XY=             10.0124   XZ=              0.0000   YZ=              0.0000

 405\MP4DQ=-33.8927873\MP4SDQ=-33.8948113\CCSD=-33.8958643\CCSD(T)=-33.
 Normal termination of Gaussian 16 at Sun Dec 10 07:02:28 2023.
