 Gaussian 16, Revision A.03,
 Gaussian 16:  ES64L-G16RevA.03 25-Dec-2016

 ------------------
 #p CCSD(T)/CEP-31G
 ------------------

 ------------
 H2O_H2O_1666
 ------------
 Symbolic Z-matrix:
 Charge =  0 Multiplicity = 1

                         Standard orientation:
 ---------------------------------------------------------------------
 Center     Atomic      Atomic             Coordinates (Angstroms)
 Number     Number       Type             X           Y           Z
 ---------------------------------------------------------------------
      1          8           0        0.041202    1.770601    0.000000
      2          1           0        0.038586    0.788004    0.000000
      3          1           0       -0.887439    2.091742    0.000000
      4          8           0        0.041202   -1.590734   -0.000000
      5          1           0        0.890849   -2.084298   -0.000000
      6          1           0       -0.701234   -2.234390   -0.000000
 ---------------------------------------------------------------------

 SCF Done:  E(RHF) =  -33.6605273373     A.U. after   11 cycles
 E2 =    -0.2287437582D+00 EUMP2 =    -0.33889271095461D+02
 CCSD(T)
 CCSD(T)= -0.33906076732D+02

 The electronic state is 1-A'.
 Alpha  occ. eigenvalues --   -1.37725  -1.32575  -0.73368  -0.68343  -0.58150
 Alpha  occ. eigenvalues --   -0.52417  -0.52398  -0.47246
 Alpha virt. eigenvalues --    0.18027   0.24802   0.28769   0.37635   0.77581
 Alpha virt. eigenvalues --    0.81346   0.83820   0.86254   0.90043   0.94940
 Alpha virt. eigenvalues --    1.15409   1.19742   1.21019   1.33738   2.50093

 Mulliken charges:
               1
     1  O   -0.777782
     2  H    0.417264
     3  H    0.358544
     4  O   -0.774674
     5  H    0.390260
     6  H    0.386388
 Sum of Mulliken charges =  -0.00000

 Dipole moment (field-independent basis, Debye):
    X=             -1.8448    Y=             -4.4970    Z=             -0.0000  Tot=              4.8607
 Quadrupole moment (field-independent basis, Debye-Ang):
   XX=             -9.3898   YY=             -7.8557   ZZ=            -15.0067
   XY=             -5.0621   XZ=             -0.0000   YZ=              0.0000

 5987\MP4DQ=-33.9003297\MP4SDQ=-33.9024125\CCSD=-33.9034238\CCSD(T)=-33
 Normal termination of Gaussian 16 at Sun Dec 10 06:50:21 2023.
