 Gaussian 16, Revision A.03,
 Gaussian 16:  ES64L-G16RevA.03 25-Dec-2016

 ------------------
 #p CCSD(T)/CEP-31G
 ------------------

 ------------
 H2O_H2O_3663
 ------------
 Symbolic Z-matrix:
 Charge =  0 Multiplicity = 1

                         Standard orientation:
 ---------------------------------------------------------------------
 Center     Atomic      Atomic             Coordinates (Angstroms)
 Number     Number       Type             X           Y           Z
 ---------------------------------------------------------------------
      1          8           0        0.052286    2.568370    0.000000
      2          1           0        0.050894    1.585769    0.000000
      3          1           0       -0.876754    2.888353    0.000000
      4          8           0        0.052286   -2.388465   -0.000000
      5          1           0        0.790127   -3.037385   -0.000000
      6          1           0       -0.800849   -2.875975   -0.000000
 ---------------------------------------------------------------------

 SCF Done:  E(RHF) =  -33.6540397110     A.U. after   11 cycles
 E2 =    -0.2282950994D+00 EUMP2 =    -0.33882334810351D+02
 CCSD(T)
 CCSD(T)= -0.33899271010D+02

 The electronic state is 1-A'.
 Alpha  occ. eigenvalues --   -1.36466  -1.34367  -0.72109  -0.69990  -0.56332
 Alpha  occ. eigenvalues --   -0.54166  -0.51070  -0.48972
 Alpha virt. eigenvalues --    0.19295   0.21669   0.29674   0.31900   0.79492
 Alpha virt. eigenvalues --    0.81528   0.82257   0.84559   0.85487   0.87690
 Alpha virt. eigenvalues --    1.16532   1.18694   1.20962   1.23521   2.56498

 Mulliken charges:
               1
     1  O   -0.749892
     2  H    0.383097
     3  H    0.366615
     4  O   -0.748921
     5  H    0.376388
     6  H    0.372713
 Sum of Mulliken charges =   0.00000

 Dipole moment (field-independent basis, Debye):
    X=             -2.3937    Y=             -4.2520    Z=             -0.0000  Tot=              4.8794
 Quadrupole moment (field-independent basis, Debye-Ang):
   XX=             -9.5139   YY=             -5.9024   ZZ=            -14.9931
   XY=             -6.1723   XZ=             -0.0000   YZ=              0.0000

 8886\MP4DQ=-33.8936387\MP4SDQ=-33.8956646\CCSD=-33.8967125\CCSD(T)=-33
 Normal termination of Gaussian 16 at Sun Dec 10 06:38:54 2023.
