 Gaussian 16, Revision A.03,
 Gaussian 16:  ES64L-G16RevA.03 25-Dec-2016

 ------------------
 #p CCSD(T)/CEP-31G
 ------------------

 -----------
 H2O_H2O_549
 -----------
 Symbolic Z-matrix:
 Charge =  0 Multiplicity = 1

                         Standard orientation:
 ---------------------------------------------------------------------
 Center     Atomic      Atomic             Coordinates (Angstroms)
 Number     Number       Type             X           Y           Z
 ---------------------------------------------------------------------
      1          8           0        0.013722   -1.310647    0.000000
      2          1           0        0.008247   -0.328061    0.000000
      3          1           0       -0.913981   -1.634487    0.000000
      4          8           0        0.013722    1.151455    0.000000
      5          1           0        0.996308    1.156929    0.000000
      6          1           0       -0.310119    2.079158    0.000000
 ---------------------------------------------------------------------

 SCF Done:  E(RHF) =  -33.6507868594     A.U. after   11 cycles
 E2 =    -0.2280900352D+00 EUMP2 =    -0.33878876894656D+02
 CCSD(T)
 CCSD(T)= -0.33894855141D+02

 The electronic state is 1-A'.
 Alpha  occ. eigenvalues --   -1.41030  -1.30036  -0.77706  -0.69144  -0.59371
 Alpha  occ. eigenvalues --   -0.55371  -0.48932  -0.44592
 Alpha virt. eigenvalues --    0.17369   0.26396   0.28229   0.53134   0.73986
 Alpha virt. eigenvalues --    0.76436   0.87259   0.88696   0.92724   1.07204
 Alpha virt. eigenvalues --    1.15014   1.22324   1.29225   1.39350   2.69734

 Mulliken charges:
               1
     1  O   -0.760988
     2  H    0.373403
     3  H    0.351447
     4  O   -0.834567
     5  H    0.411556
     6  H    0.459148
 Sum of Mulliken charges =  -0.00000

 Dipole moment (field-independent basis, Debye):
    X=             -0.6142    Y=              4.5868    Z=              0.0000  Tot=              4.6278
 Quadrupole moment (field-independent basis, Debye-Ang):
   XX=             -9.8034   YY=             -9.5521   ZZ=            -15.0028
   XY=              4.5350   XZ=              0.0000   YZ=              0.0000

 957\MP4DQ=-33.8888594\MP4SDQ=-33.8910851\CCSD=-33.8919324\CCSD(T)=-33.
 Normal termination of Gaussian 16 at Sun Dec 10 06:28:51 2023.
