 Gaussian 16, Revision A.03,
 Gaussian 16:  ES64L-G16RevA.03 25-Dec-2016

 ------------------
 #p CCSD(T)/CEP-31G
 ------------------

 ----------
 H2O_H2O_84
 ----------
 Symbolic Z-matrix:
 Charge =  0 Multiplicity = 1

                         Standard orientation:
 ---------------------------------------------------------------------
 Center     Atomic      Atomic             Coordinates (Angstroms)
 Number     Number       Type             X           Y           Z
 ---------------------------------------------------------------------
      1          8           0        0.066860    1.138613    0.000000
      2          1           0        0.064747    0.156014    0.000000
      3          1           0       -0.861946    1.459277    0.000000
      4          8           0        0.066860   -0.965663    0.000000
      5          1           0        0.611007   -1.783837    0.000000
      6          1           0       -0.883566   -1.215056    0.000000
 ---------------------------------------------------------------------

 SCF Done:  E(RHF) =  -33.5965517546     A.U. after   11 cycles
 E2 =    -0.2278632508D+00 EUMP2 =    -0.33824415005331D+02
 CCSD(T)
 CCSD(T)= -0.33839120818D+02

 The electronic state is 1-A'.
 Alpha  occ. eigenvalues --   -1.46059  -1.27258  -0.82128  -0.76387  -0.59012
 Alpha  occ. eigenvalues --   -0.54658  -0.44344  -0.41178
 Alpha virt. eigenvalues --    0.16015   0.24330   0.30318   0.61781   0.73175
 Alpha virt. eigenvalues --    0.73878   0.88187   0.91603   0.93396   1.08255
 Alpha virt. eigenvalues --    1.10789   1.19519   1.28711   1.36047   3.02472

 Mulliken charges:
               1
     1  O   -0.725345
     2  H    0.296927
     3  H    0.298343
     4  O   -0.778935
     5  H    0.487177
     6  H    0.421834
 Sum of Mulliken charges =  -0.00000

 Dipole moment (field-independent basis, Debye):
    X=             -2.6731    Y=             -5.5758    Z=              0.0000  Tot=              6.1835
 Quadrupole moment (field-independent basis, Debye-Ang):
   XX=             -9.8109   YY=            -10.6364   ZZ=            -14.9173
   XY=             -3.1529   XZ=              0.0000   YZ=              0.0000

 3\MP4DQ=-33.8328321\MP4SDQ=-33.8352646\CCSD=-33.8358696\CCSD(T)=-33.83
 Normal termination of Gaussian 16 at Sun Dec 10 06:19:41 2023.
