 Gaussian 16, Revision A.03,
 Gaussian 16:  ES64L-G16RevA.03 25-Dec-2016

 ------------------
 #p CCSD(T)/CEP-31G
 ------------------

 -----------
 H2O_H2O_364
 -----------
 Symbolic Z-matrix:
 Charge =  0 Multiplicity = 1

                         Standard orientation:
 ---------------------------------------------------------------------
 Center     Atomic      Atomic             Coordinates (Angstroms)
 Number     Number       Type             X           Y           Z
 ---------------------------------------------------------------------
      1          8           0        0.048727    1.252264    0.000000
      2          1           0        0.045487    0.269668    0.000000
      3          1           0       -0.879710    1.573994    0.000000
      4          8           0        0.048727   -1.072032   -0.000000
      5          1           0        0.826301   -1.672768   -0.000000
      6          1           0       -0.771715   -1.612753   -0.000000
 ---------------------------------------------------------------------

 SCF Done:  E(RHF) =  -33.6436433836     A.U. after   11 cycles
 E2 =    -0.2286462282D+00 EUMP2 =    -0.33872289611811D+02
 CCSD(T)
 CCSD(T)= -0.33887497261D+02

 The electronic state is 1-A'.
 Alpha  occ. eigenvalues --   -1.42328  -1.28403  -0.77068  -0.73935  -0.57128
 Alpha  occ. eigenvalues --   -0.56654  -0.46701  -0.42718
 Alpha virt. eigenvalues --    0.16780   0.26252   0.28992   0.58051   0.73603
 Alpha virt. eigenvalues --    0.73637   0.85883   0.90247   0.94214   1.03330
 Alpha virt. eigenvalues --    1.13563   1.17159   1.25767   1.35781   2.78120

 Mulliken charges:
               1
     1  O   -0.766066
     2  H    0.400218
     3  H    0.322008
     4  O   -0.829793
     5  H    0.445201
     6  H    0.428432
 Sum of Mulliken charges =   0.00000

 Dipole moment (field-independent basis, Debye):
    X=             -2.0312    Y=             -5.2920    Z=             -0.0000  Tot=              5.6685
 Quadrupole moment (field-independent basis, Debye-Ang):
   XX=             -9.3610   YY=            -10.0819   ZZ=            -14.9922
   XY=             -3.6057   XZ=             -0.0000   YZ=              0.0000

 295\MP4DQ=-33.88145\MP4SDQ=-33.8836824\CCSD=-33.884399\CCSD(T)=-33.887
 Normal termination of Gaussian 16 at Sun Dec 10 06:25:14 2023.
