 Gaussian 16, Revision A.03,
 Gaussian 16:  ES64L-G16RevA.03 25-Dec-2016

 ------------------
 #p CCSD(T)/CEP-31G
 ------------------

 ------------
 H2O_H2O_1088
 ------------
 Symbolic Z-matrix:
 Charge =  0 Multiplicity = 1

                         Standard orientation:
 ---------------------------------------------------------------------
 Center     Atomic      Atomic             Coordinates (Angstroms)
 Number     Number       Type             X           Y           Z
 ---------------------------------------------------------------------
      1          8           0        0.052377    1.541210   -0.000000
      2          1           0        0.049999    0.558611   -0.000000
      3          1           0       -0.876343    1.862124   -0.000000
      4          8           0        0.052377   -1.361410    0.000000
      5          1           0        0.789566   -2.011070    0.000000
      6          1           0       -0.801247   -1.848065    0.000000
 ---------------------------------------------------------------------

 SCF Done:  E(RHF) =  -33.6625534183     A.U. after   11 cycles
 E2 =    -0.2290958585D+00 EUMP2 =    -0.33891649276763D+02
 CCSD(T)
 CCSD(T)= -0.33908169672D+02

 The electronic state is 1-A'.
 Alpha  occ. eigenvalues --   -1.38767  -1.31396  -0.74359  -0.68142  -0.59176
 Alpha  occ. eigenvalues --   -0.53497  -0.50983  -0.46032
 Alpha virt. eigenvalues --    0.17615   0.26276   0.28039   0.44198   0.75783
 Alpha virt. eigenvalues --    0.77828   0.85561   0.86086   0.94741   1.00487
 Alpha virt. eigenvalues --    1.14898   1.19198   1.22038   1.35134   2.51707

 Mulliken charges:
               1
     1  O   -0.783803
     2  H    0.435138
     3  H    0.347428
     4  O   -0.803691
     5  H    0.410652
     6  H    0.394276
 Sum of Mulliken charges =   0.00000

 Dipole moment (field-independent basis, Debye):
    X=             -2.2952    Y=             -4.6873    Z=              0.0000  Tot=              5.2190
 Quadrupole moment (field-independent basis, Debye-Ang):
   XX=             -9.4782   YY=             -8.6549   ZZ=            -15.0155
   XY=             -4.2071   XZ=              0.0000   YZ=             -0.0000

 53\MP4DQ=-33.9023294\MP4SDQ=-33.9044428\CCSD=-33.9053939\CCSD(T)=-33.9
 Normal termination of Gaussian 16 at Sun Dec 10 06:38:58 2023.
