 Gaussian 16, Revision A.03,
 Gaussian 16:  ES64L-G16RevA.03 25-Dec-2016

 ------------------
 #p CCSD(T)/CEP-31G
 ------------------

 ------------
 H2O_H2O_4112
 ------------
 Symbolic Z-matrix:
 Charge =  0 Multiplicity = 1

                         Standard orientation:
 ---------------------------------------------------------------------
 Center     Atomic      Atomic             Coordinates (Angstroms)
 Number     Number       Type             X           Y           Z
 ---------------------------------------------------------------------
      1          8           0        0.055971    2.747334   -0.000000
      2          1           0        0.054791    1.764734   -0.000000
      3          1           0       -0.873138    3.067117   -0.000000
      4          8           0        0.055971   -2.568403    0.000000
      5          1           0        0.749941   -3.264042    0.000000
      6          1           0       -0.827130   -2.999262    0.000000
 ---------------------------------------------------------------------

 SCF Done:  E(RHF) =  -33.6534763136     A.U. after   11 cycles
 E2 =    -0.2282997866D+00 EUMP2 =    -0.33881776100188D+02
 CCSD(T)
 CCSD(T)= -0.33898728303D+02

 The electronic state is 1-A'.
 Alpha  occ. eigenvalues --   -1.36345  -1.34559  -0.71987  -0.70184  -0.56179
 Alpha  occ. eigenvalues --   -0.54344  -0.50941  -0.49156
 Alpha virt. eigenvalues --    0.19472   0.21385   0.29764   0.31657   0.79615
 Alpha virt. eigenvalues --    0.81356   0.82425   0.84363   0.85637   0.87494
 Alpha virt. eigenvalues --    1.16629   1.18427   1.21065   1.23010   2.56591

 Mulliken charges:
               1
     1  O   -0.747718
     2  H    0.380437
     3  H    0.367235
     4  O   -0.747141
     5  H    0.375318
     6  H    0.371869
 Sum of Mulliken charges =  -0.00000

 Dipole moment (field-independent basis, Debye):
    X=             -2.5678    Y=             -4.2096    Z=              0.0000  Tot=              4.9310
 Quadrupole moment (field-independent basis, Debye-Ang):
   XX=             -9.5848   YY=             -5.5794   ZZ=            -14.9920
   XY=             -6.2003   XZ=              0.0000   YZ=             -0.0000

 3474\MP4DQ=-33.8930952\MP4SDQ=-33.8951195\CCSD=-33.8961706\CCSD(T)=-33
 Normal termination of Gaussian 16 at Sun Dec 10 06:47:00 2023.
