 Gaussian 16, Revision A.03,
 Gaussian 16:  ES64L-G16RevA.03 25-Dec-2016

 ------------------
 #p CCSD(T)/CEP-31G
 ------------------

 ------------
 H2O_H2O_3901
 ------------
 Symbolic Z-matrix:
 Charge =  0 Multiplicity = 1

                         Standard orientation:
 ---------------------------------------------------------------------
 Center     Atomic      Atomic             Coordinates (Angstroms)
 Number     Number       Type             X           Y           Z
 ---------------------------------------------------------------------
      1          8           0        0.090684   -2.645710    0.000000
      2          1           0        0.090609   -1.663109    0.000000
      3          1           0       -0.838785   -2.964447    0.000000
      4          8           0        0.090684    2.507000    0.000000
      5          1           0        0.154874    3.487503    0.000000
      6          1           0       -0.857641    2.249736    0.000000
 ---------------------------------------------------------------------

 SCF Done:  E(RHF) =  -33.6522107265     A.U. after   11 cycles
 E2 =    -0.2283600760D+00 EUMP2 =    -0.33880570802482D+02
 CCSD(T)
 CCSD(T)= -0.33897561694D+02

 The electronic state is 1-A'.
 Alpha  occ. eigenvalues --   -1.36448  -1.35032  -0.72102  -0.70644  -0.56215
 Alpha  occ. eigenvalues --   -0.54768  -0.51023  -0.49604
 Alpha virt. eigenvalues --    0.19014   0.21050   0.29592   0.31095   0.79548
 Alpha virt. eigenvalues --    0.80934   0.82456   0.83947   0.85515   0.87227
 Alpha virt. eigenvalues --    1.16384   1.17984   1.20923   1.22670   2.56044

 Mulliken charges:
               1
     1  O   -0.742858
     2  H    0.376448
     3  H    0.366368
     4  O   -0.743338
     5  H    0.375790
     6  H    0.367590
 Sum of Mulliken charges =   0.00000

 Dipole moment (field-independent basis, Debye):
    X=             -4.1644    Y=              3.2717    Z=              0.0000  Tot=              5.2959
 Quadrupole moment (field-independent basis, Debye-Ang):
   XX=            -11.1300   YY=             -9.0898   ZZ=            -14.9887
   XY=              2.6192   XZ=              0.0000   YZ=              0.0000

 57\MP4DQ=-33.8919173\MP4SDQ=-33.8939454\CCSD=-33.8949986\CCSD(T)=-33.8
 Normal termination of Gaussian 16 at Sun Dec 10 06:43:12 2023.
