 Gaussian 16, Revision A.03,
 Gaussian 16:  ES64L-G16RevA.03 25-Dec-2016

 ------------------
 #p CCSD(T)/CEP-31G
 ------------------

 ------------
 H2O_H2O_2919
 ------------
 Symbolic Z-matrix:
 Charge =  0 Multiplicity = 1

                         Standard orientation:
 ---------------------------------------------------------------------
 Center     Atomic      Atomic             Coordinates (Angstroms)
 Number     Number       Type             X           Y           Z
 ---------------------------------------------------------------------
      1          8           0        0.030197    2.266879   -0.000000
      2          1           0        0.027752    1.284281   -0.000000
      3          1           0       -0.898500    2.587857   -0.000000
      4          8           0        0.030197   -2.091277    0.000000
      5          1           0        0.959864   -2.409438    0.000000
      6          1           0       -0.572267   -2.867515    0.000000
 ---------------------------------------------------------------------

 SCF Done:  E(RHF) =  -33.6556902630     A.U. after   11 cycles
 E2 =    -0.2283227337D+00 EUMP2 =    -0.33884012996673D+02
 CCSD(T)
 CCSD(T)= -0.33900913412D+02

 The electronic state is 1-A'.
 Alpha  occ. eigenvalues --   -1.36745  -1.33995  -0.72392  -0.69628  -0.56709
 Alpha  occ. eigenvalues --   -0.53837  -0.51373  -0.48625
 Alpha virt. eigenvalues --    0.18734   0.22392   0.29461   0.32501   0.79191
 Alpha virt. eigenvalues --    0.81856   0.82731   0.84531   0.85598   0.87949
 Alpha virt. eigenvalues --    1.16302   1.19375   1.20710   1.26295   2.55839

 Mulliken charges:
               1
     1  O   -0.756605
     2  H    0.388749
     3  H    0.366922
     4  O   -0.753828
     5  H    0.378057
     6  H    0.376704
 Sum of Mulliken charges =  -0.00000

 Dipole moment (field-independent basis, Debye):
    X=             -1.3740    Y=             -4.2008    Z=              0.0000  Tot=              4.4198
 Quadrupole moment (field-independent basis, Debye-Ang):
   XX=             -9.4678   YY=             -6.8021   ZZ=            -14.9963
   XY=             -6.9642   XZ=              0.0000   YZ=             -0.0000

 145\MP4DQ=-33.8952699\MP4SDQ=-33.8973088\CCSD=-33.8983462\CCSD(T)=-33.
 Normal termination of Gaussian 16 at Sun Dec 10 06:25:32 2023.
