 Gaussian 16, Revision A.03,
 Gaussian 16:  ES64L-G16RevA.03 25-Dec-2016

 ------------------
 #p CCSD(T)/CEP-31G
 ------------------

 ------------
 H2O_H2O_3702
 ------------
 Symbolic Z-matrix:
 Charge =  0 Multiplicity = 1

                         Standard orientation:
 ---------------------------------------------------------------------
 Center     Atomic      Atomic             Coordinates (Angstroms)
 Number     Number       Type             X           Y           Z
 ---------------------------------------------------------------------
      1          8           0        0.088231   -2.568983    0.000000
      2          1           0        0.088070   -1.586382    0.000000
      3          1           0       -0.841210   -2.887802    0.000000
      4          8           0        0.088231    2.424661    0.000000
      5          1           0        0.216326    3.398877    0.000000
      6          1           0       -0.874874    2.229886    0.000000
 ---------------------------------------------------------------------

 SCF Done:  E(RHF) =  -33.6524554521     A.U. after   11 cycles
 E2 =    -0.2283563670D+00 EUMP2 =    -0.33880811819087D+02
 CCSD(T)
 CCSD(T)= -0.33897795655D+02

 The electronic state is 1-A'.
 Alpha  occ. eigenvalues --   -1.36502  -1.34914  -0.72158  -0.70523  -0.56282
 Alpha  occ. eigenvalues --   -0.54656  -0.51079  -0.49489
 Alpha virt. eigenvalues --    0.18899   0.21236   0.29554   0.31242   0.79493
 Alpha virt. eigenvalues --    0.81043   0.82374   0.84053   0.85452   0.87373
 Alpha virt. eigenvalues --    1.16331   1.18154   1.20878   1.23018   2.56097

 Mulliken charges:
               1
     1  O   -0.743817
     2  H    0.377855
     3  H    0.365876
     4  O   -0.744272
     5  H    0.376418
     6  H    0.367940
 Sum of Mulliken charges =   0.00000

 Dipole moment (field-independent basis, Debye):
    X=             -4.0481    Y=              3.4113    Z=              0.0000  Tot=              5.2937
 Quadrupole moment (field-independent basis, Debye-Ang):
   XX=            -10.9706   YY=             -8.6323   ZZ=            -14.9892
   XY=              2.9188   XZ=              0.0000   YZ=              0.0000

 91\MP4DQ=-33.8921516\MP4SDQ=-33.8941803\CCSD=-33.8952321\CCSD(T)=-33.8
 Normal termination of Gaussian 16 at Sun Dec 10 06:39:37 2023.
