 Gaussian 16, Revision A.03,
 Gaussian 16:  ES64L-G16RevA.03 25-Dec-2016

 ------------------
 #p CCSD(T)/CEP-31G
 ------------------

 ------------
 H2O_H2O_4271
 ------------
 Symbolic Z-matrix:
 Charge =  0 Multiplicity = 1

                         Standard orientation:
 ---------------------------------------------------------------------
 Center     Atomic      Atomic             Coordinates (Angstroms)
 Number     Number       Type             X           Y           Z
 ---------------------------------------------------------------------
      1          8           0       -0.023171    2.802541    0.000000
      2          1           0       -0.020993    1.819942    0.000000
      3          1           0        0.905613    3.123267    0.000000
      4          8           0       -0.023171   -2.632133    0.000000
      5          1           0       -0.986465   -2.825965    0.000000
      6          1           0        0.472589   -3.480501    0.000000
 ---------------------------------------------------------------------

 SCF Done:  E(RHF) =  -33.6536193155     A.U. after   11 cycles
 E2 =    -0.2282837382D+00 EUMP2 =    -0.33881903053674D+02
 CCSD(T)
 CCSD(T)= -0.33898852606D+02

 The electronic state is 1-A'.
 Alpha  occ. eigenvalues --   -1.36295  -1.34676  -0.71936  -0.70313  -0.56133
 Alpha  occ. eigenvalues --   -0.54474  -0.50893  -0.49279
 Alpha virt. eigenvalues --    0.19541   0.21256   0.29822   0.31532   0.79659
 Alpha virt. eigenvalues --    0.81234   0.82476   0.84218   0.85676   0.87321
 Alpha virt. eigenvalues --    1.16686   1.18317   1.21115   1.22861   2.56636

 Mulliken charges:
               1
     1  O   -0.748256
     2  H    0.378855
     3  H    0.369377
     4  O   -0.747681
     5  H    0.373973
     6  H    0.373733
 Sum of Mulliken charges =   0.00000

 Dipole moment (field-independent basis, Debye):
    X=              1.0630    Y=             -4.0004    Z=              0.0000  Tot=              4.1392
 Quadrupole moment (field-independent basis, Debye-Ang):
   XX=             -9.5977   YY=             -6.1404   ZZ=            -14.9922
   XY=              9.1733   XZ=              0.0000   YZ=              0.0000

 4721\MP4DQ=-33.8932207\MP4SDQ=-33.8952442\CCSD=-33.8962956\CCSD(T)=-33
 Normal termination of Gaussian 16 at Sun Dec 10 06:49:52 2023.
