 Gaussian 16, Revision A.03,
 Gaussian 16:  ES64L-G16RevA.03 25-Dec-2016

 ------------------
 #p CCSD(T)/CEP-31G
 ------------------

 ------------
 H2O_H2O_3542
 ------------
 Symbolic Z-matrix:
 Charge =  0 Multiplicity = 1

                         Standard orientation:
 ---------------------------------------------------------------------
 Center     Atomic      Atomic             Coordinates (Angstroms)
 Number     Number       Type             X           Y           Z
 ---------------------------------------------------------------------
      1          8           0        0.037433    2.518007    0.000000
      2          1           0        0.035493    1.535408    0.000000
      3          1           0       -0.891429    2.838508   -0.000000
      4          8           0        0.037433   -2.339032    0.000000
      5          1           0        0.917842   -2.775365    0.000000
      6          1           0       -0.660841   -3.030349   -0.000000
 ---------------------------------------------------------------------

 SCF Done:  E(RHF) =  -33.6544488178     A.U. after   11 cycles
 E2 =    -0.2282842603D+00 EUMP2 =    -0.33882733078125D+02
 CCSD(T)
 CCSD(T)= -0.33899658566D+02

 The electronic state is 1-A'.
 Alpha  occ. eigenvalues --   -1.36495  -1.34305  -0.72137  -0.69935  -0.56384
 Alpha  occ. eigenvalues --   -0.54120  -0.51105  -0.48918
 Alpha virt. eigenvalues --    0.19247   0.21777   0.29665   0.31990   0.79457
 Alpha virt. eigenvalues --    0.81575   0.82225   0.84574   0.85476   0.87711
 Alpha virt. eigenvalues --    1.16519   1.18805   1.20939   1.23778   2.56476

 Mulliken charges:
               1
     1  O   -0.751479
     2  H    0.383811
     3  H    0.367419
     4  O   -0.750180
     5  H    0.376233
     6  H    0.374196
 Sum of Mulliken charges =   0.00000

 Dipole moment (field-independent basis, Debye):
    X=             -1.7117    Y=             -4.2348    Z=             -0.0000  Tot=              4.5677
 Quadrupole moment (field-independent basis, Debye-Ang):
   XX=             -9.4132   YY=             -6.0679   ZZ=            -14.9940
   XY=             -7.1531   XZ=              0.0000   YZ=             -0.0000

 55\MP4DQ=-33.8940274\MP4SDQ=-33.8960537\CCSD=-33.8971001\CCSD(T)=-33.8
 Normal termination of Gaussian 16 at Sun Dec 10 06:36:45 2023.
