 Gaussian 16, Revision A.03,
 Gaussian 16:  ES64L-G16RevA.03 25-Dec-2016

 ------------------
 #p CCSD(T)/CEP-31G
 ------------------

 ------------
 H2O_H2O_2656
 ------------
 Symbolic Z-matrix:
 Charge =  0 Multiplicity = 1

                         Standard orientation:
 ---------------------------------------------------------------------
 Center     Atomic      Atomic             Coordinates (Angstroms)
 Number     Number       Type             X           Y           Z
 ---------------------------------------------------------------------
      1          8           0        0.076763    2.160417   -0.000000
      2          1           0        0.076102    1.177816   -0.000000
      3          1           0       -0.852516    2.479708   -0.000000
      4          8           0        0.076763   -1.997217    0.000000
      5          1           0        0.452177   -2.905276    0.000000
      6          1           0       -0.903967   -2.057849    0.000000
 ---------------------------------------------------------------------

 SCF Done:  E(RHF) =  -33.6544562128     A.U. after   11 cycles
 E2 =    -0.2284464959D+00 EUMP2 =    -0.33882902708615D+02
 CCSD(T)
 CCSD(T)= -0.33899849617D+02

 The electronic state is 1-A'.
 Alpha  occ. eigenvalues --   -1.36943  -1.34160  -0.72613  -0.69752  -0.56844
 Alpha  occ. eigenvalues --   -0.53936  -0.51546  -0.48757
 Alpha virt. eigenvalues --    0.18065   0.22518   0.29176   0.32505   0.79009
 Alpha virt. eigenvalues --    0.81775   0.83080   0.84797   0.85787   0.88154
 Alpha virt. eigenvalues --    1.15948   1.19292   1.20493   1.28534   2.55453

 Mulliken charges:
               1
     1  O   -0.752238
     2  H    0.388821
     3  H    0.362244
     4  O   -0.750746
     5  H    0.381254
     6  H    0.370665
 Sum of Mulliken charges =  -0.00000

 Dipole moment (field-independent basis, Debye):
    X=             -3.4977    Y=             -3.9349    Z=              0.0000  Tot=              5.2648
 Quadrupole moment (field-independent basis, Debye-Ang):
   XX=            -10.3275   YY=             -7.7058   ZZ=            -14.9932
   XY=             -3.8333   XZ=              0.0000   YZ=             -0.0000

 4328\MP4DQ=-33.8941799\MP4SDQ=-33.8962325\CCSD=-33.8972688\CCSD(T)=-33
 Normal termination of Gaussian 16 at Sun Dec 10 06:20:49 2023.
