 Gaussian 16, Revision A.03,
 Gaussian 16:  ES64L-G16RevA.03 25-Dec-2016

 ------------------
 #p CCSD(T)/CEP-31G
 ------------------

 ------------
 H2O_H2O_2571
 ------------
 Symbolic Z-matrix:
 Charge =  0 Multiplicity = 1

                         Standard orientation:
 ---------------------------------------------------------------------
 Center     Atomic      Atomic             Coordinates (Angstroms)
 Number     Number       Type             X           Y           Z
 ---------------------------------------------------------------------
      1          8           0       -0.023234    2.124434    0.000000
      2          1           0       -0.020332    1.141837    0.000000
      3          1           0        0.905313    2.445845    0.000000
      4          8           0       -0.023234   -1.954061    0.000000
      5          1           0       -0.986384   -2.148603    0.000000
      6          1           0        0.473151   -2.802063    0.000000
 ---------------------------------------------------------------------

 SCF Done:  E(RHF) =  -33.6565610711     A.U. after   11 cycles
 E2 =    -0.2283769726D+00 EUMP2 =    -0.33884938043666D+02
 CCSD(T)
 CCSD(T)= -0.33901832897D+02

 The electronic state is 1-A'.
 Alpha  occ. eigenvalues --   -1.36931  -1.33827  -0.72585  -0.69471  -0.56955
 Alpha  occ. eigenvalues --   -0.53687  -0.51568  -0.48472
 Alpha virt. eigenvalues --    0.18329   0.22878   0.29327   0.33005   0.78964
 Alpha virt. eigenvalues --    0.82038   0.83228   0.84765   0.86373   0.87997
 Alpha virt. eigenvalues --    1.16106   1.19700   1.20585   1.29154   2.55005

 Mulliken charges:
               1
     1  O   -0.760648
     2  H    0.392025
     3  H    0.367124
     4  O   -0.756772
     5  H    0.379101
     6  H    0.379168
 Sum of Mulliken charges =  -0.00000

 Dipole moment (field-independent basis, Debye):
    X=              1.0527    Y=             -4.1099    Z=              0.0000  Tot=              4.2425
 Quadrupole moment (field-independent basis, Debye-Ang):
   XX=             -9.5871   YY=             -7.3544   ZZ=            -14.9978
   XY=              6.9768   XZ=              0.0000   YZ=              0.0000

 146\MP4DQ=-33.8961701\MP4SDQ=-33.8982222\CCSD=-33.8992539\CCSD(T)=-33.
 Normal termination of Gaussian 16 at Sun Dec 10 06:19:17 2023.
