 Gaussian 16, Revision A.03,
 Gaussian 16:  ES64L-G16RevA.03 25-Dec-2016

 ------------------
 #p CCSD(T)/CEP-31G
 ------------------

 -----------
 H2O_H2O_165
 -----------
 Symbolic Z-matrix:
 Charge =  0 Multiplicity = 1

                         Standard orientation:
 ---------------------------------------------------------------------
 Center     Atomic      Atomic             Coordinates (Angstroms)
 Number     Number       Type             X           Y           Z
 ---------------------------------------------------------------------
      1          8           0        0.045039    1.172484    0.000000
      2          1           0        0.041267    0.189890    0.000000
      3          1           0       -0.883224    1.494716   -0.000000
      4          8           0        0.045039   -0.992264    0.000000
      5          1           0        0.859941   -1.541300    0.000000
      6          1           0       -0.738603   -1.585065   -0.000000
 ---------------------------------------------------------------------

 SCF Done:  E(RHF) =  -33.6180558687     A.U. after   11 cycles
 E2 =    -0.2279347713D+00 EUMP2 =    -0.33845990640082D+02
 CCSD(T)
 CCSD(T)= -0.33860663421D+02

 The electronic state is 1-A'.
 Alpha  occ. eigenvalues --   -1.44601  -1.27112  -0.78527  -0.77739  -0.58269
 Alpha  occ. eigenvalues --   -0.55301  -0.44476  -0.41173
 Alpha virt. eigenvalues --    0.16416   0.25434   0.29991   0.61429   0.73337
 Alpha virt. eigenvalues --    0.73367   0.86123   0.91531   0.92341   1.05229
 Alpha virt. eigenvalues --    1.13452   1.16305   1.28527   1.35239   2.89994

 Mulliken charges:
               1
     1  O   -0.755007
     2  H    0.343921
     3  H    0.310556
     4  O   -0.798504
     5  H    0.453643
     6  H    0.445391
 Sum of Mulliken charges =  -0.00000

 Dipole moment (field-independent basis, Debye):
    X=             -1.8434    Y=             -5.6154    Z=             -0.0000  Tot=              5.9102
 Quadrupole moment (field-independent basis, Debye-Ang):
   XX=             -9.2928   YY=            -10.5637   ZZ=            -14.9529
   XY=             -3.4054   XZ=              0.0000   YZ=             -0.0000

 186\MP4DQ=-33.8545227\MP4SDQ=-33.8568284\CCSD=-33.8574479\CCSD(T)=-33.
 Normal termination of Gaussian 16 at Sun Dec 10 06:21:18 2023.
