 Gaussian 16, Revision A.03,
 Gaussian 16:  ES64L-G16RevA.03 25-Dec-2016

 ------------------
 #p CCSD(T)/CEP-31G
 ------------------

 -----------
 H2O_H2O_837
 -----------
 Symbolic Z-matrix:
 Charge =  0 Multiplicity = 1

                         Standard orientation:
 ---------------------------------------------------------------------
 Center     Atomic      Atomic             Coordinates (Angstroms)
 Number     Number       Type             X           Y           Z
 ---------------------------------------------------------------------
      1          8           0        0.056075    1.440949    0.000000
      2          1           0        0.053754    0.458350    0.000000
      3          1           0       -0.872663    1.761810   -0.000000
      4          8           0        0.056075   -1.262147    0.000000
      5          1           0        0.749236   -1.958590    0.000000
      6          1           0       -0.827525   -1.691980   -0.000000
 ---------------------------------------------------------------------

 SCF Done:  E(RHF) =  -33.6611747344     A.U. after   11 cycles
 E2 =    -0.2291443999D+00 EUMP2 =    -0.33890319134274D+02
 CCSD(T)
 CCSD(T)= -0.33906567839D+02

 The electronic state is 1-A'.
 Alpha  occ. eigenvalues --   -1.39548  -1.30688  -0.75086  -0.68869  -0.59213
 Alpha  occ. eigenvalues --   -0.54255  -0.50033  -0.45265
 Alpha virt. eigenvalues --    0.17347   0.26953   0.27599   0.48237   0.74903
 Alpha virt. eigenvalues --    0.76210   0.85249   0.87364   0.96491   1.01396
 Alpha virt. eigenvalues --    1.14973   1.18660   1.22729   1.36417   2.56946

 Mulliken charges:
               1
     1  O   -0.779879
     2  H    0.435398
     3  H    0.340165
     4  O   -0.819908
     5  H    0.424937
     6  H    0.399287
 Sum of Mulliken charges =   0.00000

 Dipole moment (field-independent basis, Debye):
    X=             -2.4190    Y=             -4.8021    Z=             -0.0000  Tot=              5.3769
 Quadrupole moment (field-independent basis, Debye-Ang):
   XX=             -9.5420   YY=             -9.0779   ZZ=            -15.0166
   XY=             -3.9305   XZ=              0.0000   YZ=             -0.0000

 063\MP4DQ=-33.900666\MP4SDQ=-33.9028113\CCSD=-33.9037088\CCSD(T)=-33.9
 Normal termination of Gaussian 16 at Sun Dec 10 06:34:15 2023.
