 Gaussian 16, Revision A.03,
 Gaussian 16:  ES64L-G16RevA.03 25-Dec-2016

 ------------------
 #p CCSD(T)/CEP-31G
 ------------------

 ------------
 H2O_H2O_1212
 ------------
 Symbolic Z-matrix:
 Charge =  0 Multiplicity = 1

                         Standard orientation:
 ---------------------------------------------------------------------
 Center     Atomic      Atomic             Coordinates (Angstroms)
 Number     Number       Type             X           Y           Z
 ---------------------------------------------------------------------
      1          8           0        0.056054    1.590540   -0.000000
      2          1           0        0.053964    0.607941   -0.000000
      3          1           0       -0.872759    1.911183    0.000000
      4          8           0        0.056054   -1.411712   -0.000000
      5          1           0        0.749379   -2.107993   -0.000000
      6          1           0       -0.827445   -1.841754    0.000000
 ---------------------------------------------------------------------

 SCF Done:  E(RHF) =  -33.6618909545     A.U. after   11 cycles
 E2 =    -0.2290417834D+00 EUMP2 =    -0.33890932737956D+02
 CCSD(T)
 CCSD(T)= -0.33907570710D+02

 The electronic state is 1-A'.
 Alpha  occ. eigenvalues --   -1.38490  -1.31776  -0.74122  -0.68086  -0.58972
 Alpha  occ. eigenvalues --   -0.53203  -0.51430  -0.46416
 Alpha virt. eigenvalues --    0.17668   0.25875   0.28190   0.42355   0.76207
 Alpha virt. eigenvalues --    0.78766   0.85462   0.85603   0.93530   1.00882
 Alpha virt. eigenvalues --    1.14902   1.19277   1.21614   1.34810   2.50464

 Mulliken charges:
               1
     1  O   -0.781666
     2  H    0.431403
     3  H    0.349261
     4  O   -0.795415
     5  H    0.407597
     6  H    0.388819
 Sum of Mulliken charges =   0.00000

 Dipole moment (field-independent basis, Debye):
    X=             -2.4688    Y=             -4.6134    Z=              0.0000  Tot=              5.2324
 Quadrupole moment (field-independent basis, Debye-Ang):
   XX=             -9.5604   YY=             -8.4738   ZZ=            -15.0124
   XY=             -4.2022   XZ=             -0.0000   YZ=              0.0000

 25\MP4DQ=-33.9017478\MP4SDQ=-33.9038568\CCSD=-33.9048295\CCSD(T)=-33.9
 Normal termination of Gaussian 16 at Sun Dec 10 06:41:22 2023.
