 Gaussian 16, Revision A.03,
 Gaussian 16:  ES64L-G16RevA.03 25-Dec-2016

 ------------------
 #p CCSD(T)/CEP-31G
 ------------------

 -----------
 H2O_H2O_701
 -----------
 Symbolic Z-matrix:
 Charge =  0 Multiplicity = 1

                         Standard orientation:
 ---------------------------------------------------------------------
 Center     Atomic      Atomic             Coordinates (Angstroms)
 Number     Number       Type             X           Y           Z
 ---------------------------------------------------------------------
      1          8           0        0.090689   -1.369296    0.000000
      2          1           0        0.090541   -0.386695    0.000000
      3          1           0       -0.838756   -1.688102    0.000000
      4          8           0        0.090689    1.230599    0.000000
      5          1           0        0.154806    2.211107    0.000000
      6          1           0       -0.857617    0.973264    0.000000
 ---------------------------------------------------------------------

 SCF Done:  E(RHF) =  -33.6436375554     A.U. after   11 cycles
 E2 =    -0.2292011436D+00 EUMP2 =    -0.33872838699069D+02
 CCSD(T)
 CCSD(T)= -0.33889539548D+02

 The electronic state is 1-A'.
 Alpha  occ. eigenvalues --   -1.40568  -1.32421  -0.77698  -0.68461  -0.59351
 Alpha  occ. eigenvalues --   -0.54746  -0.51660  -0.46812
 Alpha virt. eigenvalues --    0.16472   0.25106   0.27797   0.48032   0.74059
 Alpha virt. eigenvalues --    0.78234   0.85193   0.86852   0.92967   1.11470
 Alpha virt. eigenvalues --    1.13843   1.23734   1.33858   1.37951   2.57396

 Mulliken charges:
               1
     1  O   -0.720787
     2  H    0.351726
     3  H    0.336306
     4  O   -0.776787
     5  H    0.440697
     6  H    0.368845
 Sum of Mulliken charges =   0.00000

 Dipole moment (field-independent basis, Debye):
    X=             -3.9550    Y=              3.9262    Z=              0.0000  Tot=              5.5728
 Quadrupole moment (field-independent basis, Debye-Ang):
   XX=            -11.2149   YY=             -9.6673   ZZ=            -14.9820
   XY=              2.3873   XZ=              0.0000   YZ=              0.0000

 4\MP4DQ=-33.8834222\MP4SDQ=-33.8857479\CCSD=-33.8866391\CCSD(T)=-33.88
 Normal termination of Gaussian 16 at Sun Dec 10 06:31:42 2023.
