 Gaussian 16, Revision A.03,
 Gaussian 16:  ES64L-G16RevA.03 25-Dec-2016

 ------------------
 #p CCSD(T)/CEP-31G
 ------------------

 ------------
 H2O_H2O_3050
 ------------
 Symbolic Z-matrix:
 Charge =  0 Multiplicity = 1

                         Standard orientation:
 ---------------------------------------------------------------------
 Center     Atomic      Atomic             Coordinates (Angstroms)
 Number     Number       Type             X           Y           Z
 ---------------------------------------------------------------------
      1          8           0        0.092949   -2.303447    0.000000
      2          1           0        0.092949   -1.320846    0.000000
      3          1           0       -0.836544   -2.622114    0.000000
      4          8           0        0.092949    2.170661    0.000000
      5          1           0        0.092949    3.153262    0.000000
      6          1           0       -0.836544    1.851993    0.000000
 ---------------------------------------------------------------------

 SCF Done:  E(RHF) =  -33.6522800071     A.U. after   11 cycles
 E2 =    -0.2284308685D+00 EUMP2 =    -0.33880710875589D+02
 CCSD(T)
 CCSD(T)= -0.33897707734D+02

 The electronic state is 1-A'.
 Alpha  occ. eigenvalues --   -1.36771  -1.34937  -0.72446  -0.70529  -0.56548
 Alpha  occ. eigenvalues --   -0.54662  -0.51342  -0.49503
 Alpha virt. eigenvalues --    0.17638   0.21934   0.29269   0.31491   0.79240
 Alpha virt. eigenvalues --    0.81046   0.82418   0.84002   0.85484   0.87549
 Alpha virt. eigenvalues --    1.15716   1.18474   1.20615   1.25553   2.55648

 Mulliken charges:
               1
     1  O   -0.743346
     2  H    0.378644
     3  H    0.364358
     4  O   -0.743996
     5  H    0.378566
     6  H    0.365775
 Sum of Mulliken charges =   0.00000

 Dipole moment (field-independent basis, Debye):
    X=             -4.2535    Y=              3.1692    Z=              0.0000  Tot=              5.3044
 Quadrupole moment (field-independent basis, Debye-Ang):
   XX=            -11.2944   YY=             -9.5924   ZZ=            -14.9880
   XY=              2.2963   XZ=              0.0000   YZ=              0.0000

 81\MP4DQ=-33.8920478\MP4SDQ=-33.8940871\CCSD=-33.8951338\CCSD(T)=-33.8
 Normal termination of Gaussian 16 at Sun Dec 10 06:27:57 2023.
