 Gaussian 16, Revision A.03,
 Gaussian 16:  ES64L-G16RevA.03 25-Dec-2016

 ------------------
 #p CCSD(T)/CEP-31G
 ------------------

 ------------
 H2O_H2O_3799
 ------------
 Symbolic Z-matrix:
 Charge =  0 Multiplicity = 1

                         Standard orientation:
 ---------------------------------------------------------------------
 Center     Atomic      Atomic             Coordinates (Angstroms)
 Number     Number       Type             X           Y           Z
 ---------------------------------------------------------------------
      1          8           0       -0.013494    2.607027    0.000000
      2          1           0       -0.010827    1.624430    0.000000
      3          1           0        0.915131    2.928215    0.000000
      4          8           0       -0.013494   -2.447757    0.000000
      5          1           0       -0.996093   -2.450423    0.000000
      6          1           0        0.307694   -3.376382    0.000000
 ---------------------------------------------------------------------

 SCF Done:  E(RHF) =  -33.6539906534     A.U. after   11 cycles
 E2 =    -0.2282729478D+00 EUMP2 =    -0.33882263601200D+02
 CCSD(T)
 CCSD(T)= -0.33899204407D+02

 The electronic state is 1-A'.
 Alpha  occ. eigenvalues --   -1.36409  -1.34651  -0.72055  -0.70294  -0.56267
 Alpha  occ. eigenvalues --   -0.54463  -0.51012  -0.49261
 Alpha virt. eigenvalues --    0.19285   0.21410   0.29719   0.31597   0.79545
 Alpha virt. eigenvalues --    0.81246   0.82315   0.84208   0.85523   0.87371
 Alpha virt. eigenvalues --    1.16566   1.18423   1.20993   1.23202   2.56475

 Mulliken charges:
               1
     1  O   -0.749713
     2  H    0.379583
     3  H    0.370038
     4  O   -0.749209
     5  H    0.374098
     6  H    0.375203
 Sum of Mulliken charges =   0.00000

 Dipole moment (field-independent basis, Debye):
    X=              0.6179    Y=             -3.7522    Z=              0.0000  Tot=              3.8027
 Quadrupole moment (field-independent basis, Debye-Ang):
   XX=             -9.8743   YY=             -7.3362   ZZ=            -14.9928
   XY=              9.4373   XZ=              0.0000   YZ=              0.0000

 8224\MP4DQ=-33.8935724\MP4SDQ=-33.8955967\CCSD=-33.8966463\CCSD(T)=-33
 Normal termination of Gaussian 16 at Sun Dec 10 06:41:22 2023.
