 Gaussian 16, Revision A.03,
 Gaussian 16:  ES64L-G16RevA.03 25-Dec-2016

 ------------------
 #p CCSD(T)/CEP-31G
 ------------------

 -----------
 H2O_H2O_887
 -----------
 Symbolic Z-matrix:
 Charge =  0 Multiplicity = 1

                         Standard orientation:
 ---------------------------------------------------------------------
 Center     Atomic      Atomic             Coordinates (Angstroms)
 Number     Number       Type             X           Y           Z
 ---------------------------------------------------------------------
      1          8           0        0.056072    1.460894   -0.000000
      2          1           0        0.053784    0.478295   -0.000000
      3          1           0       -0.872677    1.781724   -0.000000
      4          8           0        0.056072   -1.282089    0.000000
      5          1           0        0.749256   -1.978508    0.000000
      6          1           0       -0.827514   -1.711953    0.000000
 ---------------------------------------------------------------------

 SCF Done:  E(RHF) =  -33.6616022785     A.U. after   11 cycles
 E2 =    -0.2291450140D+00 EUMP2 =    -0.33890747292482D+02
 CCSD(T)
 CCSD(T)= -0.33907065716D+02

 The electronic state is 1-A'.
 Alpha  occ. eigenvalues --   -1.39369  -1.30857  -0.74928  -0.68650  -0.59250
 Alpha  occ. eigenvalues --   -0.54083  -0.50261  -0.45448
 Alpha virt. eigenvalues --    0.17397   0.26816   0.27675   0.47344   0.75073
 Alpha virt. eigenvalues --    0.76542   0.85289   0.87089   0.96172   1.01459
 Alpha virt. eigenvalues --    1.14984   1.18748   1.22557   1.36214   2.55574

 Mulliken charges:
               1
     1  O   -0.780743
     2  H    0.435805
     3  H    0.341645
     4  O   -0.816656
     5  H    0.422319
     6  H    0.397630
 Sum of Mulliken charges =  -0.00000

 Dipole moment (field-independent basis, Debye):
    X=             -2.4268    Y=             -4.7709    Z=              0.0000  Tot=              5.3526
 Quadrupole moment (field-independent basis, Debye-Ang):
   XX=             -9.5449   YY=             -8.9894   ZZ=            -15.0166
   XY=             -3.9679   XZ=              0.0000   YZ=             -0.0000

 18\MP4DQ=-33.9011763\MP4SDQ=-33.9033151\CCSD=-33.9042255\CCSD(T)=-33.9
 Normal termination of Gaussian 16 at Sun Dec 10 06:35:12 2023.
