 Gaussian 16, Revision A.03,
 Gaussian 16:  ES64L-G16RevA.03 25-Dec-2016

 ------------------
 #p CCSD(T)/CEP-31G
 ------------------

 ------------
 H2O_H2O_2550
 ------------
 Symbolic Z-matrix:
 Charge =  0 Multiplicity = 1

                         Standard orientation:
 ---------------------------------------------------------------------
 Center     Atomic      Atomic             Coordinates (Angstroms)
 Number     Number       Type             X           Y           Z
 ---------------------------------------------------------------------
      1          8           0        0.092949   -2.104009    0.000000
      2          1           0        0.092949   -1.121407    0.000000
      3          1           0       -0.836544   -2.422675    0.000000
      4          8           0        0.092949    1.971222    0.000000
      5          1           0        0.092949    2.953823    0.000000
      6          1           0       -0.836544    1.652555    0.000000
 ---------------------------------------------------------------------

 SCF Done:  E(RHF) =  -33.6525248218     A.U. after   11 cycles
 E2 =    -0.2285577738D+00 EUMP2 =    -0.33881082595668D+02
 CCSD(T)
 CCSD(T)= -0.33898093650D+02

 The electronic state is 1-A'.
 Alpha  occ. eigenvalues --   -1.37054  -1.34785  -0.72760  -0.70352  -0.56852
 Alpha  occ. eigenvalues --   -0.54502  -0.51623  -0.49348
 Alpha virt. eigenvalues --    0.16879   0.22638   0.29027   0.32180   0.78910
 Alpha virt. eigenvalues --    0.81271   0.82773   0.84210   0.86868   0.87762
 Alpha virt. eigenvalues --    1.15456   1.18670   1.20497   1.30169   2.56062

 Mulliken charges:
               1
     1  O   -0.745089
     2  H    0.381834
     3  H    0.362371
     4  O   -0.745180
     5  H    0.381267
     6  H    0.364797
 Sum of Mulliken charges =  -0.00000

 Dipole moment (field-independent basis, Debye):
    X=             -4.2391    Y=              3.2070    Z=              0.0000  Tot=              5.3155
 Quadrupole moment (field-independent basis, Debye-Ang):
   XX=            -11.3027   YY=             -9.5725   ZZ=            -14.9877
   XY=              2.2897   XZ=              0.0000   YZ=              0.0000

 663\MP4DQ=-33.8924029\MP4SDQ=-33.8944636\CCSD=-33.8955015\CCSD(T)=-33.
 Normal termination of Gaussian 16 at Sun Dec 10 06:18:54 2023.
