 Gaussian 16, Revision A.03,
 Gaussian 16:  ES64L-G16RevA.03 25-Dec-2016

 ------------------
 #p CCSD(T)/CEP-31G
 ------------------

 -----------
 H2O_H2O_882
 -----------
 Symbolic Z-matrix:
 Charge =  0 Multiplicity = 1

                         Standard orientation:
 ---------------------------------------------------------------------
 Center     Atomic      Atomic             Coordinates (Angstroms)
 Number     Number       Type             X           Y           Z
 ---------------------------------------------------------------------
      1          8           0        0.073576    1.454407    0.000000
      2          1           0        0.072374    0.471806    0.000000
      3          1           0       -0.855526    1.774210    0.000000
      4          8           0        0.073576   -1.287536   -0.000000
      5          1           0        0.507091   -2.169336   -0.000000
      6          1           0       -0.901156   -1.411645   -0.000000
 ---------------------------------------------------------------------

 SCF Done:  E(RHF) =  -33.6575742983     A.U. after   11 cycles
 E2 =    -0.2290323221D+00 EUMP2 =    -0.33886606620441D+02
 CCSD(T)
 CCSD(T)= -0.33903140694D+02

 The electronic state is 1-A'.
 Alpha  occ. eigenvalues --   -1.39483  -1.31497  -0.75418  -0.68569  -0.59213
 Alpha  occ. eigenvalues --   -0.54079  -0.50883  -0.46034
 Alpha virt. eigenvalues --    0.17088   0.26261   0.27528   0.46416   0.74966
 Alpha virt. eigenvalues --    0.77493   0.85209   0.86727   0.94464   1.08945
 Alpha virt. eigenvalues --    1.16666   1.19666   1.22497   1.36589   2.55508

 Mulliken charges:
               1
     1  O   -0.764799
     2  H    0.418218
     3  H    0.339645
     4  O   -0.811280
     5  H    0.433831
     6  H    0.384385
 Sum of Mulliken charges =  -0.00000

 Dipole moment (field-independent basis, Debye):
    X=             -3.1945    Y=             -4.5018    Z=             -0.0000  Tot=              5.5201
 Quadrupole moment (field-independent basis, Debye-Ang):
   XX=            -10.1839   YY=             -9.0280   ZZ=            -15.0068
   XY=             -3.4431   XZ=             -0.0000   YZ=              0.0000

 321\MP4DQ=-33.8971997\MP4SDQ=-33.8993871\CCSD=-33.9003197\CCSD(T)=-33.
 Normal termination of Gaussian 16 at Sun Dec 10 06:35:06 2023.
