 Gaussian 16, Revision A.03,
 Gaussian 16:  ES64L-G16RevA.03 25-Dec-2016

 ------------------
 #p CCSD(T)/CEP-31G
 ------------------

 ------------
 H2O_H2O_3346
 ------------
 Symbolic Z-matrix:
 Charge =  0 Multiplicity = 1

                         Standard orientation:
 ---------------------------------------------------------------------
 Center     Atomic      Atomic             Coordinates (Angstroms)
 Number     Number       Type             X           Y           Z
 ---------------------------------------------------------------------
      1          8           0       -0.023201    2.433572    0.000000
      2          1           0       -0.020681    1.450974    0.000000
      3          1           0        0.905471    2.754622    0.000000
      4          8           0       -0.023201   -2.263181    0.000000
      5          1           0       -0.986427   -2.457348    0.000000
      6          1           0        0.472856   -3.111376    0.000000
 ---------------------------------------------------------------------

 SCF Done:  E(RHF) =  -33.6547757490     A.U. after   11 cycles
 E2 =    -0.2282815471D+00 EUMP2 =    -0.33883057296063D+02
 CCSD(T)
 CCSD(T)= -0.33899976450D+02

 The electronic state is 1-A'.
 Alpha  occ. eigenvalues --   -1.36557  -1.34319  -0.72203  -0.69957  -0.56462
 Alpha  occ. eigenvalues --   -0.54146  -0.51171  -0.48938
 Alpha virt. eigenvalues --    0.19045   0.21875   0.29588   0.32035   0.79392
 Alpha virt. eigenvalues --    0.81552   0.82241   0.84455   0.85490   0.87690
 Alpha virt. eigenvalues --    1.16455   1.18883   1.20843   1.24365   2.56417

 Mulliken charges:
               1
     1  O   -0.752804
     2  H    0.383901
     3  H    0.368541
     4  O   -0.751441
     5  H    0.375989
     6  H    0.375815
 Sum of Mulliken charges =  -0.00000

 Dipole moment (field-independent basis, Debye):
    X=              1.0591    Y=             -4.0407    Z=              0.0000  Tot=              4.1772
 Quadrupole moment (field-independent basis, Debye-Ang):
   XX=             -9.5934   YY=             -6.7956   ZZ=            -14.9945
   XY=              7.9788   XZ=              0.0000   YZ=              0.0000

 5901\MP4DQ=-33.8943432\MP4SDQ=-33.8963717\CCSD=-33.8974161\CCSD(T)=-33
 Normal termination of Gaussian 16 at Sun Dec 10 06:33:17 2023.
