 Gaussian 16, Revision A.03,
 Gaussian 16:  ES64L-G16RevA.03 25-Dec-2016

 ------------------
 #p CCSD(T)/CEP-31G
 ------------------

 -----------
 H2O_H2O_154
 -----------
 Symbolic Z-matrix:
 Charge =  0 Multiplicity = 1

                         Standard orientation:
 ---------------------------------------------------------------------
 Center     Atomic      Atomic             Coordinates (Angstroms)
 Number     Number       Type             X           Y           Z
 ---------------------------------------------------------------------
      1          8           0        0.082836   -1.158472    0.000000
      2          1           0        0.082040   -0.175871    0.000000
      3          1           0       -0.846398   -1.477891    0.000000
      4          8           0        0.082836    1.004024    0.000000
      5          1           0        0.336384    1.953351    0.000000
      6          1           0       -0.897407    0.935993    0.000000
 ---------------------------------------------------------------------

 SCF Done:  E(RHF) =  -33.5995012906     A.U. after   11 cycles
 E2 =    -0.2281236421D+00 EUMP2 =    -0.33827624932765D+02
 CCSD(T)
 CCSD(T)= -0.33842954736D+02

 The electronic state is 1-A'.
 Alpha  occ. eigenvalues --   -1.45468  -1.28920  -0.83068  -0.72554  -0.58240
 Alpha  occ. eigenvalues --   -0.56296  -0.46769  -0.42982
 Alpha virt. eigenvalues --    0.16029   0.23601   0.29767   0.59961   0.73119
 Alpha virt. eigenvalues --    0.75184   0.88814   0.90418   0.97023   1.08704
 Alpha virt. eigenvalues --    1.11691   1.21954   1.26594   1.43712   2.99350

 Mulliken charges:
               1
     1  O   -0.692281
     2  H    0.272115
     3  H    0.305651
     4  O   -0.779696
     5  H    0.498095
     6  H    0.396116
 Sum of Mulliken charges =   0.00000

 Dipole moment (field-independent basis, Debye):
    X=             -3.3994    Y=              4.9968    Z=              0.0000  Tot=              6.0434
 Quadrupole moment (field-independent basis, Debye-Ang):
   XX=            -10.6523   YY=            -10.3160   ZZ=            -14.9181
   XY=              2.7287   XZ=              0.0000   YZ=              0.0000

 1\MP4DQ=-33.836603\MP4SDQ=-33.8390905\CCSD=-33.839771\CCSD(T)=-33.8429
 Normal termination of Gaussian 16 at Sun Dec 10 06:21:04 2023.
