 Gaussian 16, Revision A.03,
 Gaussian 16:  ES64L-G16RevA.03 25-Dec-2016

 ------------------
 #p CCSD(T)/CEP-31G
 ------------------

 -----------
 H2O_H2O_992
 -----------
 Symbolic Z-matrix:
 Charge =  0 Multiplicity = 1

                         Standard orientation:
 ---------------------------------------------------------------------
 Center     Atomic      Atomic             Coordinates (Angstroms)
 Number     Number       Type             X           Y           Z
 ---------------------------------------------------------------------
      1          8           0        0.037561    1.500820    0.000000
      2          1           0        0.034223    0.518224    0.000000
      3          1           0       -0.890844    1.822642    0.000000
      4          8           0        0.037561   -1.321952    0.000000
      5          1           0        0.917348   -1.759537    0.000000
      6          1           0       -0.661696   -2.012275    0.000000
 ---------------------------------------------------------------------

 SCF Done:  E(RHF) =  -33.6632706565     A.U. after   11 cycles
 E2 =    -0.2290145983D+00 EUMP2 =    -0.33892285254798D+02
 CCSD(T)
 CCSD(T)= -0.33908691756D+02

 The electronic state is 1-A'.
 Alpha  occ. eigenvalues --   -1.38999  -1.31050  -0.74578  -0.68257  -0.59329
 Alpha  occ. eigenvalues --   -0.53742  -0.50582  -0.45699
 Alpha virt. eigenvalues --    0.17629   0.26673   0.27928   0.45771   0.75451
 Alpha virt. eigenvalues --    0.77112   0.85912   0.86609   0.94544   1.00935
 Alpha virt. eigenvalues --    1.15298   1.18596   1.22925   1.35855   2.53282

 Mulliken charges:
               1
     1  O   -0.786971
     2  H    0.434487
     3  H    0.349377
     4  O   -0.811856
     5  H    0.406005
     6  H    0.408958
 Sum of Mulliken charges =   0.00000

 Dipole moment (field-independent basis, Debye):
    X=             -1.6547    Y=             -4.7116    Z=              0.0000  Tot=              4.9937
 Quadrupole moment (field-independent basis, Debye-Ang):
   XX=             -9.3606   YY=             -8.8117   ZZ=            -15.0187
   XY=             -4.4471   XZ=              0.0000   YZ=              0.0000

 648\MP4DQ=-33.9028437\MP4SDQ=-33.9049583\CCSD=-33.9058913\CCSD(T)=-33.
 Normal termination of Gaussian 16 at Sun Dec 10 06:37:10 2023.
