 Gaussian 16, Revision A.03,
 Gaussian 16:  ES64L-G16RevA.03 25-Dec-2016

 ------------------
 #p CCSD(T)/CEP-31G
 ------------------

 ------------
 H2O_H2O_4533
 ------------
 Symbolic Z-matrix:
 Charge =  0 Multiplicity = 1

                         Standard orientation:
 ---------------------------------------------------------------------
 Center     Atomic      Atomic             Coordinates (Angstroms)
 Number     Number       Type             X           Y           Z
 ---------------------------------------------------------------------
      1          8           0        0.070184    2.912151    0.000000
      2          1           0        0.069501    1.929550    0.000000
      3          1           0       -0.859088    3.231463    0.000000
      4          8           0        0.070184   -2.741882   -0.000000
      5          1           0        0.560893   -3.593181   -0.000000
      6          1           0       -0.894245   -2.929984   -0.000000
 ---------------------------------------------------------------------

 SCF Done:  E(RHF) =  -33.6528446598     A.U. after   11 cycles
 E2 =    -0.2283215987D+00 EUMP2 =    -0.33881166258410D+02
 CCSD(T)
 CCSD(T)= -0.33898136729D+02

 The electronic state is 1-A'.
 Alpha  occ. eigenvalues --   -1.36267  -1.34792  -0.71910  -0.70415  -0.56064
 Alpha  occ. eigenvalues --   -0.54556  -0.50854  -0.49379
 Alpha virt. eigenvalues --    0.19542   0.21091   0.29807   0.31360   0.79703
 Alpha virt. eigenvalues --    0.81147   0.82598   0.84150   0.85738   0.87296
 Alpha virt. eigenvalues --    1.16681   1.18154   1.21123   1.22673   2.56661

 Mulliken charges:
               1
     1  O   -0.745274
     2  H    0.377846
     3  H    0.367419
     4  O   -0.745120
     5  H    0.374632
     6  H    0.370496
 Sum of Mulliken charges =   0.00000

 Dipole moment (field-independent basis, Debye):
    X=             -3.2259    Y=             -3.9947    Z=             -0.0000  Tot=              5.1346
 Quadrupole moment (field-independent basis, Debye-Ang):
   XX=            -10.0238   YY=             -5.9892   ZZ=            -14.9906
   XY=             -5.1085   XZ=             -0.0000   YZ=              0.0000

 547\MP4DQ=-33.8924998\MP4SDQ=-33.8945248\CCSD=-33.8955779\CCSD(T)=-33.
 Normal termination of Gaussian 16 at Sun Dec 10 06:54:36 2023.
