 Gaussian 16, Revision A.03,
 Gaussian 16:  ES64L-G16RevA.03 25-Dec-2016

 ------------------
 #p CCSD(T)/CEP-31G
 ------------------

 -----------
 H2O_H2O_875
 -----------
 Symbolic Z-matrix:
 Charge =  0 Multiplicity = 1

                         Standard orientation:
 ---------------------------------------------------------------------
 Center     Atomic      Atomic             Coordinates (Angstroms)
 Number     Number       Type             X           Y           Z
 ---------------------------------------------------------------------
      1          8           0        0.092949   -1.435889    0.000000
      2          1           0        0.092949   -0.453288    0.000000
      3          1           0       -0.836544   -1.754556    0.000000
      4          8           0        0.092949    1.303102    0.000000
      5          1           0        0.092950    2.285704    0.000000
      6          1           0       -0.836544    0.984435    0.000000
 ---------------------------------------------------------------------

 SCF Done:  E(RHF) =  -33.6466976485     A.U. after   11 cycles
 E2 =    -0.2294123282D+00 EUMP2 =    -0.33876109976695D+02
 CCSD(T)
 CCSD(T)= -0.33893018326D+02

 The electronic state is 1-A'.
 Alpha  occ. eigenvalues --   -1.39807  -1.33199  -0.76734  -0.68570  -0.59193
 Alpha  occ. eigenvalues --   -0.54108  -0.52591  -0.47627
 Alpha virt. eigenvalues --    0.16467   0.25059   0.27723   0.44704   0.74583
 Alpha virt. eigenvalues --    0.79206   0.84823   0.85772   0.91365   1.12101
 Alpha virt. eigenvalues --    1.14013   1.23608   1.31638   1.36936   2.52320

 Mulliken charges:
               1
     1  O   -0.728333
     2  H    0.362078
     3  H    0.342342
     4  O   -0.764202
     5  H    0.424766
     6  H    0.363349
 Sum of Mulliken charges =   0.00000

 Dipole moment (field-independent basis, Debye):
    X=             -4.0966    Y=              3.6447    Z=              0.0000  Tot=              5.4833
 Quadrupole moment (field-independent basis, Debye-Ang):
   XX=            -11.3691   YY=             -9.7131   ZZ=            -14.9834
   XY=              2.2138   XZ=              0.0000   YZ=              0.0000

 2\MP4DQ=-33.8869512\MP4SDQ=-33.8892446\CCSD=-33.890169\CCSD(T)=-33.893
 Normal termination of Gaussian 16 at Sun Dec 10 06:34:58 2023.
