 Gaussian 16, Revision A.03,
 Gaussian 16:  ES64L-G16RevA.03 25-Dec-2016

 ------------------
 #p CCSD(T)/CEP-31G
 ------------------

 ------------
 H2O_H2O_2381
 ------------
 Symbolic Z-matrix:
 Charge =  0 Multiplicity = 1

                         Standard orientation:
 ---------------------------------------------------------------------
 Center     Atomic      Atomic             Coordinates (Angstroms)
 Number     Number       Type             X           Y           Z
 ---------------------------------------------------------------------
      1          8           0        0.076766    2.050723    0.000000
      2          1           0        0.076068    1.068122    0.000000
      3          1           0       -0.852501    2.370049   -0.000000
      4          8           0        0.076766   -1.887529    0.000000
      5          1           0        0.452147   -2.795601    0.000000
      6          1           0       -0.903965   -1.948124   -0.000000
 ---------------------------------------------------------------------

 SCF Done:  E(RHF) =  -33.6550103938     A.U. after   11 cycles
 E2 =    -0.2285254200D+00 EUMP2 =    -0.33883535813762D+02
 CCSD(T)
 CCSD(T)= -0.33900486704D+02

 The electronic state is 1-A'.
 Alpha  occ. eigenvalues --   -1.37124  -1.33971  -0.72805  -0.69557  -0.57071
 Alpha  occ. eigenvalues --   -0.53746  -0.51732  -0.48571
 Alpha virt. eigenvalues --    0.17807   0.22961   0.29049   0.33113   0.78767
 Alpha virt. eigenvalues --    0.82020   0.83229   0.84937   0.87369   0.88412
 Alpha virt. eigenvalues --    1.15755   1.19500   1.20414   1.31245   2.54500

 Mulliken charges:
               1
     1  O   -0.755032
     2  H    0.392668
     3  H    0.360709
     4  O   -0.752935
     5  H    0.383508
     6  H    0.371083
 Sum of Mulliken charges =  -0.00000

 Dipole moment (field-independent basis, Debye):
    X=             -3.4889    Y=             -3.9679    Z=             -0.0000  Tot=              5.2836
 Quadrupole moment (field-independent basis, Debye-Ang):
   XX=            -10.3302   YY=             -7.8706   ZZ=            -14.9941
   XY=             -3.7487   XZ=              0.0000   YZ=             -0.0000

 049\MP4DQ=-33.894794\MP4SDQ=-33.8968609\CCSD=-33.8978928\CCSD(T)=-33.9
 Normal termination of Gaussian 16 at Sun Dec 10 07:05:16 2023.
