 Gaussian 16, Revision A.03,
 Gaussian 16:  ES64L-G16RevA.03 25-Dec-2016

 ------------------
 #p CCSD(T)/CEP-31G
 ------------------

 ------------
 H2O_H2O_4008
 ------------
 Symbolic Z-matrix:
 Charge =  0 Multiplicity = 1

                         Standard orientation:
 ---------------------------------------------------------------------
 Center     Atomic      Atomic             Coordinates (Angstroms)
 Number     Number       Type             X           Y           Z
 ---------------------------------------------------------------------
      1          8           0        0.070188    2.702736   -0.000000
      2          1           0        0.069451    1.720135   -0.000000
      3          1           0       -0.859065    3.022100    0.000000
      4          8           0        0.070188   -2.532475   -0.000000
      5          1           0        0.560851   -3.383802   -0.000000
      6          1           0       -0.894251   -2.720524    0.000000
 ---------------------------------------------------------------------

 SCF Done:  E(RHF) =  -33.6531708214     A.U. after   11 cycles
 E2 =    -0.2283153359D+00 EUMP2 =    -0.33881486157268D+02
 CCSD(T)
 CCSD(T)= -0.33898447307D+02

 The electronic state is 1-A'.
 Alpha  occ. eigenvalues --   -1.36385  -1.34644  -0.72030  -0.70263  -0.56201
 Alpha  occ. eigenvalues --   -0.54415  -0.50975  -0.49234
 Alpha virt. eigenvalues --    0.19380   0.21307   0.29695   0.31563   0.79586
 Alpha virt. eigenvalues --    0.81283   0.82415   0.84297   0.85585   0.87471
 Alpha virt. eigenvalues --    1.16576   1.18336   1.20996   1.22993   2.56540

 Mulliken charges:
               1
     1  O   -0.746554
     2  H    0.379924
     3  H    0.366575
     4  O   -0.746323
     5  H    0.375729
     6  H    0.370650
 Sum of Mulliken charges =   0.00000

 Dipole moment (field-independent basis, Debye):
    X=             -3.2206    Y=             -4.0106    Z=              0.0000  Tot=              5.1436
 Quadrupole moment (field-independent basis, Debye-Ang):
   XX=            -10.0252   YY=             -6.3609   ZZ=            -14.9912
   XY=             -4.8863   XZ=             -0.0000   YZ=              0.0000

 065\MP4DQ=-33.8928113\MP4SDQ=-33.8948367\CCSD=-33.8958881\CCSD(T)=-33.
 Normal termination of Gaussian 16 at Sun Dec 10 06:45:08 2023.
