 Gaussian 16, Revision A.03,
 Gaussian 16:  ES64L-G16RevA.03 25-Dec-2016

 ------------------
 #p CCSD(T)/CEP-31G
 ------------------

 -----------
 H2O_H2O_966
 -----------
 Symbolic Z-matrix:
 Charge =  0 Multiplicity = 1

                         Standard orientation:
 ---------------------------------------------------------------------
 Center     Atomic      Atomic             Coordinates (Angstroms)
 Number     Number       Type             X           Y           Z
 ---------------------------------------------------------------------
      1          8           0        0.041250    1.491367   -0.000000
      2          1           0        0.038112    0.508770   -0.000000
      3          1           0       -0.887220    1.813000   -0.000000
      4          8           0        0.041250   -1.311542    0.000000
      5          1           0        0.890635   -1.805558    0.000000
      6          1           0       -0.701529   -1.954805    0.000000
 ---------------------------------------------------------------------

 SCF Done:  E(RHF) =  -33.6631670332     A.U. after   11 cycles
 E2 =    -0.2290624500D+00 EUMP2 =    -0.33892229483241D+02
 CCSD(T)
 CCSD(T)= -0.33908599901D+02

 The electronic state is 1-A'.
 Alpha  occ. eigenvalues --   -1.39081  -1.30956  -0.74628  -0.68343  -0.59324
 Alpha  occ. eigenvalues --   -0.53826  -0.50460  -0.45595
 Alpha virt. eigenvalues --    0.17593   0.26743   0.27884   0.46234   0.75362
 Alpha virt. eigenvalues --    0.76884   0.85748   0.86755   0.95340   0.99998
 Alpha virt. eigenvalues --    1.15125   1.18749   1.22883   1.35882   2.53722

 Mulliken charges:
               1
     1  O   -0.786557
     2  H    0.436033
     3  H    0.347548
     4  O   -0.812973
     5  H    0.408967
     6  H    0.406982
 Sum of Mulliken charges =   0.00000

 Dipole moment (field-independent basis, Debye):
    X=             -1.8093    Y=             -4.7473    Z=              0.0000  Tot=              5.0804
 Quadrupole moment (field-independent basis, Debye-Ang):
   XX=             -9.3572   YY=             -8.8550   ZZ=            -15.0190
   XY=             -4.3382   XZ=             -0.0000   YZ=             -0.0000

 09\MP4DQ=-33.9027457\MP4SDQ=-33.9048622\CCSD=-33.905788\CCSD(T)=-33.90
 Normal termination of Gaussian 16 at Sun Dec 10 06:36:41 2023.
