 Gaussian 16, Revision A.03,
 Gaussian 16:  ES64L-G16RevA.03 25-Dec-2016

 ------------------
 #p CCSD(T)/CEP-31G
 ------------------

 -----------
 H2O_H2O_402
 -----------
 Symbolic Z-matrix:
 Charge =  0 Multiplicity = 1

                         Standard orientation:
 ---------------------------------------------------------------------
 Center     Atomic      Atomic             Coordinates (Angstroms)
 Number     Number       Type             X           Y           Z
 ---------------------------------------------------------------------
      1          8           0        0.088244   -1.252672    0.000000
      2          1           0        0.087904   -0.270071    0.000000
      3          1           0       -0.841139   -1.571659    0.000000
      4          8           0        0.088244    1.108382    0.000000
      5          1           0        0.216162    2.082621    0.000000
      6          1           0       -0.874825    0.913432    0.000000
 ---------------------------------------------------------------------

 SCF Done:  E(RHF) =  -33.6278349739     A.U. after   11 cycles
 E2 =    -0.2287615292D+00 EUMP2 =    -0.33856596503095D+02
 CCSD(T)
 CCSD(T)= -0.33872727342D+02

 The electronic state is 1-A'.
 Alpha  occ. eigenvalues --   -1.42658  -1.30931  -0.80306  -0.69468  -0.58595
 Alpha  occ. eigenvalues --   -0.56297  -0.49687  -0.45195
 Alpha virt. eigenvalues --    0.16304   0.24443   0.28573   0.54505   0.73358
 Alpha virt. eigenvalues --    0.76731   0.86519   0.88666   0.95451   1.10387
 Alpha virt. eigenvalues --    1.13430   1.23985   1.28183   1.43862   2.74996

 Mulliken charges:
               1
     1  O   -0.699555
     2  H    0.314282
     3  H    0.322863
     4  O   -0.786395
     5  H    0.470317
     6  H    0.378488
 Sum of Mulliken charges =  -0.00000

 Dipole moment (field-independent basis, Debye):
    X=             -3.7530    Y=              4.3752    Z=              0.0000  Tot=              5.7643
 Quadrupole moment (field-independent basis, Debye-Ang):
   XX=            -11.0403   YY=             -9.9122   ZZ=            -14.9602
   XY=              2.5073   XZ=              0.0000   YZ=              0.0000

 8\MP4DQ=-33.8664845\MP4SDQ=-33.8688952\CCSD=-33.8696897\CCSD(T)=-33.87
 Normal termination of Gaussian 16 at Sun Dec 10 06:25:58 2023.
