 Gaussian 16, Revision A.03,
 Gaussian 16:  ES64L-G16RevA.03 25-Dec-2016

 ------------------
 #p CCSD(T)/CEP-31G
 ------------------

 ------------
 H2O_H2O_4796
 ------------
 Symbolic Z-matrix:
 Charge =  0 Multiplicity = 1

                         Standard orientation:
 ---------------------------------------------------------------------
 Center     Atomic      Atomic             Coordinates (Angstroms)
 Number     Number       Type             X           Y           Z
 ---------------------------------------------------------------------
      1          8           0       -0.023158    3.011955    0.000000
      2          1           0       -0.021136    2.029355    0.000000
      3          1           0        0.905677    3.332533    0.000000
      4          8           0       -0.023158   -2.841540    0.000000
      5          1           0       -0.986483   -3.035218    0.000000
      6          1           0        0.472468   -3.689986    0.000000
 ---------------------------------------------------------------------

 SCF Done:  E(RHF) =  -33.6532324283     A.U. after   11 cycles
 E2 =    -0.2282981668D+00 EUMP2 =    -0.33881530595029D+02
 CCSD(T)
 CCSD(T)= -0.33898490866D+02

 The electronic state is 1-A'.
 Alpha  occ. eigenvalues --   -1.36197  -1.34816  -0.71836  -0.70453  -0.56012
 Alpha  occ. eigenvalues --   -0.54602  -0.50790  -0.49413
 Alpha virt. eigenvalues --    0.19649   0.21066   0.29904   0.31343   0.79760
 Alpha virt. eigenvalues --    0.81109   0.82638   0.84094   0.85803   0.87190
 Alpha virt. eigenvalues --    1.16768   1.18151   1.21211   1.22633   2.56741

 Mulliken charges:
               1
     1  O   -0.746732
     2  H    0.377066
     3  H    0.369662
     4  O   -0.746318
     5  H    0.373287
     6  H    0.373034
 Sum of Mulliken charges =   0.00000

 Dipole moment (field-independent basis, Debye):
    X=              1.0642    Y=             -3.9880    Z=              0.0000  Tot=              4.1276
 Quadrupole moment (field-independent basis, Debye-Ang):
   XX=             -9.5991   YY=             -5.7665   ZZ=            -14.9915
   XY=              9.8511   XZ=              0.0000   YZ=              0.0000

 099\MP4DQ=-33.8928569\MP4SDQ=-33.8948808\CCSD=-33.8959336\CCSD(T)=-33.
 Normal termination of Gaussian 16 at Sun Dec 10 06:59:20 2023.
