 Gaussian 16, Revision A.03,
 Gaussian 16:  ES64L-G16RevA.03 25-Dec-2016

 ------------------
 #p CCSD(T)/CEP-31G
 ------------------

 ------------
 H2O_H2O_1849
 ------------
 Symbolic Z-matrix:
 Charge =  0 Multiplicity = 1

                         Standard orientation:
 ---------------------------------------------------------------------
 Center     Atomic      Atomic             Coordinates (Angstroms)
 Number     Number       Type             X           Y           Z
 ---------------------------------------------------------------------
      1          8           0       -0.013590    1.829204    0.000000
      2          1           0       -0.009738    0.846611    0.000000
      3          1           0        0.914646    2.151512    0.000000
      4          8           0       -0.013590   -1.669967    0.000000
      5          1           0       -0.996184   -1.673819    0.000000
      6          1           0        0.308718   -2.598204    0.000000
 ---------------------------------------------------------------------

 SCF Done:  E(RHF) =  -33.6587738528     A.U. after   11 cycles
 E2 =    -0.2285841702D+00 EUMP2 =    -0.33887358023078D+02
 CCSD(T)
 CCSD(T)= -0.33904259356D+02

 The electronic state is 1-A'.
 Alpha  occ. eigenvalues --   -1.37497  -1.33359  -0.73217  -0.69051  -0.57732
 Alpha  occ. eigenvalues --   -0.53221  -0.52151  -0.48035
 Alpha virt. eigenvalues --    0.17701   0.24289   0.28934   0.35659   0.77963
 Alpha virt. eigenvalues --    0.81864   0.82922   0.85882   0.87965   0.96088
 Alpha virt. eigenvalues --    1.15714   1.19396   1.20835   1.36592   2.52626

 Mulliken charges:
               1
     1  O   -0.771806
     2  H    0.401670
     3  H    0.367275
     4  O   -0.769091
     5  H    0.382561
     6  H    0.389391
 Sum of Mulliken charges =  -0.00000

 Dipole moment (field-independent basis, Debye):
    X=              0.6099    Y=             -3.9451    Z=              0.0000  Tot=              3.9919
 Quadrupole moment (field-independent basis, Debye-Ang):
   XX=             -9.8565   YY=             -8.3386   ZZ=            -15.0016
   XY=              6.5664   XZ=              0.0000   YZ=              0.0000

 \MP4DQ=-33.8985167\MP4SDQ=-33.900611\CCSD=-33.9016303\CCSD(T)=-33.9042
 Normal termination of Gaussian 16 at Sun Dec 10 06:53:47 2023.
