 Gaussian 16, Revision A.03,
 Gaussian 16:  ES64L-G16RevA.03 25-Dec-2016

 ------------------
 #p CCSD(T)/CEP-31G
 ------------------

 ------------
 H2O_H2O_3073
 ------------
 Symbolic Z-matrix:
 Charge =  0 Multiplicity = 1

                         Standard orientation:
 ---------------------------------------------------------------------
 Center     Atomic      Atomic             Coordinates (Angstroms)
 Number     Number       Type             X           Y           Z
 ---------------------------------------------------------------------
      1          8           0       -0.016629    2.320079    0.000000
      2          1           0       -0.013736    1.337482    0.000000
      3          1           0        0.911921    2.641482    0.000000
      4          8           0       -0.016629   -2.156691    0.000000
      5          1           0       -0.996933   -2.223842    0.000000
      6          1           0        0.364816   -3.062232    0.000000
 ---------------------------------------------------------------------

 SCF Done:  E(RHF) =  -33.6551738870     A.U. after   11 cycles
 E2 =    -0.2282967504D+00 EUMP2 =    -0.33883470637345D+02
 CCSD(T)
 CCSD(T)= -0.33900384456D+02

 The electronic state is 1-A'.
 Alpha  occ. eigenvalues --   -1.36665  -1.34282  -0.72317  -0.69926  -0.56593
 Alpha  occ. eigenvalues --   -0.54122  -0.51284  -0.48909
 Alpha virt. eigenvalues --    0.18673   0.22133   0.29496   0.32149   0.79279
 Alpha virt. eigenvalues --    0.81581   0.82409   0.84358   0.85605   0.87713
 Alpha virt. eigenvalues --    1.16314   1.19085   1.20756   1.25624   2.56281

 Mulliken charges:
               1
     1  O   -0.754518
     2  H    0.384807
     3  H    0.369111
     4  O   -0.752912
     5  H    0.376248
     6  H    0.377264
 Sum of Mulliken charges =   0.00000

 Dipole moment (field-independent basis, Debye):
    X=              0.7573    Y=             -3.8912    Z=              0.0000  Tot=              3.9642
 Quadrupole moment (field-independent basis, Debye-Ang):
   XX=             -9.7670   YY=             -7.4243   ZZ=            -14.9951
   XY=              8.1206   XZ=              0.0000   YZ=              0.0000

 9907\MP4DQ=-33.8947446\MP4SDQ=-33.8967787\CCSD=-33.8978196\CCSD(T)=-33
 Normal termination of Gaussian 16 at Sun Dec 10 06:28:22 2023.
