 Gaussian 16, Revision A.03,
 Gaussian 16:  ES64L-G16RevA.03 25-Dec-2016

 ------------------
 #p CCSD(T)/CEP-31G
 ------------------

 ------------
 H2O_H2O_4744
 ------------
 Symbolic Z-matrix:
 Charge =  0 Multiplicity = 1

                         Standard orientation:
 ---------------------------------------------------------------------
 Center     Atomic      Atomic             Coordinates (Angstroms)
 Number     Number       Type             X           Y           Z
 ---------------------------------------------------------------------
      1          8           0        0.030142    2.994847   -0.000000
      2          1           0        0.028310    2.012248   -0.000000
      3          1           0       -0.898755    3.315247   -0.000000
      4          8           0        0.030142   -2.819208    0.000000
      5          1           0        0.960007   -3.136790    0.000000
      6          1           0       -0.571838   -3.595819    0.000000
 ---------------------------------------------------------------------

 SCF Done:  E(RHF) =  -33.6532666207     A.U. after   11 cycles
 E2 =    -0.2282984649D+00 EUMP2 =    -0.33881565085603D+02
 CCSD(T)
 CCSD(T)= -0.33898524032D+02

 The electronic state is 1-A'.
 Alpha  occ. eigenvalues --   -1.36206  -1.34758  -0.71845  -0.70393  -0.56024
 Alpha  occ. eigenvalues --   -0.54544  -0.50800  -0.49355
 Alpha virt. eigenvalues --    0.19641   0.21130   0.29895   0.31409   0.79750
 Alpha virt. eigenvalues --    0.81165   0.82621   0.84152   0.85797   0.87253
 Alpha virt. eigenvalues --    1.16759   1.18209   1.21202   1.22697   2.56732

 Mulliken charges:
               1
     1  O   -0.746869
     2  H    0.377645
     3  H    0.369220
     4  O   -0.746383
     5  H    0.373606
     6  H    0.372782
 Sum of Mulliken charges =   0.00000

 Dipole moment (field-independent basis, Debye):
    X=             -1.3849    Y=             -4.1122    Z=              0.0000  Tot=              4.3392
 Quadrupole moment (field-independent basis, Debye-Ang):
   XX=             -9.4759   YY=             -5.3180   ZZ=            -14.9916
   XY=             -9.0874   XZ=              0.0000   YZ=             -0.0000

 432\MP4DQ=-33.8928905\MP4SDQ=-33.8949143\CCSD=-33.8959669\CCSD(T)=-33.
 Normal termination of Gaussian 16 at Sun Dec 10 06:58:24 2023.
