 Gaussian 16, Revision A.03,
 Gaussian 16:  ES64L-G16RevA.03 25-Dec-2016

 ------------------
 #p CCSD(T)/CEP-31G
 ------------------

 ------------
 H2O_H2O_1158
 ------------
 Symbolic Z-matrix:
 Charge =  0 Multiplicity = 1

                         Standard orientation:
 ---------------------------------------------------------------------
 Center     Atomic      Atomic             Coordinates (Angstroms)
 Number     Number       Type             X           Y           Z
 ---------------------------------------------------------------------
      1          8           0        0.070237    1.565896    0.000000
      2          1           0        0.068933    0.583296    0.000000
      3          1           0       -0.858832    1.885796    0.000000
      4          8           0        0.070237   -1.395716   -0.000000
      5          1           0        0.560409   -2.247325   -0.000000
      6          1           0       -0.894310   -1.583209   -0.000000
 ---------------------------------------------------------------------

 SCF Done:  E(RHF) =  -33.6596369272     A.U. after   11 cycles
 E2 =    -0.2290273179D+00 EUMP2 =    -0.33888664245150D+02
 CCSD(T)
 CCSD(T)= -0.33905388699D+02

 The electronic state is 1-A'.
 Alpha  occ. eigenvalues --   -1.38664  -1.32068  -0.74436  -0.68279  -0.58951
 Alpha  occ. eigenvalues --   -0.53319  -0.51661  -0.46665
 Alpha virt. eigenvalues --    0.17379   0.25751   0.27937   0.42435   0.75968
 Alpha virt. eigenvalues --    0.78901   0.85327   0.85445   0.92903   1.06948
 Alpha virt. eigenvalues --    1.15462   1.17911   1.21794   1.36367   2.51005

 Mulliken charges:
               1
     1  O   -0.772863
     2  H    0.423722
     3  H    0.346530
     4  O   -0.795105
     5  H    0.416094
     6  H    0.381621
 Sum of Mulliken charges =   0.00000

 Dipole moment (field-independent basis, Debye):
    X=             -3.0922    Y=             -4.4361    Z=             -0.0000  Tot=              5.4074
 Quadrupole moment (field-independent basis, Debye-Ang):
   XX=            -10.0329   YY=             -8.6460   ZZ=            -15.0073
   XY=             -3.6882   XZ=              0.0000   YZ=              0.0000

 8331\MP4DQ=-33.8995247\MP4SDQ=-33.9016661\CCSD=-33.9026422\CCSD(T)=-33
 Normal termination of Gaussian 16 at Sun Dec 10 06:40:18 2023.
