 Gaussian 16, Revision A.03,
 Gaussian 16:  ES64L-G16RevA.03 25-Dec-2016

 ------------------
 #p CCSD(T)/CEP-31G
 ------------------

 ------------
 H2O_H2O_1066
 ------------
 Symbolic Z-matrix:
 Charge =  0 Multiplicity = 1

                         Standard orientation:
 ---------------------------------------------------------------------
 Center     Atomic      Atomic             Coordinates (Angstroms)
 Number     Number       Type             X           Y           Z
 ---------------------------------------------------------------------
      1          8           0        0.041242    1.531258   -0.000000
      2          1           0        0.038191    0.548661   -0.000000
      3          1           0       -0.887257    1.852809   -0.000000
      4          8           0        0.041242   -1.351426    0.000000
      5          1           0        0.890672   -1.845367    0.000000
      6          1           0       -0.701479   -1.994755    0.000000
 ---------------------------------------------------------------------

 SCF Done:  E(RHF) =  -33.6632658008     A.U. after   11 cycles
 E2 =    -0.2290418404D+00 EUMP2 =    -0.33892307641205D+02
 CCSD(T)
 CCSD(T)= -0.33908785374D+02

 The electronic state is 1-A'.
 Alpha  occ. eigenvalues --   -1.38801  -1.31258  -0.74379  -0.68132  -0.59248
 Alpha  occ. eigenvalues --   -0.53544  -0.50846  -0.45912
 Alpha virt. eigenvalues --    0.17674   0.26434   0.28053   0.44639   0.75712
 Alpha virt. eigenvalues --    0.77579   0.85857   0.86239   0.94422   1.00267
 Alpha virt. eigenvalues --    1.15080   1.18903   1.22536   1.35293   2.52037

 Mulliken charges:
               1
     1  O   -0.786765
     2  H    0.435025
     3  H    0.349779
     4  O   -0.806454
     5  H    0.405389
     6  H    0.403025
 Sum of Mulliken charges =   0.00000

 Dipole moment (field-independent basis, Debye):
    X=             -1.8163    Y=             -4.6967    Z=              0.0000  Tot=              5.0357
 Quadrupole moment (field-independent basis, Debye-Ang):
   XX=             -9.3633   YY=             -8.6896   ZZ=            -15.0176
   XY=             -4.4449   XZ=              0.0000   YZ=             -0.0000

 2661\MP4DQ=-33.9029505\MP4SDQ=-33.905059\CCSD=-33.9060051\CCSD(T)=-33.
 Normal termination of Gaussian 16 at Sun Dec 10 06:38:33 2023.
