 Gaussian 16, Revision A.03,
 Gaussian 16:  ES64L-G16RevA.03 25-Dec-2016

 ------------------
 #p CCSD(T)/CEP-31G
 ------------------

 -----------
 H2O_H2O_778
 -----------
 Symbolic Z-matrix:
 Charge =  0 Multiplicity = 1

                         Standard orientation:
 ---------------------------------------------------------------------
 Center     Atomic      Atomic             Coordinates (Angstroms)
 Number     Number       Type             X           Y           Z
 ---------------------------------------------------------------------
      1          8           0        0.085616   -1.405115    0.000000
      2          1           0        0.085147   -0.422514    0.000000
      3          1           0       -0.843725   -1.724225    0.000000
      4          8           0        0.085616    1.255552    0.000000
      5          1           0        0.276852    2.219364    0.000000
      6          1           0       -0.888124    1.123880    0.000000
 ---------------------------------------------------------------------

 SCF Done:  E(RHF) =  -33.6501451112     A.U. after   11 cycles
 E2 =    -0.2290307255D+00 EUMP2 =    -0.33879175836654D+02
 CCSD(T)
 CCSD(T)= -0.33895849012D+02

 The electronic state is 1-A'.
 Alpha  occ. eigenvalues --   -1.40060  -1.32079  -0.76651  -0.68577  -0.59261
 Alpha  occ. eigenvalues --   -0.54438  -0.51378  -0.46529
 Alpha virt. eigenvalues --    0.16667   0.25564   0.27607   0.47184   0.74441
 Alpha virt. eigenvalues --    0.78012   0.85137   0.86763   0.93539   1.10990
 Alpha virt. eigenvalues --    1.14913   1.23137   1.30814   1.36361   2.56727

 Mulliken charges:
               1
     1  O   -0.739158
     2  H    0.380972
     3  H    0.337509
     4  O   -0.795324
     5  H    0.440870
     6  H    0.375131
 Sum of Mulliken charges =  -0.00000

 Dipole moment (field-independent basis, Debye):
    X=             -3.7323    Y=              4.1488    Z=              0.0000  Tot=              5.5805
 Quadrupole moment (field-independent basis, Debye-Ang):
   XX=            -10.8703   YY=             -9.3708   ZZ=            -14.9929
   XY=              2.7764   XZ=              0.0000   YZ=              0.0000

 543\MP4DQ=-33.8898082\MP4SDQ=-33.8920767\CCSD=-33.8929966\CCSD(T)=-33.
 Normal termination of Gaussian 16 at Sun Dec 10 06:33:09 2023.
