 Gaussian 16, Revision A.03,
 Gaussian 16:  ES64L-G16RevA.03 25-Dec-2016

 ------------------
 #p CCSD(T)/CEP-31G
 ------------------

 ------------
 H2O_H2O_3093
 ------------
 Symbolic Z-matrix:
 Charge =  0 Multiplicity = 1

                         Standard orientation:
 ---------------------------------------------------------------------
 Center     Atomic      Atomic             Coordinates (Angstroms)
 Number     Number       Type             X           Y           Z
 ---------------------------------------------------------------------
      1          8           0        0.033792    2.337725    0.000000
      2          1           0        0.031559    1.355126    0.000000
      3          1           0       -0.894975    2.658502    0.000000
      4          8           0        0.033792   -2.160203   -0.000000
      5          1           0        0.940741   -2.538290   -0.000000
      6          1           0       -0.617992   -2.895515   -0.000000
 ---------------------------------------------------------------------

 SCF Done:  E(RHF) =  -33.6552897081     A.U. after   11 cycles
 E2 =    -0.2283063085D+00 EUMP2 =    -0.33883596016598D+02
 CCSD(T)
 CCSD(T)= -0.33900502599D+02

 The electronic state is 1-A'.
 Alpha  occ. eigenvalues --   -1.36666  -1.34079  -0.72311  -0.69710  -0.56605
 Alpha  occ. eigenvalues --   -0.53913  -0.51288  -0.48704
 Alpha virt. eigenvalues --    0.18909   0.22194   0.29527   0.32325   0.79278
 Alpha virt. eigenvalues --    0.81778   0.82445   0.84607   0.85470   0.87905
 Alpha virt. eigenvalues --    1.16375   1.19207   1.20781   1.25292   2.56128

 Mulliken charges:
               1
     1  O   -0.754880
     2  H    0.387302
     3  H    0.366891
     4  O   -0.752624
     5  H    0.377578
     6  H    0.375734
 Sum of Mulliken charges =  -0.00000

 Dipole moment (field-independent basis, Debye):
    X=             -1.5402    Y=             -4.2318    Z=             -0.0000  Tot=              4.5033
 Quadrupole moment (field-independent basis, Debye-Ang):
   XX=             -9.4313   YY=             -6.5463   ZZ=            -14.9956
   XY=             -6.9279   XZ=             -0.0000   YZ=              0.0000

 102\MP4DQ=-33.8948648\MP4SDQ=-33.8968988\CCSD=-33.8979391\CCSD(T)=-33.
 Normal termination of Gaussian 16 at Sun Dec 10 06:28:44 2023.
