 Gaussian 16, Revision A.03,
 Gaussian 16:  ES64L-G16RevA.03 25-Dec-2016

 ------------------
 #p CCSD(T)/CEP-31G
 ------------------

 ------------
 H2O_H2O_2192
 ------------
 Symbolic Z-matrix:
 Charge =  0 Multiplicity = 1

                         Standard orientation:
 ---------------------------------------------------------------------
 Center     Atomic      Atomic             Coordinates (Angstroms)
 Number     Number       Type             X           Y           Z
 ---------------------------------------------------------------------
      1          8           0        0.037484    1.979503    0.000000
      2          1           0        0.034991    0.996905    0.000000
      3          1           0       -0.891198    2.300526    0.000000
      4          8           0        0.037484   -1.800570    0.000000
      5          1           0        0.917647   -2.237398    0.000000
      6          1           0       -0.661179   -2.491494    0.000000
 ---------------------------------------------------------------------

 SCF Done:  E(RHF) =  -33.6579684916     A.U. after   11 cycles
 E2 =    -0.2284971951D+00 EUMP2 =    -0.33886465686667D+02
 CCSD(T)
 CCSD(T)= -0.33903340518D+02

 The electronic state is 1-A'.
 Alpha  occ. eigenvalues --   -1.37206  -1.33306  -0.72855  -0.68951  -0.57361
 Alpha  occ. eigenvalues --   -0.53164  -0.51863  -0.47960
 Alpha virt. eigenvalues --    0.18258   0.23612   0.29149   0.34340   0.78565
 Alpha virt. eigenvalues --    0.82644   0.83305   0.86030   0.87263   0.89031
 Alpha virt. eigenvalues --    1.15897   1.20084   1.20462   1.31471   2.52835

 Mulliken charges:
               1
     1  O   -0.766969
     2  H    0.401591
     3  H    0.363168
     4  O   -0.761049
     5  H    0.383085
     6  H    0.380175
 Sum of Mulliken charges =   0.00000

 Dipole moment (field-independent basis, Debye):
    X=             -1.6927    Y=             -4.3734    Z=              0.0000  Tot=              4.6895
 Quadrupole moment (field-independent basis, Debye-Ang):
   XX=             -9.4030   YY=             -7.3030   ZZ=            -15.0008
   XY=             -5.7564   XZ=              0.0000   YZ=              0.0000

 5\MP4DQ=-33.8976494\MP4SDQ=-33.8997158\CCSD=-33.9007416\CCSD(T)=-33.90
 Normal termination of Gaussian 16 at Sun Dec 10 07:00:36 2023.
