 Gaussian 16, Revision A.03,
 Gaussian 16:  ES64L-G16RevA.03 25-Dec-2016

 ------------------
 #p CCSD(T)/CEP-31G
 ------------------

 -----------
 H2O_H2O_357
 -----------
 Symbolic Z-matrix:
 Charge =  0 Multiplicity = 1

                         Standard orientation:
 ---------------------------------------------------------------------
 Center     Atomic      Atomic             Coordinates (Angstroms)
 Number     Number       Type             X           Y           Z
 ---------------------------------------------------------------------
      1          8           0        0.073594   -1.244980    0.000000
      2          1           0        0.072176   -0.262380    0.000000
      3          1           0       -0.855438   -1.564988    0.000000
      4          8           0        0.073594    1.078142    0.000000
      5          1           0        0.506916    1.960037    0.000000
      6          1           0       -0.901165    1.202036    0.000000
 ---------------------------------------------------------------------

 SCF Done:  E(RHF) =  -33.6361137956     A.U. after   11 cycles
 E2 =    -0.2285833623D+00 EUMP2 =    -0.33864697157821D+02
 CCSD(T)
 CCSD(T)= -0.33880264544D+02

 The electronic state is 1-A'.
 Alpha  occ. eigenvalues --   -1.42622  -1.29346  -0.79021  -0.71875  -0.57497
 Alpha  occ. eigenvalues --   -0.56633  -0.47781  -0.43614
 Alpha virt. eigenvalues --    0.16477   0.25260   0.28835   0.56888   0.73513
 Alpha virt. eigenvalues --    0.75059   0.86577   0.89709   0.96639   1.07036
 Alpha virt. eigenvalues --    1.14240   1.22914   1.24221   1.35642   2.82528

 Mulliken charges:
               1
     1  O   -0.735846
     2  H    0.372676
     3  H    0.317768
     4  O   -0.829750
     5  H    0.474889
     6  H    0.400263
 Sum of Mulliken charges =  -0.00000

 Dipole moment (field-independent basis, Debye):
    X=             -3.0532    Y=              4.9862    Z=              0.0000  Tot=              5.8467
 Quadrupole moment (field-independent basis, Debye-Ang):
   XX=            -10.1579   YY=             -9.9224   ZZ=            -14.9755
   XY=              3.2046   XZ=              0.0000   YZ=              0.0000

 7\MP4DQ=-33.8741216\MP4SDQ=-33.8764418\CCSD=-33.8772014\CCSD(T)=-33.88
 Normal termination of Gaussian 16 at Sun Dec 10 06:25:05 2023.
