 Gaussian 16, Revision A.03,
 Gaussian 16:  ES64L-G16RevA.03 25-Dec-2016

 ------------------
 #p CCSD(T)/CEP-31G
 ------------------

 ------------
 H2O_H2O_1715
 ------------
 Symbolic Z-matrix:
 Charge =  0 Multiplicity = 1

                         Standard orientation:
 ---------------------------------------------------------------------
 Center     Atomic      Atomic             Coordinates (Angstroms)
 Number     Number       Type             X           Y           Z
 ---------------------------------------------------------------------
      1          8           0        0.044913    1.790804   -0.000000
      2          1           0        0.042512    0.808205   -0.000000
      3          1           0       -0.883799    2.111740   -0.000000
      4          8           0        0.044913   -1.610458    0.000000
      5          1           0        0.860581   -2.158356    0.000000
      6          1           0       -0.737900   -2.204352    0.000000
 ---------------------------------------------------------------------

 SCF Done:  E(RHF) =  -33.6601293483     A.U. after   11 cycles
 E2 =    -0.2287290416D+00 EUMP2 =    -0.33888858389854D+02
 CCSD(T)
 CCSD(T)= -0.33905677183D+02

 The electronic state is 1-A'.
 Alpha  occ. eigenvalues --   -1.37672  -1.32656  -0.73315  -0.68395  -0.58060
 Alpha  occ. eigenvalues --   -0.52479  -0.52358  -0.47321
 Alpha virt. eigenvalues --    0.18042   0.24667   0.28798   0.37231   0.77700
 Alpha virt. eigenvalues --    0.81639   0.83680   0.86156   0.89998   0.93976
 Alpha virt. eigenvalues --    1.15446   1.19886   1.20853   1.33550   2.50231

 Mulliken charges:
               1
     1  O   -0.776174
     2  H    0.415868
     3  H    0.358303
     4  O   -0.772458
     5  H    0.390193
     6  H    0.384268
 Sum of Mulliken charges =   0.00000

 Dipole moment (field-independent basis, Debye):
    X=             -2.0123    Y=             -4.4979    Z=              0.0000  Tot=              4.9275
 Quadrupole moment (field-independent basis, Debye-Ang):
   XX=             -9.4088   YY=             -7.7853   ZZ=            -15.0058
   XY=             -4.9731   XZ=              0.0000   YZ=             -0.0000

 2024\MP4DQ=-33.8999354\MP4SDQ=-33.9020169\CCSD=-33.9030305\CCSD(T)=-33
 Normal termination of Gaussian 16 at Sun Dec 10 06:51:16 2023.
