 Gaussian 16, Revision A.03,
 Gaussian 16:  ES64L-G16RevA.03 25-Dec-2016

 ------------------
 #p CCSD(T)/CEP-31G
 ------------------

 ------------
 H2O_H2O_3562
 ------------
 Symbolic Z-matrix:
 Charge =  0 Multiplicity = 1

                         Standard orientation:
 ---------------------------------------------------------------------
 Center     Atomic      Atomic             Coordinates (Angstroms)
 Number     Number       Type             X           Y           Z
 ---------------------------------------------------------------------
      1          8           0        0.055981    2.527947    0.000000
      2          1           0        0.054694    1.545346    0.000000
      3          1           0       -0.873094    2.847830    0.000000
      4          8           0        0.055981   -2.349027   -0.000000
      5          1           0        0.749874   -3.044740   -0.000000
      6          1           0       -0.827166   -2.779790   -0.000000
 ---------------------------------------------------------------------

 SCF Done:  E(RHF) =  -33.6540808420     A.U. after   11 cycles
 E2 =    -0.2283010986D+00 EUMP2 =    -0.33882381940567D+02
 CCSD(T)
 CCSD(T)= -0.33899317119D+02

 The electronic state is 1-A'.
 Alpha  occ. eigenvalues --   -1.36502  -1.34341  -0.72146  -0.69961  -0.56371
 Alpha  occ. eigenvalues --   -0.54138  -0.51106  -0.48945
 Alpha virt. eigenvalues --    0.19225   0.21723   0.29634   0.31940   0.79458
 Alpha virt. eigenvalues --    0.81554   0.82243   0.84595   0.85439   0.87739
 Alpha virt. eigenvalues --    1.16498   1.18742   1.20919   1.23702   2.56466

 Mulliken charges:
               1
     1  O   -0.750057
     2  H    0.383629
     3  H    0.366196
     4  O   -0.749073
     5  H    0.376789
     6  H    0.372516
 Sum of Mulliken charges =   0.00000

 Dipole moment (field-independent basis, Debye):
    X=             -2.5619    Y=             -4.2347    Z=             -0.0000  Tot=              4.9494
 Quadrupole moment (field-independent basis, Debye-Ang):
   XX=             -9.5845   YY=             -6.0614   ZZ=            -14.9932
   XY=             -5.8228   XZ=             -0.0000   YZ=              0.0000

 335\MP4DQ=-33.8936837\MP4SDQ=-33.8957106\CCSD=-33.8967578\CCSD(T)=-33.
 Normal termination of Gaussian 16 at Sun Dec 10 06:37:06 2023.
