 Gaussian 16, Revision A.03,
 Gaussian 16:  ES64L-G16RevA.03 25-Dec-2016

 ------------------
 #p CCSD(T)/CEP-31G
 ------------------

 ------------
 H2O_H2O_4307
 ------------
 Symbolic Z-matrix:
 Charge =  0 Multiplicity = 1

                         Standard orientation:
 ---------------------------------------------------------------------
 Center     Atomic      Atomic             Coordinates (Angstroms)
 Number     Number       Type             X           Y           Z
 ---------------------------------------------------------------------
      1          8           0        0.073525    2.820606   -0.000000
      2          1           0        0.072923    1.838005   -0.000000
      3          1           0       -0.855772    3.139842    0.000000
      4          8           0        0.073525   -2.653646   -0.000000
      5          1           0        0.507578   -3.535181   -0.000000
      6          1           0       -0.901132   -2.778349    0.000000
 ---------------------------------------------------------------------

 SCF Done:  E(RHF) =  -33.6528642797     A.U. after   11 cycles
 E2 =    -0.2283228102D+00 EUMP2 =    -0.33881187089855D+02
 CCSD(T)
 CCSD(T)= -0.33898157133D+02

 The electronic state is 1-A'.
 Alpha  occ. eigenvalues --   -1.36317  -1.34773  -0.71962  -0.70394  -0.56116
 Alpha  occ. eigenvalues --   -0.54536  -0.50904  -0.49359
 Alpha virt. eigenvalues --    0.19470   0.21129   0.29754   0.31392   0.79655
 Alpha virt. eigenvalues --    0.81166   0.82535   0.84173   0.85673   0.87335
 Alpha virt. eigenvalues --    1.16631   1.18179   1.21066   1.22735   2.56600

 Mulliken charges:
               1
     1  O   -0.745364
     2  H    0.378321
     3  H    0.367024
     4  O   -0.745273
     5  H    0.375067
     6  H    0.370226
 Sum of Mulliken charges =  -0.00000

 Dipole moment (field-independent basis, Debye):
    X=             -3.3777    Y=             -3.9233    Z=              0.0000  Tot=              5.1770
 Quadrupole moment (field-independent basis, Debye-Ang):
   XX=            -10.1665   YY=             -6.4380   ZZ=            -14.9906
   XY=             -4.6761   XZ=             -0.0000   YZ=              0.0000

 7748\MP4DQ=-33.8925198\MP4SDQ=-33.8945451\CCSD=-33.8955979\CCSD(T)=-33
 Normal termination of Gaussian 16 at Sun Dec 10 06:50:31 2023.
