 Gaussian 16, Revision A.03,
 Gaussian 16:  ES64L-G16RevA.03 25-Dec-2016

 ------------------
 #p CCSD(T)/CEP-31G
 ------------------

 ------------
 H2O_H2O_2331
 ------------
 Symbolic Z-matrix:
 Charge =  0 Multiplicity = 1

                         Standard orientation:
 ---------------------------------------------------------------------
 Center     Atomic      Atomic             Coordinates (Angstroms)
 Number     Number       Type             X           Y           Z
 ---------------------------------------------------------------------
      1          8           0        0.076766    2.030778   -0.000000
      2          1           0        0.076061    1.048177   -0.000000
      3          1           0       -0.852498    2.350111   -0.000000
      4          8           0        0.076766   -1.867585    0.000000
      5          1           0        0.452141   -2.775660    0.000000
      6          1           0       -0.903966   -1.928173    0.000000
 ---------------------------------------------------------------------

 SCF Done:  E(RHF) =  -33.6551238609     A.U. after   11 cycles
 E2 =    -0.2285424443D+00 EUMP2 =    -0.33883666305282D+02
 CCSD(T)
 CCSD(T)= -0.33900618263D+02

 The electronic state is 1-A'.
 Alpha  occ. eigenvalues --   -1.37161  -1.33933  -0.72844  -0.69518  -0.57118
 Alpha  occ. eigenvalues --   -0.53707  -0.51770  -0.48534
 Alpha virt. eigenvalues --    0.17767   0.23048   0.29023   0.33259   0.78713
 Alpha virt. eigenvalues --    0.82075   0.83201   0.84964   0.87775   0.88516
 Alpha virt. eigenvalues --    1.15717   1.19524   1.20408   1.31764   2.54288

 Mulliken charges:
               1
     1  O   -0.755613
     2  H    0.393482
     3  H    0.360388
     4  O   -0.753453
     5  H    0.384020
     6  H    0.371176
 Sum of Mulliken charges =   0.00000

 Dipole moment (field-independent basis, Debye):
    X=             -3.4870    Y=             -3.9747    Z=              0.0000  Tot=              5.2875
 Quadrupole moment (field-independent basis, Debye-Ang):
   XX=            -10.3308   YY=             -7.9014   ZZ=            -14.9942
   XY=             -3.7334   XZ=              0.0000   YZ=             -0.0000

 \MP4DQ=-33.8949206\MP4SDQ=-33.8969903\CCSD=-33.8980214\CCSD(T)=-33.900
 Normal termination of Gaussian 16 at Sun Dec 10 07:04:20 2023.
