 Gaussian 16, Revision A.03,
 Gaussian 16:  ES64L-G16RevA.03 25-Dec-2016

 ------------------
 #p CCSD(T)/CEP-31G
 ------------------

 ------------
 H2O_H2O_4220
 ------------
 Symbolic Z-matrix:
 Charge =  0 Multiplicity = 1

                         Standard orientation:
 ---------------------------------------------------------------------
 Center     Atomic      Atomic             Coordinates (Angstroms)
 Number     Number       Type             X           Y           Z
 ---------------------------------------------------------------------
      1          8           0        0.026622    2.784139   -0.000000
      2          1           0        0.024536    1.801539   -0.000000
      3          1           0       -0.902193    3.104777    0.000000
      4          8           0        0.026622   -2.610892   -0.000000
      5          1           0        0.975200   -2.867221   -0.000000
      6          1           0       -0.523487   -3.425071    0.000000
 ---------------------------------------------------------------------

 SCF Done:  E(RHF) =  -33.6536735508     A.U. after   11 cycles
 E2 =    -0.2282834474D+00 EUMP2 =    -0.33881956998197D+02
 CCSD(T)
 CCSD(T)= -0.33898904756D+02

 The electronic state is 1-A'.
 Alpha  occ. eigenvalues --   -1.36306  -1.34631  -0.71947  -0.70267  -0.56148
 Alpha  occ. eigenvalues --   -0.54430  -0.50906  -0.49234
 Alpha virt. eigenvalues --    0.19530   0.21308   0.29813   0.31585   0.79648
 Alpha virt. eigenvalues --    0.81277   0.82454   0.84263   0.85667   0.87367
 Alpha virt. eigenvalues --    1.16676   1.18365   1.21105   1.22920   2.56628

 Mulliken charges:
               1
     1  O   -0.748469
     2  H    0.379360
     3  H    0.369079
     4  O   -0.747822
     5  H    0.374222
     6  H    0.373631
 Sum of Mulliken charges =   0.00000

 Dipole moment (field-independent basis, Debye):
    X=             -1.2210    Y=             -4.0691    Z=              0.0000  Tot=              4.2483
 Quadrupole moment (field-independent basis, Debye-Ang):
   XX=             -9.5286   YY=             -5.9405   ZZ=            -14.9924
   XY=             -8.7925   XZ=             -0.0000   YZ=              0.0000

 44\MP4DQ=-33.8932732\MP4SDQ=-33.8952967\CCSD=-33.8963479\CCSD(T)=-33.8
 Normal termination of Gaussian 16 at Sun Dec 10 06:48:57 2023.
