 Gaussian 16, Revision A.03,
 Gaussian 16:  ES64L-G16RevA.03 25-Dec-2016

 ------------------
 #p CCSD(T)/CEP-31G
 ------------------

 ------------
 H2O_H2O_4294
 ------------
 Symbolic Z-matrix:
 Charge =  0 Multiplicity = 1

                         Standard orientation:
 ---------------------------------------------------------------------
 Center     Atomic      Atomic             Coordinates (Angstroms)
 Number     Number       Type             X           Y           Z
 ---------------------------------------------------------------------
      1          8           0        0.030153    2.815349    0.000000
      2          1           0        0.028200    1.832750    0.000000
      3          1           0       -0.898705    3.135863    0.000000
      4          8           0        0.030153   -2.639717   -0.000000
      5          1           0        0.959979   -2.957413   -0.000000
      6          1           0       -0.571922   -3.416255   -0.000000
 ---------------------------------------------------------------------

 SCF Done:  E(RHF) =  -33.6536057327     A.U. after   11 cycles
 E2 =    -0.2282865143D+00 EUMP2 =    -0.33881892246965D+02
 CCSD(T)
 CCSD(T)= -0.33898841667D+02

 The electronic state is 1-A'.
 Alpha  occ. eigenvalues --   -1.36291  -1.34631  -0.71931  -0.70265  -0.56129
 Alpha  occ. eigenvalues --   -0.54427  -0.50890  -0.49233
 Alpha virt. eigenvalues --    0.19552   0.21298   0.29826   0.31579   0.79663
 Alpha virt. eigenvalues --    0.81280   0.82479   0.84267   0.85690   0.87371
 Alpha virt. eigenvalues --    1.16689   1.18358   1.21122   1.22895   2.56645

 Mulliken charges:
               1
     1  O   -0.748204
     2  H    0.379292
     3  H    0.368888
     4  O   -0.747554
     5  H    0.374250
     6  H    0.373328
 Sum of Mulliken charges =   0.00000

 Dipole moment (field-independent basis, Debye):
    X=             -1.3834    Y=             -4.1233    Z=             -0.0000  Tot=              4.3492
 Quadrupole moment (field-independent basis, Debye-Ang):
   XX=             -9.4747   YY=             -5.6843   ZZ=            -14.9923
   XY=             -8.5642   XZ=             -0.0000   YZ=             -0.0000

 4613\MP4DQ=-33.8932099\MP4SDQ=-33.8952334\CCSD=-33.8962848\CCSD(T)=-33
 Normal termination of Gaussian 16 at Sun Dec 10 06:50:17 2023.
