 Gaussian 16, Revision A.03,
 Gaussian 16:  ES64L-G16RevA.03 25-Dec-2016

 ------------------
 #p CCSD(T)/CEP-31G
 ------------------

 ------------
 H2O_H2O_2788
 ------------
 Symbolic Z-matrix:
 Charge =  0 Multiplicity = 1

                         Standard orientation:
 ---------------------------------------------------------------------
 Center     Atomic      Atomic             Coordinates (Angstroms)
 Number     Number       Type             X           Y           Z
 ---------------------------------------------------------------------
      1          8           0        0.052307    2.219340   -0.000000
      2          1           0        0.050687    1.236740   -0.000000
      3          1           0       -0.876659    2.539539   -0.000000
      4          8           0        0.052307   -2.039460    0.000000
      5          1           0        0.789997   -2.688551    0.000000
      6          1           0       -0.800942   -2.526771    0.000000
 ---------------------------------------------------------------------

 SCF Done:  E(RHF) =  -33.6556403263     A.U. after   11 cycles
 E2 =    -0.2283674827D+00 EUMP2 =    -0.33884007809013D+02
 CCSD(T)
 CCSD(T)= -0.33900911724D+02

 The electronic state is 1-A'.
 Alpha  occ. eigenvalues --   -1.36834  -1.33865  -0.72483  -0.69480  -0.56802
 Alpha  occ. eigenvalues --   -0.53690  -0.51460  -0.48488
 Alpha virt. eigenvalues --    0.18650   0.22554   0.29389   0.32684   0.79104
 Alpha virt. eigenvalues --    0.81999   0.83210   0.84675   0.85326   0.88184
 Alpha virt. eigenvalues --    1.16219   1.19499   1.20646   1.26888   2.55404

 Mulliken charges:
               1
     1  O   -0.756518
     2  H    0.391185
     3  H    0.364138
     4  O   -0.753393
     5  H    0.379923
     6  H    0.374666
 Sum of Mulliken charges =  -0.00000

 Dipole moment (field-independent basis, Debye):
    X=             -2.3807    Y=             -4.3211    Z=              0.0000  Tot=              4.9335
 Quadrupole moment (field-independent basis, Debye-Ang):
   XX=             -9.5120   YY=             -6.6912   ZZ=            -14.9962
   XY=             -5.5105   XZ=              0.0000   YZ=             -0.0000

 65\MP4DQ=-33.8952605\MP4SDQ=-33.8973046\CCSD=-33.8983403\CCSD(T)=-33.9
 Normal termination of Gaussian 16 at Sun Dec 10 06:23:11 2023.
