 Gaussian 16, Revision A.03,
 Gaussian 16:  ES64L-G16RevA.03 25-Dec-2016

 ------------------
 #p CCSD(T)/CEP-31G
 ------------------

 ------------
 H2O_H2O_4226
 ------------
 Symbolic Z-matrix:
 Charge =  0 Multiplicity = 1

                         Standard orientation:
 ---------------------------------------------------------------------
 Center     Atomic      Atomic             Coordinates (Angstroms)
 Number     Number       Type             X           Y           Z
 ---------------------------------------------------------------------
      1          8           0        0.090684   -2.775346    0.000000
      2          1           0        0.090612   -1.792744    0.000000
      3          1           0       -0.838786   -3.094079    0.000000
      4          8           0        0.090684    2.636635    0.000000
      5          1           0        0.154878    3.617137    0.000000
      6          1           0       -0.857642    2.379373    0.000000
 ---------------------------------------------------------------------

 SCF Done:  E(RHF) =  -33.6521366049     A.U. after   11 cycles
 E2 =    -0.2283572565D+00 EUMP2 =    -0.33880493861374D+02
 CCSD(T)
 CCSD(T)= -0.33897486365D+02

 The electronic state is 1-A'.
 Alpha  occ. eigenvalues --   -1.36363  -1.35088  -0.72013  -0.70704  -0.56125
 Alpha  occ. eigenvalues --   -0.54825  -0.50938  -0.49661
 Alpha virt. eigenvalues --    0.19265   0.20856   0.29671   0.31009   0.79629
 Alpha virt. eigenvalues --    0.80879   0.82568   0.83896   0.85628   0.87110
 Alpha virt. eigenvalues --    1.16519   1.17862   1.21005   1.22412   2.56300

 Mulliken charges:
               1
     1  O   -0.742559
     2  H    0.375606
     3  H    0.366938
     4  O   -0.742932
     5  H    0.375035
     6  H    0.367912
 Sum of Mulliken charges =  -0.00000

 Dipole moment (field-independent basis, Debye):
    X=             -4.1687    Y=              3.2625    Z=              0.0000  Tot=              5.2936
 Quadrupole moment (field-independent basis, Debye-Ang):
   XX=            -11.1277   YY=             -9.0605   ZZ=            -14.9887
   XY=              2.6348   XZ=              0.0000   YZ=              0.0000

 13\MP4DQ=-33.8918428\MP4SDQ=-33.8938702\CCSD=-33.8949243\CCSD(T)=-33.8
 Normal termination of Gaussian 16 at Sun Dec 10 06:49:04 2023.
