 Gaussian 16, Revision A.03,
 Gaussian 16:  ES64L-G16RevA.03 25-Dec-2016

 ------------------
 #p CCSD(T)/CEP-31G
 ------------------

 ------------
 H2O_H2O_3338
 ------------
 Symbolic Z-matrix:
 Charge =  0 Multiplicity = 1

                         Standard orientation:
 ---------------------------------------------------------------------
 Center     Atomic      Atomic             Coordinates (Angstroms)
 Number     Number       Type             X           Y           Z
 ---------------------------------------------------------------------
      1          8           0        0.052293    2.438730    0.000000
      2          1           0        0.050824    1.456130    0.000000
      3          1           0       -0.876722    2.758786   -0.000000
      4          8           0        0.052293   -2.258834    0.000000
      5          1           0        0.790084   -2.907811    0.000000
      6          1           0       -0.800880   -2.746278   -0.000000
 ---------------------------------------------------------------------

 SCF Done:  E(RHF) =  -33.6545175091     A.U. after   11 cycles
 E2 =    -0.2283063160D+00 EUMP2 =    -0.33882823825099D+02
 CCSD(T)
 CCSD(T)= -0.33899747665D+02

 The electronic state is 1-A'.
 Alpha  occ. eigenvalues --   -1.36579  -1.34210  -0.72224  -0.69830  -0.56474
 Alpha  occ. eigenvalues --   -0.54018  -0.51190  -0.48820
 Alpha virt. eigenvalues --    0.19093   0.21931   0.29584   0.32105   0.79377
 Alpha virt. eigenvalues --    0.81670   0.82260   0.84710   0.85351   0.87860
 Alpha virt. eigenvalues --    1.16437   1.18950   1.20862   1.24263   2.56361

 Mulliken charges:
               1
     1  O   -0.751769
     2  H    0.385479
     3  H    0.365878
     4  O   -0.750328
     5  H    0.377459
     6  H    0.373281
 Sum of Mulliken charges =  -0.00000

 Dipole moment (field-independent basis, Debye):
    X=             -2.3897    Y=             -4.2720    Z=             -0.0000  Tot=              4.8950
 Quadrupole moment (field-independent basis, Debye-Ang):
   XX=             -9.5133   YY=             -6.1932   ZZ=            -14.9941
   XY=             -5.9268   XZ=              0.0000   YZ=             -0.0000

 61\MP4DQ=-33.8941128\MP4SDQ=-33.8961425\CCSD=-33.8971868\CCSD(T)=-33.8
 Normal termination of Gaussian 16 at Sun Dec 10 06:33:08 2023.
