 Gaussian 16, Revision A.03,
 Gaussian 16:  ES64L-G16RevA.03 25-Dec-2016

 ------------------
 #p CCSD(T)/CEP-31G
 ------------------

 -----------
 H2O_H2O_501
 -----------
 Symbolic Z-matrix:
 Charge =  0 Multiplicity = 1

                         Standard orientation:
 ---------------------------------------------------------------------
 Center     Atomic      Atomic             Coordinates (Angstroms)
 Number     Number       Type             X           Y           Z
 ---------------------------------------------------------------------
      1          8           0        0.090690   -1.289520    0.000000
      2          1           0        0.090532   -0.306918    0.000000
      3          1           0       -0.838752   -1.608335    0.000000
      4          8           0        0.090690    1.150825    0.000000
      5          1           0        0.154798    2.131333    0.000000
      6          1           0       -0.857614    0.893480    0.000000
 ---------------------------------------------------------------------

 SCF Done:  E(RHF) =  -33.6328954766     A.U. after   11 cycles
 E2 =    -0.2290418406D+00 EUMP2 =    -0.33861937317196D+02
 CCSD(T)
 CCSD(T)= -0.33878334738D+02

 The electronic state is 1-A'.
 Alpha  occ. eigenvalues --   -1.41900  -1.31700  -0.79547  -0.68727  -0.59139
 Alpha  occ. eigenvalues --   -0.55706  -0.50674  -0.46007
 Alpha virt. eigenvalues --    0.16354   0.24639   0.28246   0.52054   0.73499
 Alpha virt. eigenvalues --    0.77423   0.85938   0.87938   0.94230   1.11063
 Alpha virt. eigenvalues --    1.13292   1.24086   1.30548   1.43177   2.66541

 Mulliken charges:
               1
     1  O   -0.701770
     2  H    0.319981
     3  H    0.328493
     4  O   -0.775228
     5  H    0.456870
     6  H    0.371655
 Sum of Mulliken charges =   0.00000

 Dipole moment (field-independent basis, Debye):
    X=             -3.9023    Y=              4.1136    Z=              0.0000  Tot=              5.6701
 Quadrupole moment (field-independent basis, Debye-Ang):
   XX=            -11.2153   YY=             -9.8698   ZZ=            -14.9672
   XY=              2.3497   XZ=              0.0000   YZ=              0.0000

 3\MP4DQ=-33.8721178\MP4SDQ=-33.8745123\CCSD=-33.8753378\CCSD(T)=-33.87
 Normal termination of Gaussian 16 at Sun Dec 10 06:27:57 2023.
