 Gaussian 16, Revision A.03,
 Gaussian 16:  ES64L-G16RevA.03 25-Dec-2016

 ------------------
 #p CCSD(T)/CEP-31G
 ------------------

 ------------
 H2O_H2O_2347
 ------------
 Symbolic Z-matrix:
 Charge =  0 Multiplicity = 1

                         Standard orientation:
 ---------------------------------------------------------------------
 Center     Atomic      Atomic             Coordinates (Angstroms)
 Number     Number       Type             X           Y           Z
 ---------------------------------------------------------------------
      1          8           0       -0.019899    2.032903    0.000000
      2          1           0       -0.016717    1.050306    0.000000
      3          1           0        0.908558    2.354577    0.000000
      4          8           0       -0.019899   -1.865817    0.000000
      5          1           0       -0.993674   -1.997226    0.000000
      6          1           0        0.420212   -2.744344    0.000000
 ---------------------------------------------------------------------

 SCF Done:  E(RHF) =  -33.6571938793     A.U. after   11 cycles
 E2 =    -0.2284297602D+00 EUMP2 =    -0.33885623639531D+02
 CCSD(T)
 CCSD(T)= -0.33902519453D+02

 The electronic state is 1-A'.
 Alpha  occ. eigenvalues --   -1.37074  -1.33701  -0.72738  -0.69354  -0.57150
 Alpha  occ. eigenvalues --   -0.53569  -0.51718  -0.48355
 Alpha virt. eigenvalues --    0.18086   0.23267   0.29236   0.33529   0.78755
 Alpha virt. eigenvalues --    0.82214   0.83029   0.85247   0.87571   0.88368
 Alpha virt. eigenvalues --    1.15956   1.19857   1.20528   1.31461   2.54303

 Mulliken charges:
               1
     1  O   -0.763774
     2  H    0.394719
     3  H    0.367175
     4  O   -0.759368
     5  H    0.379967
     6  H    0.381280
 Sum of Mulliken charges =  -0.00000

 Dipole moment (field-independent basis, Debye):
    X=              0.8988    Y=             -4.0572    Z=              0.0000  Tot=              4.1555
 Quadrupole moment (field-independent basis, Debye-Ang):
   XX=             -9.6666   YY=             -7.6779   ZZ=            -14.9989
   XY=              6.8873   XZ=              0.0000   YZ=              0.0000

 0839\MP4DQ=-33.8968378\MP4SDQ=-33.8989009\CCSD=-33.8999291\CCSD(T)=-33
 Normal termination of Gaussian 16 at Sun Dec 10 07:04:38 2023.
