 Gaussian 16, Revision A.03,
 Gaussian 16:  ES64L-G16RevA.03 25-Dec-2016

 ------------------
 #p CCSD(T)/CEP-31G
 ------------------

 ------------
 H2O_H2O_1691
 ------------
 Symbolic Z-matrix:
 Charge =  0 Multiplicity = 1

                         Standard orientation:
 ---------------------------------------------------------------------
 Center     Atomic      Atomic             Coordinates (Angstroms)
 Number     Number       Type             X           Y           Z
 ---------------------------------------------------------------------
      1          8           0        0.041201    1.780574    0.000000
      2          1           0        0.038600    0.797976    0.000000
      3          1           0       -0.887445    2.101700    0.000000
      4          8           0        0.041201   -1.600705   -0.000000
      5          1           0        0.890855   -2.094256   -0.000000
      6          1           0       -0.701226   -2.244373   -0.000000
 ---------------------------------------------------------------------

 SCF Done:  E(RHF) =  -33.6603851449     A.U. after   11 cycles
 E2 =    -0.2287302242D+00 EUMP2 =    -0.33889115369057D+02
 CCSD(T)
 CCSD(T)= -0.33905927087D+02

 The electronic state is 1-A'.
 Alpha  occ. eigenvalues --   -1.37695  -1.32616  -0.73338  -0.68371  -0.58104
 Alpha  occ. eigenvalues --   -0.52442  -0.52384  -0.47287
 Alpha virt. eigenvalues --    0.18038   0.24740   0.28790   0.37427   0.77643
 Alpha virt. eigenvalues --    0.81473   0.83747   0.86256   0.89912   0.94572
 Alpha virt. eigenvalues --    1.15436   1.19772   1.20977   1.33688   2.50185

 Mulliken charges:
               1
     1  O   -0.777232
     2  H    0.416422
     3  H    0.358791
     4  O   -0.773736
     5  H    0.389828
     6  H    0.385927
 Sum of Mulliken charges =  -0.00000

 Dipole moment (field-independent basis, Debye):
    X=             -1.8457    Y=             -4.4912    Z=             -0.0000  Tot=              4.8556
 Quadrupole moment (field-independent basis, Debye-Ang):
   XX=             -9.3906   YY=             -7.8254   ZZ=            -15.0064
   XY=             -5.0871   XZ=             -0.0000   YZ=              0.0000

 507\MP4DQ=-33.9001831\MP4SDQ=-33.9022652\CCSD=-33.9032777\CCSD(T)=-33.
 Normal termination of Gaussian 16 at Sun Dec 10 06:50:49 2023.
