 Gaussian 16, Revision A.03,
 Gaussian 16:  ES64L-G16RevA.03 25-Dec-2016

 ------------------
 #p CCSD(T)/CEP-31G
 ------------------

 ------------
 H2O_H2O_1876
 ------------
 Symbolic Z-matrix:
 Charge =  0 Multiplicity = 1

                         Standard orientation:
 ---------------------------------------------------------------------
 Center     Atomic      Atomic             Coordinates (Angstroms)
 Number     Number       Type             X           Y           Z
 ---------------------------------------------------------------------
      1          8           0        0.090686   -1.837981    0.000000
      2          1           0        0.090577   -0.855379    0.000000
      3          1           0       -0.838771   -2.156750    0.000000
      4          8           0        0.090686    1.699277    0.000000
      5          1           0        0.154844    2.679781    0.000000
      6          1           0       -0.857630    1.441979    0.000000
 ---------------------------------------------------------------------

 SCF Done:  E(RHF) =  -33.6535173737     A.U. after   11 cycles
 E2 =    -0.2288631993D+00 EUMP2 =    -0.33882380572971D+02
 CCSD(T)
 CCSD(T)= -0.33899425125D+02

 The electronic state is 1-A'.
 Alpha  occ. eigenvalues --   -1.37626  -1.34278  -0.73438  -0.69788  -0.57515
 Alpha  occ. eigenvalues --   -0.53973  -0.52193  -0.48837
 Alpha virt. eigenvalues --    0.16708   0.23738   0.28572   0.34631   0.77928
 Alpha virt. eigenvalues --    0.82248   0.82302   0.84595   0.88186   0.96006
 Alpha virt. eigenvalues --    1.15319   1.18191   1.20981   1.37858   2.53496

 Mulliken charges:
               1
     1  O   -0.751198
     2  H    0.391001
     3  H    0.357536
     4  O   -0.751814
     5  H    0.389392
     6  H    0.365083
 Sum of Mulliken charges =   0.00000

 Dipole moment (field-independent basis, Debye):
    X=             -4.1037    Y=              3.4427    Z=              0.0000  Tot=              5.3566
 Quadrupole moment (field-independent basis, Debye-Ang):
   XX=            -11.1634   YY=             -9.2674   ZZ=            -14.9890
   XY=              2.5073   XZ=              0.0000   YZ=              0.0000

 1\MP4DQ=-33.8936456\MP4SDQ=-33.8957613\CCSD=-33.8967829\CCSD(T)=-33.89
 Normal termination of Gaussian 16 at Sun Dec 10 06:54:18 2023.
