 Gaussian 16, Revision A.03,
 Gaussian 16:  ES64L-G16RevA.03 25-Dec-2016

 ------------------
 #p CCSD(T)/CEP-31G
 ------------------

 ------------
 H2O_H2O_1718
 ------------
 Symbolic Z-matrix:
 Charge =  0 Multiplicity = 1

                         Standard orientation:
 ---------------------------------------------------------------------
 Center     Atomic      Atomic             Coordinates (Angstroms)
 Number     Number       Type             X           Y           Z
 ---------------------------------------------------------------------
      1          8           0        0.033857    1.789246    0.000000
      2          1           0        0.030904    0.806649    0.000000
      3          1           0       -0.894674    2.110704   -0.000000
      4          8           0        0.033857   -1.611773    0.000000
      5          1           0        0.940528   -1.990525    0.000000
      6          1           0       -0.618466   -2.346607   -0.000000
 ---------------------------------------------------------------------

 SCF Done:  E(RHF) =  -33.6603187209     A.U. after   11 cycles
 E2 =    -0.2286890398D+00 EUMP2 =    -0.33889007760610D+02
 CCSD(T)
 CCSD(T)= -0.33905831215D+02

 The electronic state is 1-A'.
 Alpha  occ. eigenvalues --   -1.37654  -1.32702  -0.73306  -0.68450  -0.58049
 Alpha  occ. eigenvalues --   -0.52543  -0.52341  -0.47379
 Alpha virt. eigenvalues --    0.18030   0.24680   0.28830   0.37147   0.77704
 Alpha virt. eigenvalues --    0.81513   0.83631   0.86401   0.89320   0.95052
 Alpha virt. eigenvalues --    1.15491   1.19599   1.21069   1.34109   2.50501

 Mulliken charges:
               1
     1  O   -0.777159
     2  H    0.414260
     3  H    0.360664
     4  O   -0.773483
     5  H    0.387912
     6  H    0.387806
 Sum of Mulliken charges =  -0.00000

 Dipole moment (field-independent basis, Debye):
    X=             -1.5187    Y=             -4.4259    Z=             -0.0000  Tot=              4.6792
 Quadrupole moment (field-independent basis, Debye-Ang):
   XX=             -9.4128   YY=             -7.8538   ZZ=            -15.0060
   XY=             -5.3961   XZ=              0.0000   YZ=             -0.0000

 3536\MP4DQ=-33.9000891\MP4SDQ=-33.9021725\CCSD=-33.9031865\CCSD(T)=-33
 Normal termination of Gaussian 16 at Sun Dec 10 06:51:19 2023.
