 Gaussian 16, Revision A.03,
 Gaussian 16:  ES64L-G16RevA.03 25-Dec-2016

 ------------------
 #p CCSD(T)/CEP-31G
 ------------------

 -----------
 H2O_H2O_928
 -----------
 Symbolic Z-matrix:
 Charge =  0 Multiplicity = 1

                         Standard orientation:
 ---------------------------------------------------------------------
 Center     Atomic      Atomic             Coordinates (Angstroms)
 Number     Number       Type             X           Y           Z
 ---------------------------------------------------------------------
      1          8           0        0.085614   -1.464949    0.000000
      2          1           0        0.085166   -0.482347    0.000000
      3          1           0       -0.843733   -1.784039    0.000000
      4          8           0        0.085614    1.315382    0.000000
      5          1           0        0.276871    2.279191    0.000000
      6          1           0       -0.888127    1.183729    0.000000
 ---------------------------------------------------------------------

 SCF Done:  E(RHF) =  -33.6529090075     A.U. after   11 cycles
 E2 =    -0.2290852923D+00 EUMP2 =    -0.33881994299744D+02
 CCSD(T)
 CCSD(T)= -0.33898805541D+02

 The electronic state is 1-A'.
 Alpha  occ. eigenvalues --   -1.39462  -1.32492  -0.75823  -0.68535  -0.59146
 Alpha  occ. eigenvalues --   -0.53931  -0.51919  -0.46983
 Alpha virt. eigenvalues --    0.16759   0.25554   0.27568   0.44636   0.74966
 Alpha virt. eigenvalues --    0.78698   0.85002   0.85978   0.92558   1.11500
 Alpha virt. eigenvalues --    1.15327   1.22824   1.26824   1.37165   2.53041

 Mulliken charges:
               1
     1  O   -0.747557
     2  H    0.391468
     3  H    0.341791
     4  O   -0.788761
     5  H    0.429949
     6  H    0.373109
 Sum of Mulliken charges =   0.00000

 Dipole moment (field-independent basis, Debye):
    X=             -3.7635    Y=              4.0495    Z=              0.0000  Tot=              5.5283
 Quadrupole moment (field-independent basis, Debye-Ang):
   XX=            -10.8660   YY=             -9.2392   ZZ=            -14.9953
   XY=              2.8064   XZ=              0.0000   YZ=              0.0000

 79\MP4DQ=-33.8928164\MP4SDQ=-33.8950514\CCSD=-33.8960019\CCSD(T)=-33.8
 Normal termination of Gaussian 16 at Sun Dec 10 06:35:58 2023.
