 Gaussian 16, Revision A.03,
 Gaussian 16:  ES64L-G16RevA.03 25-Dec-2016

 ------------------
 #p CCSD(T)/CEP-31G
 ------------------

 ------------
 H2O_H2O_1017
 ------------
 Symbolic Z-matrix:
 Charge =  0 Multiplicity = 1

                         Standard orientation:
 ---------------------------------------------------------------------
 Center     Atomic      Atomic             Coordinates (Angstroms)
 Number     Number       Type             X           Y           Z
 ---------------------------------------------------------------------
      1          8           0        0.037558    1.510793   -0.000000
      2          1           0        0.034244    0.528197   -0.000000
      3          1           0       -0.890854    1.832593   -0.000000
      4          8           0        0.037558   -1.331923    0.000000
      5          1           0        0.917357   -1.769486    0.000000
      6          1           0       -0.661682   -2.022263    0.000000
 ---------------------------------------------------------------------

 SCF Done:  E(RHF) =  -33.6633062797     A.U. after   11 cycles
 E2 =    -0.2290114449D+00 EUMP2 =    -0.33892317724590D+02
 CCSD(T)
 CCSD(T)= -0.33908751401D+02

 The electronic state is 1-A'.
 Alpha  occ. eigenvalues --   -1.38928  -1.31126  -0.74513  -0.68204  -0.59310
 Alpha  occ. eigenvalues --   -0.53670  -0.50681  -0.45779
 Alpha virt. eigenvalues --    0.17648   0.26595   0.27972   0.45369   0.75538
 Alpha virt. eigenvalues --    0.77281   0.85936   0.86479   0.94338   1.01002
 Alpha virt. eigenvalues --    1.15274   1.18624   1.22837   1.35710   2.52847

 Mulliken charges:
               1
     1  O   -0.787052
     2  H    0.434312
     3  H    0.349924
     4  O   -0.810213
     5  H    0.405154
     6  H    0.407875
 Sum of Mulliken charges =   0.00000

 Dipole moment (field-independent basis, Debye):
    X=             -1.6560    Y=             -4.6987    Z=              0.0000  Tot=              4.9820
 Quadrupole moment (field-independent basis, Debye-Ang):
   XX=             -9.3621   YY=             -8.7709   ZZ=            -15.0184
   XY=             -4.4759   XZ=             -0.0000   YZ=             -0.0000

 269\MP4DQ=-33.9029081\MP4SDQ=-33.9050207\CCSD=-33.9059589\CCSD(T)=-33.
 Normal termination of Gaussian 16 at Sun Dec 10 06:37:38 2023.
