 Gaussian 16, Revision A.03,
 Gaussian 16:  ES64L-G16RevA.03 25-Dec-2016

 ------------------
 #p CCSD(T)/CEP-31G
 ------------------

 ------------
 H2O_H2O_4700
 ------------
 Symbolic Z-matrix:
 Charge =  0 Multiplicity = 1

                         Standard orientation:
 ---------------------------------------------------------------------
 Center     Atomic      Atomic             Coordinates (Angstroms)
 Number     Number       Type             X           Y           Z
 ---------------------------------------------------------------------
      1          8           0        0.092949   -2.961595    0.000000
      2          1           0        0.092949   -1.978994    0.000000
      3          1           0       -0.836544   -3.280262    0.000000
      4          8           0        0.092949    2.828808    0.000000
      5          1           0        0.092949    3.811410    0.000000
      6          1           0       -0.836544    2.510141    0.000000
 ---------------------------------------------------------------------

 SCF Done:  E(RHF) =  -33.6519490488     A.U. after   11 cycles
 E2 =    -0.2283636787D+00 EUMP2 =    -0.33880312727463D+02
 CCSD(T)
 CCSD(T)= -0.33897310403D+02

 The electronic state is 1-A'.
 Alpha  occ. eigenvalues --   -1.36267  -1.35216  -0.71914  -0.70836  -0.56017
 Alpha  occ. eigenvalues --   -0.54949  -0.50840  -0.49787
 Alpha virt. eigenvalues --    0.19449   0.20632   0.29750   0.30848   0.79723
 Alpha virt. eigenvalues --    0.80758   0.82704   0.83779   0.85766   0.86947
 Alpha virt. eigenvalues --    1.16632   1.17698   1.21090   1.22195   2.56532

 Mulliken charges:
               1
     1  O   -0.741809
     2  H    0.374140
     3  H    0.367668
     4  O   -0.742095
     5  H    0.374119
     6  H    0.367978
 Sum of Mulliken charges =  -0.00000

 Dipole moment (field-independent basis, Debye):
    X=             -4.2787    Y=              3.1137    Z=              0.0000  Tot=              5.2917
 Quadrupole moment (field-independent basis, Debye-Ang):
   XX=            -11.2800   YY=             -9.6418   ZZ=            -14.9883
   XY=              2.3090   XZ=              0.0000   YZ=              0.0000

 253\MP4DQ=-33.8916662\MP4SDQ=-33.8936937\CCSD=-33.8947486\CCSD(T)=-33.
 Normal termination of Gaussian 16 at Sun Dec 10 06:57:36 2023.
