 Gaussian 16, Revision A.03,
 Gaussian 16:  ES64L-G16RevA.03 25-Dec-2016

 ------------------
 #p CCSD(T)/CEP-31G
 ------------------

 -----------
 H2O_H2O_672
 -----------
 Symbolic Z-matrix:
 Charge =  0 Multiplicity = 1

                         Standard orientation:
 ---------------------------------------------------------------------
 Center     Atomic      Atomic             Coordinates (Angstroms)
 Number     Number       Type             X           Y           Z
 ---------------------------------------------------------------------
      1          8           0       -0.020040    1.364755    0.000000
      2          1           0       -0.015199    0.382165    0.000000
      3          1           0        0.907872    1.687996    0.000000
      4          8           0       -0.020040   -1.197736    0.000000
      5          1           0       -0.993591   -1.330789    0.000000
      6          1           0        0.421554   -2.075519    0.000000
 ---------------------------------------------------------------------

 SCF Done:  E(RHF) =  -33.6575984245     A.U. after   11 cycles
 E2 =    -0.2284557552D+00 EUMP2 =    -0.33886054179747D+02
 CCSD(T)
 CCSD(T)= -0.33902148714D+02

 The electronic state is 1-A'.
 Alpha  occ. eigenvalues --   -1.40253  -1.30270  -0.76330  -0.69045  -0.59387
 Alpha  occ. eigenvalues --   -0.54820  -0.49402  -0.44863
 Alpha virt. eigenvalues --    0.17417   0.26915   0.27816   0.50977   0.74357
 Alpha virt. eigenvalues --    0.76269   0.86675   0.88162   0.93397   1.05395
 Alpha virt. eigenvalues --    1.15681   1.21609   1.25811   1.37720   2.63285

 Mulliken charges:
               1
     1  O   -0.774226
     2  H    0.404265
     3  H    0.350067
     4  O   -0.833377
     5  H    0.409024
     6  H    0.444246
 Sum of Mulliken charges =   0.00000

 Dipole moment (field-independent basis, Debye):
    X=              0.8947    Y=             -4.6579    Z=              0.0000  Tot=              4.7431
 Quadrupole moment (field-independent basis, Debye-Ang):
   XX=             -9.6126   YY=             -9.3365   ZZ=            -15.0131
   XY=              4.4810   XZ=              0.0000   YZ=              0.0000

 464\MP4DQ=-33.8962118\MP4SDQ=-33.8983891\CCSD=-33.8992637\CCSD(T)=-33.
 Normal termination of Gaussian 16 at Sun Dec 10 06:31:10 2023.
