 Gaussian 16, Revision A.03,
 Gaussian 16:  ES64L-G16RevA.03 25-Dec-2016

 ------------------
 #p CCSD(T)/CEP-31G
 ------------------

 -----------
 H2O_H2O_613
 -----------
 Symbolic Z-matrix:
 Charge =  0 Multiplicity = 1

                         Standard orientation:
 ---------------------------------------------------------------------
 Center     Atomic      Atomic             Coordinates (Angstroms)
 Number     Number       Type             X           Y           Z
 ---------------------------------------------------------------------
      1          8           0        0.052409    1.351725   -0.000000
      2          1           0        0.049675    0.369127   -0.000000
      3          1           0       -0.876193    1.672976    0.000000
      4          8           0        0.052409   -1.171963   -0.000000
      5          1           0        0.789363   -1.821890   -0.000000
      6          1           0       -0.801391   -1.658307    0.000000
 ---------------------------------------------------------------------

 SCF Done:  E(RHF) =  -33.6572478638     A.U. after   11 cycles
 E2 =    -0.2290460383D+00 EUMP2 =    -0.33886293902118D+02
 CCSD(T)
 CCSD(T)= -0.33902118872D+02

 The electronic state is 1-A'.
 Alpha  occ. eigenvalues --   -1.40556  -1.29728  -0.75863  -0.70549  -0.58640
 Alpha  occ. eigenvalues --   -0.55192  -0.48717  -0.44224
 Alpha virt. eigenvalues --    0.17126   0.26982   0.27931   0.52760   0.74215
 Alpha virt. eigenvalues --    0.74724   0.85263   0.88698   0.96687   1.01066
 Alpha virt. eigenvalues --    1.14471   1.18136   1.23850   1.36766   2.65224

 Mulliken charges:
               1
     1  O   -0.775673
     2  H    0.428679
     3  H    0.333039
     4  O   -0.831744
     5  H    0.434146
     6  H    0.411553
 Sum of Mulliken charges =  -0.00000

 Dipole moment (field-independent basis, Debye):
    X=             -2.2277    Y=             -4.9973    Z=              0.0000  Tot=              5.4713
 Quadrupole moment (field-independent basis, Debye-Ang):
   XX=             -9.4468   YY=             -9.5206   ZZ=            -15.0132
   XY=             -3.8087   XZ=             -0.0000   YZ=              0.0000

 02\MP4DQ=-33.8961596\MP4SDQ=-33.8983355\CCSD=-33.8991587\CCSD(T)=-33.9
 Normal termination of Gaussian 16 at Sun Dec 10 06:30:03 2023.
