 Gaussian 16, Revision A.03,
 Gaussian 16:  ES64L-G16RevA.03 25-Dec-2016

 ------------------
 #p CCSD(T)/CEP-31G
 ------------------

 ------------
 H2O_H2O_3435
 ------------
 Symbolic Z-matrix:
 Charge =  0 Multiplicity = 1

                         Standard orientation:
 ---------------------------------------------------------------------
 Center     Atomic      Atomic             Coordinates (Angstroms)
 Number     Number       Type             X           Y           Z
 ---------------------------------------------------------------------
      1          8           0        0.063231    2.476237    0.000000
      2          1           0        0.062175    1.493636    0.000000
      3          1           0       -0.865919    2.795902   -0.000000
      4          8           0        0.063231   -2.300722    0.000000
      5          1           0        0.660563   -3.080914    0.000000
      6          1           0       -0.868514   -2.612744   -0.000000
 ---------------------------------------------------------------------

 SCF Done:  E(RHF) =  -33.6540175089     A.U. after   11 cycles
 E2 =    -0.2283151540D+00 EUMP2 =    -0.33882332662982D+02
 CCSD(T)
 CCSD(T)= -0.33899270257D+02

 The electronic state is 1-A'.
 Alpha  occ. eigenvalues --   -1.36553  -1.34342  -0.72201  -0.69957  -0.56419
 Alpha  occ. eigenvalues --   -0.54133  -0.51156  -0.48943
 Alpha virt. eigenvalues --    0.19099   0.21764   0.29559   0.31961   0.79412
 Alpha virt. eigenvalues --    0.81556   0.82251   0.84609   0.85372   0.87791
 Alpha virt. eigenvalues --    1.16440   1.18769   1.20839   1.23998   2.56411

 Mulliken charges:
               1
     1  O   -0.749835
     2  H    0.383997
     3  H    0.365534
     4  O   -0.748968
     5  H    0.377365
     6  H    0.371907
 Sum of Mulliken charges =  -0.00000

 Dipole moment (field-independent basis, Debye):
    X=             -2.8928    Y=             -4.1625    Z=             -0.0000  Tot=              5.0690
 Quadrupole moment (field-independent basis, Debye-Ang):
   XX=             -9.7765   YY=             -6.4020   ZZ=            -14.9930
   XY=             -5.1971   XZ=              0.0000   YZ=             -0.0000

 43\MP4DQ=-33.893634\MP4SDQ=-33.8956629\CCSD=-33.8967092\CCSD(T)=-33.89
 Normal termination of Gaussian 16 at Sun Dec 10 06:34:51 2023.
