 Gaussian 16, Revision A.03,
 Gaussian 16:  ES64L-G16RevA.03 25-Dec-2016

 ------------------
 #p CCSD(T)/CEP-31G
 ------------------

 ------------
 H2O_H2O_1323
 ------------
 Symbolic Z-matrix:
 Charge =  0 Multiplicity = 1

                         Standard orientation:
 ---------------------------------------------------------------------
 Center     Atomic      Atomic             Coordinates (Angstroms)
 Number     Number       Type             X           Y           Z
 ---------------------------------------------------------------------
      1          8           0       -0.016738    1.622026    0.000000
      2          1           0       -0.012534    0.639434    0.000000
      3          1           0        0.911383    1.944667    0.000000
      4          8           0       -0.016738   -1.458682    0.000000
      5          1           0       -0.996952   -1.527141    0.000000
      6          1           0        0.365914   -2.363714    0.000000
 ---------------------------------------------------------------------

 SCF Done:  E(RHF) =  -33.6613282834     A.U. after   11 cycles
 E2 =    -0.2287116578D+00 EUMP2 =    -0.33890039941235D+02
 CCSD(T)
 CCSD(T)= -0.33906821961D+02

 The electronic state is 1-A'.
 Alpha  occ. eigenvalues --   -1.38230  -1.32377  -0.74039  -0.68324  -0.58753
 Alpha  occ. eigenvalues --   -0.52909  -0.52135  -0.47067
 Alpha virt. eigenvalues --    0.17699   0.25600   0.28376   0.40459   0.76519
 Alpha virt. eigenvalues --    0.79739   0.84732   0.86380   0.89703   1.07122
 Alpha virt. eigenvalues --    1.16181   1.17633   1.22038   1.37086   2.51155

 Mulliken charges:
               1
     1  O   -0.781580
     2  H    0.414150
     3  H    0.362856
     4  O   -0.791516
     5  H    0.390083
     6  H    0.406006
 Sum of Mulliken charges =   0.00000

 Dipole moment (field-independent basis, Debye):
    X=              0.7497    Y=             -4.1947    Z=              0.0000  Tot=              4.2612
 Quadrupole moment (field-independent basis, Debye-Ang):
   XX=             -9.7414   YY=             -8.5912   ZZ=            -15.0094
   XY=              5.6056   XZ=              0.0000   YZ=              0.0000

 6\MP4DQ=-33.9010062\MP4SDQ=-33.9031288\CCSD=-33.9041228\CCSD(T)=-33.90
 Normal termination of Gaussian 16 at Sun Dec 10 06:43:33 2023.
