 Gaussian 16, Revision A.03,
 Gaussian 16:  ES64L-G16RevA.03 25-Dec-2016

 ------------------
 #p CCSD(T)/CEP-31G
 ------------------

 ------------
 H2O_H2O_2443
 ------------
 Symbolic Z-matrix:
 Charge =  0 Multiplicity = 1

                         Standard orientation:
 ---------------------------------------------------------------------
 Center     Atomic      Atomic             Coordinates (Angstroms)
 Number     Number       Type             X           Y           Z
 ---------------------------------------------------------------------
      1          8           0        0.033818    2.078445    0.000000
      2          1           0        0.031294    1.095847    0.000000
      3          1           0       -0.894854    2.399498    0.000000
      4          8           0        0.033818   -1.900943   -0.000000
      5          1           0        0.940655   -2.279299   -0.000000
      6          1           0       -0.618183   -2.636062   -0.000000
 ---------------------------------------------------------------------

 SCF Done:  E(RHF) =  -33.6570518545     A.U. after   11 cycles
 E2 =    -0.2284167384D+00 EUMP2 =    -0.33885468592969D+02
 CCSD(T)
 CCSD(T)= -0.33902353830D+02

 The electronic state is 1-A'.
 Alpha  occ. eigenvalues --   -1.37022  -1.33585  -0.72671  -0.69222  -0.57090
 Alpha  occ. eigenvalues --   -0.53443  -0.51667  -0.48232
 Alpha virt. eigenvalues --    0.18384   0.23130   0.29280   0.33439   0.78846
 Alpha virt. eigenvalues --    0.82291   0.83644   0.85185   0.86177   0.88323
 Alpha virt. eigenvalues --    1.16061   1.19902   1.20519   1.29685   2.54175

 Mulliken charges:
               1
     1  O   -0.762761
     2  H    0.395996
     3  H    0.364935
     4  O   -0.757770
     5  H    0.380853
     6  H    0.378747
 Sum of Mulliken charges =  -0.00000

 Dipole moment (field-independent basis, Debye):
    X=             -1.5315    Y=             -4.3017    Z=             -0.0000  Tot=              4.5662
 Quadrupole moment (field-independent basis, Debye-Ang):
   XX=             -9.4261   YY=             -7.1200   ZZ=            -14.9989
   XY=             -6.2119   XZ=             -0.0000   YZ=              0.0000

 9288\MP4DQ=-33.8966835\MP4SDQ=-33.8987403\CCSD=-33.8997697\CCSD(T)=-33
 Normal termination of Gaussian 16 at Sun Dec 10 07:06:25 2023.
