 Gaussian 16, Revision A.03,
 Gaussian 16:  ES64L-G16RevA.03 25-Dec-2016

 ------------------
 #p CCSD(T)/CEP-31G
 ------------------

 ------------
 H2O_H2O_1339
 ------------
 Symbolic Z-matrix:
 Charge =  0 Multiplicity = 1

                         Standard orientation:
 ---------------------------------------------------------------------
 Center     Atomic      Atomic             Coordinates (Angstroms)
 Number     Number       Type             X           Y           Z
 ---------------------------------------------------------------------
      1          8           0        0.048653    1.641208   -0.000000
      2          1           0        0.046225    0.658609   -0.000000
      3          1           0       -0.880050    1.962170   -0.000000
      4          8           0        0.048653   -1.460895    0.000000
      5          1           0        0.826723   -2.060988    0.000000
      6          1           0       -0.771343   -2.002295    0.000000
 ---------------------------------------------------------------------

 SCF Done:  E(RHF) =  -33.6620208349     A.U. after   11 cycles
 E2 =    -0.2289595938D+00 EUMP2 =    -0.33890980428729D+02
 CCSD(T)
 CCSD(T)= -0.33907667921D+02

 The electronic state is 1-A'.
 Alpha  occ. eigenvalues --   -1.38225  -1.31971  -0.73847  -0.68058  -0.58773
 Alpha  occ. eigenvalues --   -0.52941  -0.51697  -0.46632
 Alpha virt. eigenvalues --    0.17824   0.25607   0.28406   0.40914   0.76639
 Alpha virt. eigenvalues --    0.79491   0.84973   0.85895   0.92575   0.98755
 Alpha virt. eigenvalues --    1.15015   1.19567   1.21465   1.34158   2.49779

 Mulliken charges:
               1
     1  O   -0.782751
     2  H    0.428784
     3  H    0.352860
     4  O   -0.788986
     5  H    0.400062
     6  H    0.390032
 Sum of Mulliken charges =  -0.00000

 Dipole moment (field-independent basis, Debye):
    X=             -2.1565    Y=             -4.6005    Z=              0.0000  Tot=              5.0808
 Quadrupole moment (field-independent basis, Debye-Ang):
   XX=             -9.4326   YY=             -8.2760   ZZ=            -15.0117
   XY=             -4.5147   XZ=              0.0000   YZ=             -0.0000

 672\MP4DQ=-33.9018741\MP4SDQ=-33.9039695\CCSD=-33.9049557\CCSD(T)=-33.
 Normal termination of Gaussian 16 at Sun Dec 10 06:43:52 2023.
