 Gaussian 16, Revision A.03,
 Gaussian 16:  ES64L-G16RevA.03 25-Dec-2016

 ------------------
 #p CCSD(T)/CEP-31G
 ------------------

 ------------
 H2O_H2O_2188
 ------------
 Symbolic Z-matrix:
 Charge =  0 Multiplicity = 1

                         Standard orientation:
 ---------------------------------------------------------------------
 Center     Atomic      Atomic             Coordinates (Angstroms)
 Number     Number       Type             X           Y           Z
 ---------------------------------------------------------------------
      1          8           0        0.052326    1.980003   -0.000000
      2          1           0        0.050500    0.997403   -0.000000
      3          1           0       -0.876573    2.300396   -0.000000
      4          8           0        0.052326   -1.800144    0.000000
      5          1           0        0.789880   -2.449390    0.000000
      6          1           0       -0.801024   -2.287278    0.000000
 ---------------------------------------------------------------------

 SCF Done:  E(RHF) =  -33.6575217359     A.U. after   11 cycles
 E2 =    -0.2285257659D+00 EUMP2 =    -0.33886047501741D+02
 CCSD(T)
 CCSD(T)= -0.33902932723D+02

 The electronic state is 1-A'.
 Alpha  occ. eigenvalues --   -1.37228  -1.33322  -0.72880  -0.68949  -0.57358
 Alpha  occ. eigenvalues --   -0.53157  -0.51878  -0.47964
 Alpha virt. eigenvalues --    0.18227   0.23568   0.29096   0.34323   0.78554
 Alpha virt. eigenvalues --    0.82646   0.83529   0.85706   0.87511   0.88907
 Alpha virt. eigenvalues --    1.15855   1.20111   1.20347   1.31375   2.52743

 Mulliken charges:
               1
     1  O   -0.765149
     2  H    0.401920
     3  H    0.361054
     4  O   -0.759745
     5  H    0.384543
     6  H    0.377377
 Sum of Mulliken charges =  -0.00000

 Dipole moment (field-independent basis, Debye):
    X=             -2.3652    Y=             -4.3995    Z=              0.0000  Tot=              4.9950
 Quadrupole moment (field-independent basis, Debye-Ang):
   XX=             -9.5088   YY=             -7.2750   ZZ=            -14.9999
   XY=             -5.0549   XZ=              0.0000   YZ=             -0.0000

 4897\MP4DQ=-33.8972384\MP4SDQ=-33.8993059\CCSD=-33.9003324\CCSD(T)=-33
 Normal termination of Gaussian 16 at Sun Dec 10 07:00:30 2023.
