 Gaussian 16, Revision A.03,
 Gaussian 16:  ES64L-G16RevA.03 25-Dec-2016

 ------------------
 #p CCSD(T)/CEP-31G
 ------------------

 ----------
 H2O_H2O_13
 ----------
 Symbolic Z-matrix:
 Charge =  0 Multiplicity = 1

                         Standard orientation:
 ---------------------------------------------------------------------
 Center     Atomic      Atomic             Coordinates (Angstroms)
 Number     Number       Type             X           Y           Z
 ---------------------------------------------------------------------
      1          8           0        0.052468    1.112365    0.000000
      2          1           0        0.049093    0.129770    0.000000
      3          1           0       -0.875925    1.434222    0.000000
      4          8           0        0.052468   -0.932672   -0.000000
      5          1           0        0.788998   -1.583080   -0.000000
      6          1           0       -0.801649   -1.418460   -0.000000
 ---------------------------------------------------------------------

 SCF Done:  E(RHF) =  -33.5809748492     A.U. after   11 cycles
 E2 =    -0.2272135443D+00 EUMP2 =    -0.33808188393475D+02
 CCSD(T)
 CCSD(T)= -0.33822562793D+02

 The electronic state is 1-A'.
 Alpha  occ. eigenvalues --   -1.47197  -1.26196  -0.81833  -0.79469  -0.59848
 Alpha  occ. eigenvalues --   -0.53529  -0.42542  -0.39941
 Alpha virt. eigenvalues --    0.15947   0.24530   0.30809   0.62562   0.73130
 Alpha virt. eigenvalues --    0.73665   0.84789   0.91802   0.92438   1.09085
 Alpha virt. eigenvalues --    1.12520   1.15941   1.31168   1.36714   3.01848

 Mulliken charges:
               1
     1  O   -0.736507
     2  H    0.262728
     3  H    0.295196
     4  O   -0.737368
     5  H    0.471355
     6  H    0.444597
 Sum of Mulliken charges =  -0.00000

 Dipole moment (field-independent basis, Debye):
    X=             -2.0847    Y=             -5.9035    Z=             -0.0000  Tot=              6.2608
 Quadrupole moment (field-independent basis, Debye-Ang):
   XX=             -9.3714   YY=            -10.9340   ZZ=            -14.9013
   XY=             -3.1954   XZ=             -0.0000   YZ=              0.0000

 78\MP4DQ=-33.816287\MP4SDQ=-33.818717\CCSD=-33.8192605\CCSD(T)=-33.822
 Normal termination of Gaussian 16 at Sun Dec 10 06:18:16 2023.
