 Gaussian 16, Revision A.03,
 Gaussian 16:  ES64L-G16RevA.03 25-Dec-2016

 ------------------
 #p CCSD(T)/CEP-31G
 ------------------

 -----------
 H2O_H2O_862
 -----------
 Symbolic Z-matrix:
 Charge =  0 Multiplicity = 1

                         Standard orientation:
 ---------------------------------------------------------------------
 Center     Atomic      Atomic             Coordinates (Angstroms)
 Number     Number       Type             X           Y           Z
 ---------------------------------------------------------------------
      1          8           0        0.056073    1.450921   -0.000000
      2          1           0        0.053769    0.468323   -0.000000
      3          1           0       -0.872670    1.771767   -0.000000
      4          8           0        0.056073   -1.272118    0.000000
      5          1           0        0.749246   -1.968549    0.000000
      6          1           0       -0.827520   -1.701967    0.000000
 ---------------------------------------------------------------------

 SCF Done:  E(RHF) =  -33.6614073654     A.U. after   11 cycles
 E2 =    -0.2291454838D+00 EUMP2 =    -0.33890552849221D+02
 CCSD(T)
 CCSD(T)= -0.33906837206D+02

 The electronic state is 1-A'.
 Alpha  occ. eigenvalues --   -1.39457  -1.30773  -0.75005  -0.68754  -0.59236
 Alpha  occ. eigenvalues --   -0.54168  -0.50149  -0.45358
 Alpha virt. eigenvalues --    0.17372   0.26886   0.27635   0.47786   0.74988
 Alpha virt. eigenvalues --    0.76375   0.85268   0.87226   0.96339   1.01425
 Alpha virt. eigenvalues --    1.14981   1.18704   1.22642   1.36320   2.56237

 Mulliken charges:
               1
     1  O   -0.780338
     2  H    0.435650
     3  H    0.340917
     4  O   -0.818294
     5  H    0.423617
     6  H    0.398448
 Sum of Mulliken charges =   0.00000

 Dipole moment (field-independent basis, Debye):
    X=             -2.4229    Y=             -4.7862    Z=              0.0000  Tot=              5.3645
 Quadrupole moment (field-independent basis, Debye-Ang):
   XX=             -9.5435   YY=             -9.0333   ZZ=            -15.0166
   XY=             -3.9492   XZ=              0.0000   YZ=             -0.0000

 96\MP4DQ=-33.9009417\MP4SDQ=-33.9030836\CCSD=-33.9039878\CCSD(T)=-33.9
 Normal termination of Gaussian 16 at Sun Dec 10 06:34:44 2023.
