 Gaussian 16, Revision A.03,
 Gaussian 16:  ES64L-G16RevA.03 25-Dec-2016

 ------------------
 #p CCSD(T)/CEP-31G
 ------------------

 ------------
 H2O_H2O_4839
 ------------
 Symbolic Z-matrix:
 Charge =  0 Multiplicity = 1

                         Standard orientation:
 ---------------------------------------------------------------------
 Center     Atomic      Atomic             Coordinates (Angstroms)
 Number     Number       Type             X           Y           Z
 ---------------------------------------------------------------------
      1          8           0        0.048547    3.037333   -0.000000
      2          1           0        0.047269    2.054733   -0.000000
      3          1           0       -0.880530    3.357208   -0.000000
      4          8           0        0.048547   -2.856906    0.000000
      5          1           0        0.827319   -3.456089    0.000000
      6          1           0       -0.770814   -3.399266    0.000000
 ---------------------------------------------------------------------

 SCF Done:  E(RHF) =  -33.6530792234     A.U. after   11 cycles
 E2 =    -0.2283092164D+00 EUMP2 =    -0.33881388439830D+02
 CCSD(T)
 CCSD(T)= -0.33898352156D+02

 The electronic state is 1-A'.
 Alpha  occ. eigenvalues --   -1.36197  -1.34751  -0.71836  -0.70381  -0.56005
 Alpha  occ. eigenvalues --   -0.54527  -0.50788  -0.49343
 Alpha virt. eigenvalues --    0.19641   0.21130   0.29893   0.31406   0.79763
 Alpha virt. eigenvalues --    0.81180   0.82651   0.84171   0.85820   0.87289
 Alpha virt. eigenvalues --    1.16760   1.18206   1.21206   1.22696   2.56741

 Mulliken charges:
               1
     1  O   -0.746148
     2  H    0.377716
     3  H    0.368429
     4  O   -0.745723
     5  H    0.373928
     6  H    0.371798
 Sum of Mulliken charges =  -0.00000

 Dipole moment (field-independent basis, Debye):
    X=             -2.2319    Y=             -4.2240    Z=              0.0000  Tot=              4.7774
 Quadrupole moment (field-independent basis, Debye-Ang):
   XX=             -9.4628   YY=             -4.7998   ZZ=            -14.9912
   XY=             -7.4181   XZ=              0.0000   YZ=             -0.0000

 971\MP4DQ=-33.8927174\MP4SDQ=-33.8947416\CCSD=-33.8957946\CCSD(T)=-33.
 Normal termination of Gaussian 16 at Sun Dec 10 07:00:11 2023.
