 Gaussian 16, Revision A.03,
 Gaussian 16:  ES64L-G16RevA.03 25-Dec-2016

 ------------------
 #p CCSD(T)/CEP-31G
 ------------------

 ------------
 H2O_H2O_2434
 ------------
 Symbolic Z-matrix:
 Charge =  0 Multiplicity = 1

                         Standard orientation:
 ---------------------------------------------------------------------
 Center     Atomic      Atomic             Coordinates (Angstroms)
 Number     Number       Type             X           Y           Z
 ---------------------------------------------------------------------
      1          8           0        0.066772    2.076041   -0.000000
      2          1           0        0.065655    1.093440   -0.000000
      3          1           0       -0.862358    2.395764   -0.000000
      4          8           0        0.066772   -1.902955    0.000000
      5          1           0        0.611748   -2.720578    0.000000
      6          1           0       -0.883400   -2.153312    0.000000
 ---------------------------------------------------------------------

 SCF Done:  E(RHF) =  -33.6557903857     A.U. after   11 cycles
 E2 =    -0.2284777334D+00 EUMP2 =    -0.33884268119055D+02
 CCSD(T)
 CCSD(T)= -0.33901189408D+02

 The electronic state is 1-A'.
 Alpha  occ. eigenvalues --   -1.37069  -1.33761  -0.72732  -0.69361  -0.57062
 Alpha  occ. eigenvalues --   -0.53564  -0.51692  -0.48377
 Alpha virt. eigenvalues --    0.18164   0.22974   0.29139   0.33254   0.78826
 Alpha virt. eigenvalues --    0.82171   0.83608   0.85090   0.86339   0.88448
 Alpha virt. eigenvalues --    1.15928   1.19699   1.20432   1.30071   2.54285

 Mulliken charges:
               1
     1  O   -0.757841
     2  H    0.394743
     3  H    0.361378
     4  O   -0.754540
     5  H    0.382900
     6  H    0.373361
 Sum of Mulliken charges =   0.00000

 Dipole moment (field-independent basis, Debye):
    X=             -3.0326    Y=             -4.2012    Z=              0.0000  Tot=              5.1814
 Quadrupole moment (field-independent basis, Debye-Ang):
   XX=             -9.8982   YY=             -7.3453   ZZ=            -14.9961
   XY=             -4.4314   XZ=              0.0000   YZ=             -0.0000

 596\MP4DQ=-33.8955088\MP4SDQ=-33.8975698\CCSD=-33.8986012\CCSD(T)=-33.
 Normal termination of Gaussian 16 at Sun Dec 10 07:06:15 2023.
