 Gaussian 16, Revision A.03,
 Gaussian 16:  ES64L-G16RevA.03 25-Dec-2016

 ------------------
 #p CCSD(T)/CEP-31G
 ------------------

 ------------
 H2O_H2O_2935
 ------------
 Symbolic Z-matrix:
 Charge =  0 Multiplicity = 1

                         Standard orientation:
 ---------------------------------------------------------------------
 Center     Atomic      Atomic             Coordinates (Angstroms)
 Number     Number       Type             X           Y           Z
 ---------------------------------------------------------------------
      1          8           0        0.063239    2.276792    0.000000
      2          1           0        0.062087    1.294191    0.000000
      3          1           0       -0.865879    2.596548   -0.000000
      4          8           0        0.063239   -2.101289    0.000000
      5          1           0        0.660496   -2.881540    0.000000
      6          1           0       -0.868535   -2.413222   -0.000000
 ---------------------------------------------------------------------

 SCF Done:  E(RHF) =  -33.6548443683     A.U. after   11 cycles
 E2 =    -0.2283618282D+00 EUMP2 =    -0.33883206196517D+02
 CCSD(T)
 CCSD(T)= -0.33900128055D+02

 The electronic state is 1-A'.
 Alpha  occ. eigenvalues --   -1.36769  -1.34070  -0.72422  -0.69678  -0.56686
 Alpha  occ. eigenvalues --   -0.53873  -0.51383  -0.48680
 Alpha virt. eigenvalues --    0.18672   0.22275   0.29377   0.32395   0.79188
 Alpha virt. eigenvalues --    0.81814   0.82730   0.84849   0.85169   0.88087
 Alpha virt. eigenvalues --    1.16243   1.19235   1.20655   1.26116   2.55846

 Mulliken charges:
               1
     1  O   -0.753277
     2  H    0.388444
     3  H    0.363952
     4  O   -0.751346
     5  H    0.379486
     6  H    0.372742
 Sum of Mulliken charges =  -0.00000

 Dipole moment (field-independent basis, Debye):
    X=             -2.8841    Y=             -4.2021    Z=             -0.0000  Tot=              5.0966
 Quadrupole moment (field-independent basis, Debye-Ang):
   XX=             -9.7772   YY=             -6.8074   ZZ=            -14.9945
   XY=             -4.9197   XZ=              0.0000   YZ=             -0.0000

 7282\MP4DQ=-33.8944798\MP4SDQ=-33.89652\CCSD=-33.8975591\CCSD(T)=-33.9
 Normal termination of Gaussian 16 at Sun Dec 10 06:25:49 2023.
