 Gaussian 16, Revision A.03,
 Gaussian 16:  ES64L-G16RevA.03 25-Dec-2016

 ------------------
 #p CCSD(T)/CEP-31G
 ------------------

 ------------
 H2O_H2O_4065
 ------------
 Symbolic Z-matrix:
 Charge =  0 Multiplicity = 1

                         Standard orientation:
 ---------------------------------------------------------------------
 Center     Atomic      Atomic             Coordinates (Angstroms)
 Number     Number       Type             X           Y           Z
 ---------------------------------------------------------------------
      1          8           0        0.044835    2.728203    0.000000
      2          1           0        0.043287    1.745603    0.000000
      3          1           0       -0.884155    3.048333    0.000000
      4          8           0        0.044835   -2.547780    0.000000
      5          1           0        0.860978   -3.094969    0.000000
      6          1           0       -0.737463   -3.142352    0.000000
 ---------------------------------------------------------------------

 SCF Done:  E(RHF) =  -33.6537121677     A.U. after   11 cycles
 E2 =    -0.2282898070D+00 EUMP2 =    -0.33882001974770D+02
 CCSD(T)
 CCSD(T)= -0.33898947643D+02

 The electronic state is 1-A'.
 Alpha  occ. eigenvalues --   -1.36349  -1.34513  -0.71990  -0.70141  -0.56196
 Alpha  occ. eigenvalues --   -0.54307  -0.50949  -0.49114
 Alpha virt. eigenvalues --    0.19478   0.21445   0.29776   0.31716   0.79607
 Alpha virt. eigenvalues --    0.81394   0.82393   0.84397   0.85630   0.87511
 Alpha virt. eigenvalues --    1.16635   1.18489   1.21074   1.23072   2.56592

 Mulliken charges:
               1
     1  O   -0.748624
     2  H    0.380851
     3  H    0.367718
     4  O   -0.747856
     5  H    0.375171
     6  H    0.372739
 Sum of Mulliken charges =  -0.00000

 Dipole moment (field-independent basis, Debye):
    X=             -2.0558    Y=             -4.2453    Z=              0.0000  Tot=              4.7169
 Quadrupole moment (field-independent basis, Debye-Ang):
   XX=             -9.4278   YY=             -5.4994   ZZ=            -14.9925
   XY=             -7.0855   XZ=              0.0000   YZ=              0.0000

 72\MP4DQ=-33.8933161\MP4SDQ=-33.89534\CCSD=-33.8963905\CCSD(T)=-33.898
 Normal termination of Gaussian 16 at Sun Dec 10 06:46:09 2023.
