 Gaussian 16, Revision A.03,
 Gaussian 16:  ES64L-G16RevA.03 25-Dec-2016

 ------------------
 #p CCSD(T)/CEP-31G
 ------------------

 ------------
 H2O_H2O_3335
 ------------
 Symbolic Z-matrix:
 Charge =  0 Multiplicity = 1

                         Standard orientation:
 ---------------------------------------------------------------------
 Center     Atomic      Atomic             Coordinates (Angstroms)
 Number     Number       Type             X           Y           Z
 ---------------------------------------------------------------------
      1          8           0        0.063233    2.436348    0.000000
      2          1           0        0.062159    1.453747    0.000000
      3          1           0       -0.865912    2.756030   -0.000000
      4          8           0        0.063233   -2.260835    0.000000
      5          1           0        0.660550   -3.041039    0.000000
      6          1           0       -0.868518   -2.572842   -0.000000
 ---------------------------------------------------------------------

 SCF Done:  E(RHF) =  -33.6541591259     A.U. after   11 cycles
 E2 =    -0.2283207032D+00 EUMP2 =    -0.33882479829127D+02
 CCSD(T)
 CCSD(T)= -0.33899414049D+02

 The electronic state is 1-A'.
 Alpha  occ. eigenvalues --   -1.36591  -1.34294  -0.72240  -0.69908  -0.56466
 Alpha  occ. eigenvalues --   -0.54087  -0.51196  -0.48897
 Alpha virt. eigenvalues --    0.19023   0.21851   0.29525   0.32030   0.79374
 Alpha virt. eigenvalues --    0.81601   0.82272   0.84659   0.85325   0.87848
 Alpha virt. eigenvalues --    1.16406   1.18852   1.20804   1.24295   2.56359

 Mulliken charges:
               1
     1  O   -0.750400
     2  H    0.384752
     3  H    0.365262
     4  O   -0.749391
     5  H    0.377733
     6  H    0.372045
 Sum of Mulliken charges =   0.00000

 Dipole moment (field-independent basis, Debye):
    X=             -2.8913    Y=             -4.1692    Z=             -0.0000  Tot=              5.0736
 Quadrupole moment (field-independent basis, Debye-Ang):
   XX=             -9.7766   YY=             -6.4827   ZZ=            -14.9932
   XY=             -5.1417   XZ=              0.0000   YZ=             -0.0000

 264\MP4DQ=-33.8937765\MP4SDQ=-33.8958069\CCSD=-33.896852\CCSD(T)=-33.8
 Normal termination of Gaussian 16 at Sun Dec 10 06:33:05 2023.
