 Gaussian 16, Revision A.03,
 Gaussian 16:  ES64L-G16RevA.03 25-Dec-2016

 ------------------
 #p CCSD(T)/CEP-31G
 ------------------

 ------------
 H2O_H2O_1037
 ------------
 Symbolic Z-matrix:
 Charge =  0 Multiplicity = 1

                         Standard orientation:
 ---------------------------------------------------------------------
 Center     Atomic      Atomic             Coordinates (Angstroms)
 Number     Number       Type             X           Y           Z
 ---------------------------------------------------------------------
      1          8           0        0.056063    1.520731   -0.000000
      2          1           0        0.053871    0.538132   -0.000000
      3          1           0       -0.872717    1.841470   -0.000000
      4          8           0        0.056063   -1.341915    0.000000
      5          1           0        0.749316   -2.038267    0.000000
      6          1           0       -0.827480   -1.771864    0.000000
 ---------------------------------------------------------------------

 SCF Done:  E(RHF) =  -33.6621444993     A.U. after   11 cycles
 E2 =    -0.2291157906D+00 EUMP2 =    -0.33891260289811D+02
 CCSD(T)
 CCSD(T)= -0.33907752343D+02

 The electronic state is 1-A'.
 Alpha  occ. eigenvalues --   -1.38911  -1.31318  -0.74514  -0.68235  -0.59210
 Alpha  occ. eigenvalues --   -0.53631  -0.50860  -0.45939
 Alpha virt. eigenvalues --    0.17533   0.26374   0.27926   0.44867   0.75597
 Alpha virt. eigenvalues --    0.77566   0.85434   0.86301   0.94984   1.01554
 Alpha virt. eigenvalues --    1.14940   1.19000   1.22089   1.35500   2.52473

 Mulliken charges:
               1
     1  O   -0.782105
     2  H    0.435019
     3  H    0.345548
     4  O   -0.806644
     5  H    0.415023
     6  H    0.393159
 Sum of Mulliken charges =  -0.00000

 Dipole moment (field-independent basis, Debye):
    X=             -2.4480    Y=             -4.6896    Z=              0.0000  Tot=              5.2901
 Quadrupole moment (field-independent basis, Debye-Ang):
   XX=             -9.5527   YY=             -8.7393   ZZ=            -15.0152
   XY=             -4.0776   XZ=              0.0000   YZ=             -0.0000

 \MP4DQ=-33.9018963\MP4SDQ=-33.904019\CCSD=-33.9049626\CCSD(T)=-33.9077
 Normal termination of Gaussian 16 at Sun Dec 10 06:38:01 2023.
