 Gaussian 16, Revision A.03,
 Gaussian 16:  ES64L-G16RevA.03 25-Dec-2016

 ------------------
 #p CCSD(T)/CEP-31G
 ------------------

 ------------
 H2O_H2O_2264
 ------------
 Symbolic Z-matrix:
 Charge =  0 Multiplicity = 1

                         Standard orientation:
 ---------------------------------------------------------------------
 Center     Atomic      Atomic             Coordinates (Angstroms)
 Number     Number       Type             X           Y           Z
 ---------------------------------------------------------------------
      1          8           0        0.048610    2.010192   -0.000000
      2          1           0        0.046648    1.027592   -0.000000
      3          1           0       -0.880245    2.330713   -0.000000
      4          8           0        0.048610   -1.829832    0.000000
      5          1           0        0.826965   -2.429557    0.000000
      6          1           0       -0.771128   -2.371621    0.000000
 ---------------------------------------------------------------------

 SCF Done:  E(RHF) =  -33.6573918495     A.U. after   11 cycles
 E2 =    -0.2284916669D+00 EUMP2 =    -0.33885883516369D+02
 CCSD(T)
 CCSD(T)= -0.33902767429D+02

 The electronic state is 1-A'.
 Alpha  occ. eigenvalues --   -1.37165  -1.33381  -0.72814  -0.69008  -0.57277
 Alpha  occ. eigenvalues --   -0.53223  -0.51814  -0.48024
 Alpha virt. eigenvalues --    0.18295   0.23441   0.29155   0.34042   0.78651
 Alpha virt. eigenvalues --    0.82550   0.83718   0.85758   0.86632   0.88746
 Alpha virt. eigenvalues --    1.15927   1.20054   1.20403   1.30758   2.53136

 Mulliken charges:
               1
     1  O   -0.764449
     2  H    0.400360
     3  H    0.361977
     4  O   -0.758955
     5  H    0.383466
     6  H    0.377600
 Sum of Mulliken charges =  -0.00000

 Dipole moment (field-independent basis, Debye):
    X=             -2.1989    Y=             -4.3994    Z=              0.0000  Tot=              4.9183
 Quadrupole moment (field-independent basis, Debye-Ang):
   XX=             -9.4550   YY=             -7.1758   ZZ=            -14.9997
   XY=             -5.2939   XZ=              0.0000   YZ=             -0.0000

 305\MP4DQ=-33.8970814\MP4SDQ=-33.8991453\CCSD=-33.9001727\CCSD(T)=-33.
 Normal termination of Gaussian 16 at Sun Dec 10 07:03:00 2023.
