 Gaussian 16, Revision A.03,
 Gaussian 16:  ES64L-G16RevA.03 25-Dec-2016

 ------------------
 #p CCSD(T)/CEP-31G
 ------------------

 ------------
 H2O_H2O_3226
 ------------
 Symbolic Z-matrix:
 Charge =  0 Multiplicity = 1

                         Standard orientation:
 ---------------------------------------------------------------------
 Center     Atomic      Atomic             Coordinates (Angstroms)
 Number     Number       Type             X           Y           Z
 ---------------------------------------------------------------------
      1          8           0        0.090685   -2.376467    0.000000
      2          1           0        0.090601   -1.393866    0.000000
      3          1           0       -0.838781   -2.695213    0.000000
      4          8           0        0.090685    2.237759    0.000000
      5          1           0        0.154866    3.218262    0.000000
      6          1           0       -0.857639    1.980485    0.000000
 ---------------------------------------------------------------------

 SCF Done:  E(RHF) =  -33.6524653760     A.U. after   11 cycles
 E2 =    -0.2283957637D+00 EUMP2 =    -0.33880861139656D+02
 CCSD(T)
 CCSD(T)= -0.33897848733D+02

 The electronic state is 1-A'.
 Alpha  occ. eigenvalues --   -1.36684  -1.34880  -0.72351  -0.70479  -0.56468
 Alpha  occ. eigenvalues --   -0.54615  -0.51259  -0.49451
 Alpha virt. eigenvalues --    0.18123   0.21705   0.29380   0.31391   0.79322
 Alpha virt. eigenvalues --    0.81086   0.82342   0.84064   0.85390   0.87550
 Alpha virt. eigenvalues --    1.15952   1.18433   1.20706   1.24495   2.55840

 Mulliken charges:
               1
     1  O   -0.743953
     2  H    0.378943
     3  H    0.364746
     4  O   -0.744540
     5  H    0.377963
     6  H    0.366841
 Sum of Mulliken charges =  -0.00000

 Dipole moment (field-independent basis, Debye):
    X=             -4.1528    Y=              3.3005    Z=              0.0000  Tot=              5.3046
 Quadrupole moment (field-independent basis, Debye-Ang):
   XX=            -11.1365   YY=             -9.1438   ZZ=            -14.9888
   XY=              2.5852   XZ=              0.0000   YZ=              0.0000

 547\MP4DQ=-33.8921962\MP4SDQ=-33.894231\CCSD=-33.8952793\CCSD(T)=-33.8
 Normal termination of Gaussian 16 at Sun Dec 10 06:31:08 2023.
