 Gaussian 16, Revision A.03,
 Gaussian 16:  ES64L-G16RevA.03 25-Dec-2016

 ------------------
 #p CCSD(T)/CEP-31G
 ------------------

 ------------
 H2O_H2O_2568
 ------------
 Symbolic Z-matrix:
 Charge =  0 Multiplicity = 1

                         Standard orientation:
 ---------------------------------------------------------------------
 Center     Atomic      Atomic             Coordinates (Angstroms)
 Number     Number       Type             X           Y           Z
 ---------------------------------------------------------------------
      1          8           0        0.033812    2.128307    0.000000
      2          1           0        0.031350    1.145709    0.000000
      3          1           0       -0.894879    2.449301    0.000000
      4          8           0        0.033812   -1.950801   -0.000000
      5          1           0        0.940673   -2.329099   -0.000000
      6          1           0       -0.618142   -2.685961   -0.000000
 ---------------------------------------------------------------------

 SCF Done:  E(RHF) =  -33.6566448936     A.U. after   11 cycles
 E2 =    -0.2283869638D+00 EUMP2 =    -0.33885031857345D+02
 CCSD(T)
 CCSD(T)= -0.33901920647D+02

 The electronic state is 1-A'.
 Alpha  occ. eigenvalues --   -1.36942  -1.33697  -0.72591  -0.69330  -0.56977
 Alpha  occ. eigenvalues --   -0.53551  -0.51582  -0.48339
 Alpha virt. eigenvalues --    0.18473   0.22916   0.29334   0.33120   0.78955
 Alpha virt. eigenvalues --    0.82162   0.83643   0.84707   0.85908   0.88191
 Alpha virt. eigenvalues --    1.16133   1.19774   1.20571   1.28682   2.54708

 Mulliken charges:
               1
     1  O   -0.760879
     2  H    0.393875
     3  H    0.365406
     4  O   -0.756460
     5  H    0.380085
     6  H    0.377973
 Sum of Mulliken charges =  -0.00000

 Dipole moment (field-independent basis, Debye):
    X=             -1.5334    Y=             -4.2858    Z=             -0.0000  Tot=              4.5519
 Quadrupole moment (field-independent basis, Debye-Ang):
   XX=             -9.4274   YY=             -7.0056   ZZ=            -14.9982
   XY=             -6.3501   XZ=             -0.0000   YZ=              0.0000

 5037\MP4DQ=-33.8962592\MP4SDQ=-33.8983108\CCSD=-33.8993422\CCSD(T)=-33
 Normal termination of Gaussian 16 at Sun Dec 10 06:19:14 2023.
