 Gaussian 16, Revision A.03,
 Gaussian 16:  ES64L-G16RevA.03 25-Dec-2016

 ------------------
 #p CCSD(T)/CEP-31G
 ------------------

 ------------
 H2O_H2O_2614
 ------------
 Symbolic Z-matrix:
 Charge =  0 Multiplicity = 1

                         Standard orientation:
 ---------------------------------------------------------------------
 Center     Atomic      Atomic             Coordinates (Angstroms)
 Number     Number       Type             X           Y           Z
 ---------------------------------------------------------------------
      1          8           0        0.048598    2.149805    0.000000
      2          1           0        0.046769    1.167205    0.000000
      3          1           0       -0.880301    2.470200   -0.000000
      4          8           0        0.048598   -1.969432    0.000000
      5          1           0        0.827034   -2.569052    0.000000
      6          1           0       -0.771067   -2.511333   -0.000000
 ---------------------------------------------------------------------

 SCF Done:  E(RHF) =  -33.6562315305     A.U. after   11 cycles
 E2 =    -0.2283958503D+00 EUMP2 =    -0.33884627380806D+02
 CCSD(T)
 CCSD(T)= -0.33901522720D+02

 The electronic state is 1-A'.
 Alpha  occ. eigenvalues --   -1.36930  -1.33710  -0.72578  -0.69328  -0.56940
 Alpha  occ. eigenvalues --   -0.53545  -0.51564  -0.48341
 Alpha virt. eigenvalues --    0.18531   0.22828   0.29330   0.33020   0.78984
 Alpha virt. eigenvalues --    0.82156   0.83999   0.84413   0.85509   0.88296
 Alpha virt. eigenvalues --    1.16142   1.19706   1.20575   1.28086   2.54789

 Mulliken charges:
               1
     1  O   -0.759109
     2  H    0.393809
     3  H    0.363765
     4  O   -0.755043
     5  H    0.380775
     6  H    0.375802
 Sum of Mulliken charges =  -0.00000

 Dipole moment (field-independent basis, Debye):
    X=             -2.2075    Y=             -4.3525    Z=             -0.0000  Tot=              4.8803
 Quadrupole moment (field-independent basis, Debye-Ang):
   XX=             -9.4576   YY=             -6.8285   ZZ=            -14.9974
   XY=             -5.5843   XZ=              0.0000   YZ=             -0.0000

 1085\MP4DQ=-33.8958628\MP4SDQ=-33.8979131\CCSD=-33.8989457\CCSD(T)=-33
 Normal termination of Gaussian 16 at Sun Dec 10 06:20:03 2023.
