 Gaussian 16, Revision A.03,
 Gaussian 16:  ES64L-G16RevA.03 25-Dec-2016

 ------------------
 #p CCSD(T)/CEP-31G
 ------------------

 ------------
 H2O_H2O_4531
 ------------
 Symbolic Z-matrix:
 Charge =  0 Multiplicity = 1

                         Standard orientation:
 ---------------------------------------------------------------------
 Center     Atomic      Atomic             Coordinates (Angstroms)
 Number     Number       Type             X           Y           Z
 ---------------------------------------------------------------------
      1          8           0        0.076748    2.908325    0.000000
      2          1           0        0.076262    1.925724    0.000000
      3          1           0       -0.852587    3.227452   -0.000000
      4          8           0        0.076748   -2.745098    0.000000
      5          1           0        0.452324   -3.653090    0.000000
      6          1           0       -0.903970   -2.805905   -0.000000
 ---------------------------------------------------------------------

 SCF Done:  E(RHF) =  -33.6526513003     A.U. after   11 cycles
 E2 =    -0.2283302441D+00 EUMP2 =    -0.33880981544442D+02
 CCSD(T)
 CCSD(T)= -0.33897957783D+02

 The electronic state is 1-A'.
 Alpha  occ. eigenvalues --   -1.36274  -1.34870  -0.71918  -0.70492  -0.56061
 Alpha  occ. eigenvalues --   -0.54627  -0.50858  -0.49453
 Alpha virt. eigenvalues --    0.19516   0.21005   0.29788   0.31265   0.79700
 Alpha virt. eigenvalues --    0.81076   0.82613   0.84083   0.85731   0.87239
 Alpha virt. eigenvalues --    1.16665   1.18069   1.21108   1.22587   2.56643

 Mulliken charges:
               1
     1  O   -0.744533
     2  H    0.377208
     3  H    0.367316
     4  O   -0.744529
     5  H    0.374638
     6  H    0.369899
 Sum of Mulliken charges =   0.00000

 Dipole moment (field-independent basis, Debye):
    X=             -3.5285    Y=             -3.8300    Z=             -0.0000  Tot=              5.2076
 Quadrupole moment (field-independent basis, Debye-Ang):
   XX=            -10.3168   YY=             -6.6406   ZZ=            -14.9901
   XY=             -4.4049   XZ=              0.0000   YZ=             -0.0000

 5751\MP4DQ=-33.8923192\MP4SDQ=-33.8943448\CCSD=-33.8953983\CCSD(T)=-33
 Normal termination of Gaussian 16 at Sun Dec 10 06:54:33 2023.
