 Gaussian 16, Revision A.03,
 Gaussian 16:  ES64L-G16RevA.03 25-Dec-2016

 ------------------
 #p CCSD(T)/CEP-31G
 ------------------

 -----------
 H2O_H2O_805
 -----------
 Symbolic Z-matrix:
 Charge =  0 Multiplicity = 1

                         Standard orientation:
 ---------------------------------------------------------------------
 Center     Atomic      Atomic             Coordinates (Angstroms)
 Number     Number       Type             X           Y           Z
 ---------------------------------------------------------------------
      1          8           0        0.079879   -1.420218    0.000000
      2          1           0        0.079050   -0.437617    0.000000
      3          1           0       -0.849345   -1.739668    0.000000
      4          8           0        0.079879    1.261212    0.000000
      5          1           0        0.394942    2.191933    0.000000
      6          1           0       -0.902715    1.257403    0.000000
 ---------------------------------------------------------------------

 SCF Done:  E(RHF) =  -33.6539570761     A.U. after   11 cycles
 E2 =    -0.2289820730D+00 EUMP2 =    -0.33882939149135D+02
 CCSD(T)
 CCSD(T)= -0.33899510854D+02

 The electronic state is 1-A'.
 Alpha  occ. eigenvalues --   -1.39848  -1.31668  -0.76090  -0.68655  -0.59222
 Alpha  occ. eigenvalues --   -0.54338  -0.50981  -0.46156
 Alpha virt. eigenvalues --    0.16858   0.25963   0.27531   0.47244   0.74631
 Alpha virt. eigenvalues --    0.77597   0.85191   0.86902   0.94248   1.10157
 Alpha virt. eigenvalues --    1.15800   1.22715   1.25511   1.36473   2.57096

 Mulliken charges:
               1
     1  O   -0.752129
     2  H    0.401186
     3  H    0.337567
     4  O   -0.808033
     5  H    0.440764
     6  H    0.380644
 Sum of Mulliken charges =   0.00000

 Dipole moment (field-independent basis, Debye):
    X=             -3.4682    Y=              4.3645    Z=              0.0000  Tot=              5.5747
 Quadrupole moment (field-independent basis, Debye-Ang):
   XX=            -10.5191   YY=             -9.2008   ZZ=            -15.0003
   XY=              3.1234   XZ=              0.0000   YZ=              0.0000

 61\MP4DQ=-33.8935166\MP4SDQ=-33.8957463\CCSD=-33.8966703\CCSD(T)=-33.8
 Normal termination of Gaussian 16 at Sun Dec 10 06:33:39 2023.
