 Gaussian 16, Revision A.03,
 Gaussian 16:  ES64L-G16RevA.03 25-Dec-2016

 ------------------
 #p CCSD(T)/CEP-31G
 ------------------

 ------------
 H2O_H2O_2002
 ------------
 Symbolic Z-matrix:
 Charge =  0 Multiplicity = 1

                         Standard orientation:
 ---------------------------------------------------------------------
 Center     Atomic      Atomic             Coordinates (Angstroms)
 Number     Number       Type             X           Y           Z
 ---------------------------------------------------------------------
      1          8           0        0.088235   -1.890886    0.000000
      2          1           0        0.088015   -0.908285    0.000000
      3          1           0       -0.841187   -2.209761    0.000000
      4          8           0        0.088235    1.746574    0.000000
      5          1           0        0.216272    2.720799    0.000000
      6          1           0       -0.874857    1.551742    0.000000
 ---------------------------------------------------------------------

 SCF Done:  E(RHF) =  -33.6539743019     A.U. after   11 cycles
 E2 =    -0.2287590922D+00 EUMP2 =    -0.33882733394165D+02
 CCSD(T)
 CCSD(T)= -0.33899753370D+02

 The electronic state is 1-A'.
 Alpha  occ. eigenvalues --   -1.37480  -1.34202  -0.73241  -0.69742  -0.57387
 Alpha  occ. eigenvalues --   -0.53918  -0.52060  -0.48773
 Alpha virt. eigenvalues --    0.16925   0.23542   0.28707   0.34066   0.78203
 Alpha virt. eigenvalues --    0.82133   0.82534   0.84689   0.88204   0.93417
 Alpha virt. eigenvalues --    1.15321   1.18641   1.20737   1.36446   2.53814

 Mulliken charges:
               1
     1  O   -0.752418
     2  H    0.391851
     3  H    0.358329
     4  O   -0.752253
     5  H    0.387702
     6  H    0.366790
 Sum of Mulliken charges =  -0.00000

 Dipole moment (field-independent basis, Debye):
    X=             -3.9986    Y=              3.5600    Z=              0.0000  Tot=              5.3537
 Quadrupole moment (field-independent basis, Debye-Ang):
   XX=            -10.9964   YY=             -8.9715   ZZ=            -14.9904
   XY=              2.7498   XZ=              0.0000   YZ=              0.0000

 69\MP4DQ=-33.894\MP4SDQ=-33.8961006\CCSD=-33.8971263\CCSD(T)=-33.89975
 Normal termination of Gaussian 16 at Sun Dec 10 06:56:40 2023.
