 Gaussian 16, Revision A.03,
 Gaussian 16:  ES64L-G16RevA.03 25-Dec-2016

 ------------------
 #p CCSD(T)/CEP-31G
 ------------------

 ------------
 H2O_H2O_3689
 ------------
 Symbolic Z-matrix:
 Charge =  0 Multiplicity = 1

                         Standard orientation:
 ---------------------------------------------------------------------
 Center     Atomic      Atomic             Coordinates (Angstroms)
 Number     Number       Type             X           Y           Z
 ---------------------------------------------------------------------
      1          8           0        0.048569    2.578613   -0.000000
      2          1           0        0.047055    1.596013   -0.000000
      3          1           0       -0.880432    2.898711   -0.000000
      4          8           0        0.048569   -2.398209    0.000000
      5          1           0        0.827198   -2.997579    0.000000
      6          1           0       -0.770922   -2.940372    0.000000
 ---------------------------------------------------------------------

 SCF Done:  E(RHF) =  -33.6540831662     A.U. after   11 cycles
 E2 =    -0.2282912124D+00 EUMP2 =    -0.33882374378587D+02
 CCSD(T)
 CCSD(T)= -0.33899309394D+02

 The electronic state is 1-A'.
 Alpha  occ. eigenvalues --   -1.36455  -1.34367  -0.72097  -0.69992  -0.56323
 Alpha  occ. eigenvalues --   -0.54168  -0.51060  -0.48973
 Alpha virt. eigenvalues --    0.19318   0.21665   0.29690   0.31899   0.79501
 Alpha virt. eigenvalues --    0.81526   0.82260   0.84552   0.85503   0.87676
 Alpha virt. eigenvalues --    1.16545   1.18693   1.20979   1.23486   2.56508

 Mulliken charges:
               1
     1  O   -0.750058
     2  H    0.383003
     3  H    0.366886
     4  O   -0.749039
     5  H    0.376211
     6  H    0.372998
 Sum of Mulliken charges =   0.00000

 Dipole moment (field-independent basis, Debye):
    X=             -2.2235    Y=             -4.2620    Z=              0.0000  Tot=              4.8071
 Quadrupole moment (field-independent basis, Debye-Ang):
   XX=             -9.4612   YY=             -5.8426   ZZ=            -14.9933
   XY=             -6.4717   XZ=              0.0000   YZ=             -0.0000

 274\MP4DQ=-33.8936777\MP4SDQ=-33.8957032\CCSD=-33.8967512\CCSD(T)=-33.
 Normal termination of Gaussian 16 at Sun Dec 10 06:39:23 2023.
