 Gaussian 16, Revision A.03,
 Gaussian 16:  ES64L-G16RevA.03 25-Dec-2016

 ------------------
 #p CCSD(T)/CEP-31G
 ------------------

 -----------
 H2O_H2O_511
 -----------
 Symbolic Z-matrix:
 Charge =  0 Multiplicity = 1

                         Standard orientation:
 ---------------------------------------------------------------------
 Center     Atomic      Atomic             Coordinates (Angstroms)
 Number     Number       Type             X           Y           Z
 ---------------------------------------------------------------------
      1          8           0        0.059737    1.310507    0.000000
      2          1           0        0.057423    0.327908    0.000000
      3          1           0       -0.869003    1.631361   -0.000000
      4          8           0        0.059737   -1.133191    0.000000
      5          1           0        0.705870   -1.873473    0.000000
      6          1           0       -0.850081   -1.504321   -0.000000
 ---------------------------------------------------------------------

 SCF Done:  E(RHF) =  -33.6518756616     A.U. after   11 cycles
 E2 =    -0.2289427809D+00 EUMP2 =    -0.33880818442516D+02
 CCSD(T)
 CCSD(T)= -0.33896487618D+02

 The electronic state is 1-A'.
 Alpha  occ. eigenvalues --   -1.41215  -1.29448  -0.76624  -0.71415  -0.58171
 Alpha  occ. eigenvalues --   -0.55715  -0.48220  -0.43865
 Alpha virt. eigenvalues --    0.16902   0.26499   0.28278   0.54582   0.73925
 Alpha virt. eigenvalues --    0.74563   0.85474   0.89195   0.96181   1.03853
 Alpha virt. eigenvalues --    1.14393   1.18191   1.24053   1.36116   2.70897

 Mulliken charges:
               1
     1  O   -0.765801
     2  H    0.417292
     3  H    0.326913
     4  O   -0.834868
     5  H    0.447988
     6  H    0.408476
 Sum of Mulliken charges =  -0.00000

 Dipole moment (field-independent basis, Debye):
    X=             -2.5069    Y=             -5.0432    Z=             -0.0000  Tot=              5.6319
 Quadrupole moment (field-independent basis, Debye-Ang):
   XX=             -9.6161   YY=             -9.7047   ZZ=            -15.0038
   XY=             -3.6182   XZ=              0.0000   YZ=             -0.0000

 24\MP4DQ=-33.8904734\MP4SDQ=-33.8926894\CCSD=-33.8934816\CCSD(T)=-33.8
 Normal termination of Gaussian 16 at Sun Dec 10 06:28:08 2023.
