 Gaussian 16, Revision A.03,
 Gaussian 16:  ES64L-G16RevA.03 25-Dec-2016

 ------------------
 #p CCSD(T)/CEP-31G
 ------------------

 ------------
 H2O_H2O_4529
 ------------
 Symbolic Z-matrix:
 Charge =  0 Multiplicity = 1

                         Standard orientation:
 ---------------------------------------------------------------------
 Center     Atomic      Atomic             Coordinates (Angstroms)
 Number     Number       Type             X           Y           Z
 ---------------------------------------------------------------------
      1          8           0        0.082798    2.903602    0.000000
      2          1           0        0.082493    1.921000    0.000000
      3          1           0       -0.846596    3.222556   -0.000000
      4          8           0        0.082798   -2.749071    0.000000
      5          1           0        0.336819   -3.698270    0.000000
      6          1           0       -0.897480   -2.681529   -0.000000
 ---------------------------------------------------------------------

 SCF Done:  E(RHF) =  -33.6524372090     A.U. after   11 cycles
 E2 =    -0.2283400370D+00 EUMP2 =    -0.33880777246002D+02
 CCSD(T)
 CCSD(T)= -0.33897759974D+02

 The electronic state is 1-A'.
 Alpha  occ. eigenvalues --   -1.36283  -1.34965  -0.71928  -0.70585  -0.56058
 Alpha  occ. eigenvalues --   -0.54714  -0.50863  -0.49544
 Alpha virt. eigenvalues --    0.19484   0.20905   0.29769   0.31148   0.79697
 Alpha virt. eigenvalues --    0.80990   0.82630   0.84001   0.85725   0.87167
 Alpha virt. eigenvalues --    1.16646   1.17967   1.21095   1.22480   2.56612

 Mulliken charges:
               1
     1  O   -0.743709
     2  H    0.376417
     3  H    0.367285
     4  O   -0.743845
     5  H    0.374601
     6  H    0.369250
 Sum of Mulliken charges =   0.00000

 Dipole moment (field-independent basis, Debye):
    X=             -3.8077    Y=             -3.6264    Z=             -0.0000  Tot=              5.2582
 Quadrupole moment (field-independent basis, Debye-Ang):
   XX=            -10.6369   YY=             -7.4668   ZZ=            -14.9896
   XY=             -3.6979   XZ=              0.0000   YZ=             -0.0000

 765\MP4DQ=-33.8921196\MP4SDQ=-33.8941458\CCSD=-33.8951997\CCSD(T)=-33.
 Normal termination of Gaussian 16 at Sun Dec 10 06:54:31 2023.
