 Gaussian 16, Revision A.03,
 Gaussian 16:  ES64L-G16RevA.03 25-Dec-2016

 ------------------
 #p CCSD(T)/CEP-31G
 ------------------

 ------------
 H2O_H2O_4780
 ------------
 Symbolic Z-matrix:
 Charge =  0 Multiplicity = 1

                         Standard orientation:
 ---------------------------------------------------------------------
 Center     Atomic      Atomic             Coordinates (Angstroms)
 Number     Number       Type             X           Y           Z
 ---------------------------------------------------------------------
      1          8           0        0.079843    3.005791    0.000000
      2          1           0        0.079463    2.023190    0.000000
      3          1           0       -0.849527    3.324817   -0.000000
      4          8           0        0.079843   -2.846712    0.000000
      5          1           0        0.395331   -3.777289    0.000000
      6          1           0       -0.902753   -2.843353   -0.000000
 ---------------------------------------------------------------------

 SCF Done:  E(RHF) =  -33.6524624055     A.U. after   11 cycles
 E2 =    -0.2283378904D+00 EUMP2 =    -0.33880800295900D+02
 CCSD(T)
 CCSD(T)= -0.33897782019D+02

 The electronic state is 1-A'.
 Alpha  occ. eigenvalues --   -1.36232  -1.34965  -0.71875  -0.70588  -0.56007
 Alpha  occ. eigenvalues --   -0.54717  -0.50813  -0.49545
 Alpha virt. eigenvalues --    0.19559   0.20887   0.29822   0.31143   0.79745
 Alpha virt. eigenvalues --    0.80989   0.82686   0.83997   0.85789   0.87147
 Alpha virt. eigenvalues --    1.16700   1.17964   1.21149   1.22460   2.56689

 Mulliken charges:
               1
     1  O   -0.743790
     2  H    0.376166
     3  H    0.367622
     4  O   -0.743846
     5  H    0.374216
     6  H    0.369634
 Sum of Mulliken charges =  -0.00000

 Dipole moment (field-independent basis, Debye):
    X=             -3.6736    Y=             -3.7275    Z=             -0.0000  Tot=              5.2335
 Quadrupole moment (field-independent basis, Debye-Ang):
   XX=            -10.4736   YY=             -6.9088   ZZ=            -14.9897
   XY=             -4.1127   XZ=              0.0000   YZ=             -0.0000

 3988\MP4DQ=-33.8921423\MP4SDQ=-33.8941682\CCSD=-33.8952223\CCSD(T)=-33
 Normal termination of Gaussian 16 at Sun Dec 10 06:59:03 2023.
