 Gaussian 16, Revision A.03,
 Gaussian 16:  ES64L-G16RevA.03 25-Dec-2016

 ------------------
 #p CCSD(T)/CEP-31G
 ------------------

 ------------
 H2O_H2O_4785
 ------------
 Symbolic Z-matrix:
 Charge =  0 Multiplicity = 1

                         Standard orientation:
 ---------------------------------------------------------------------
 Center     Atomic      Atomic             Coordinates (Angstroms)
 Number     Number       Type             X           Y           Z
 ---------------------------------------------------------------------
      1          8           0        0.063214    3.014734    0.000000
      2          1           0        0.062352    2.032133    0.000000
      3          1           0       -0.866000    3.334215    0.000000
      4          8           0        0.063214   -2.839194   -0.000000
      5          1           0        0.660700   -3.619267   -0.000000
      6          1           0       -0.868469   -3.151400   -0.000000
 ---------------------------------------------------------------------

 SCF Done:  E(RHF) =  -33.6528797767     A.U. after   11 cycles
 E2 =    -0.2283188217D+00 EUMP2 =    -0.33881198598398D+02
 CCSD(T)
 CCSD(T)= -0.33898167942D+02

 The electronic state is 1-A'.
 Alpha  occ. eigenvalues --   -1.36215  -1.34795  -0.71856  -0.70422  -0.56013
 Alpha  occ. eigenvalues --   -0.54563  -0.50803  -0.49383
 Alpha virt. eigenvalues --    0.19608   0.21078   0.29863   0.31350   0.79751
 Alpha virt. eigenvalues --    0.81142   0.82654   0.84140   0.85802   0.87273
 Alpha virt. eigenvalues --    1.16735   1.18152   1.21180   1.22648   2.56720

 Mulliken charges:
               1
     1  O   -0.745390
     2  H    0.377489
     3  H    0.367897
     4  O   -0.745136
     5  H    0.374186
     6  H    0.370954
 Sum of Mulliken charges =  -0.00000

 Dipole moment (field-independent basis, Debye):
    X=             -2.9069    Y=             -4.1118    Z=             -0.0000  Tot=              5.0356
 Quadrupole moment (field-independent basis, Debye-Ang):
   XX=             -9.7749   YY=             -5.3088   ZZ=            -14.9907
   XY=             -5.9423   XZ=             -0.0000   YZ=              0.0000

 862\MP4DQ=-33.8925316\MP4SDQ=-33.8945564\CCSD=-33.8956096\CCSD(T)=-33.
 Normal termination of Gaussian 16 at Sun Dec 10 06:59:08 2023.
