 Gaussian 16, Revision A.03,
 Gaussian 16:  ES64L-G16RevA.03 25-Dec-2016

 ------------------
 #p CCSD(T)/CEP-31G
 ------------------

 ------------
 H2O_H2O_2166
 ------------
 Symbolic Z-matrix:
 Charge =  0 Multiplicity = 1

                         Standard orientation:
 ---------------------------------------------------------------------
 Center     Atomic      Atomic             Coordinates (Angstroms)
 Number     Number       Type             X           Y           Z
 ---------------------------------------------------------------------
      1          8           0        0.041177    1.970051   -0.000000
      2          1           0        0.038838    0.987452   -0.000000
      3          1           0       -0.887555    2.290929   -0.000000
      4          8           0        0.041177   -1.790160    0.000000
      5          1           0        0.890963   -2.283485    0.000000
      6          1           0       -0.701078   -2.434026    0.000000
 ---------------------------------------------------------------------

 SCF Done:  E(RHF) =  -33.6580133098     A.U. after   11 cycles
 E2 =    -0.2285127737D+00 EUMP2 =    -0.33886526083431D+02
 CCSD(T)
 CCSD(T)= -0.33903399718D+02

 The electronic state is 1-A'.
 Alpha  occ. eigenvalues --   -1.37231  -1.33263  -0.72879  -0.68906  -0.57394
 Alpha  occ. eigenvalues --   -0.53117  -0.51889  -0.47917
 Alpha virt. eigenvalues --    0.18256   0.23662   0.29125   0.34464   0.78529
 Alpha virt. eigenvalues --    0.82699   0.83328   0.86046   0.87391   0.89103
 Alpha virt. eigenvalues --    1.15874   1.20105   1.20441   1.31521   2.52632

 Mulliken charges:
               1
     1  O   -0.767173
     2  H    0.402517
     3  H    0.362425
     4  O   -0.761204
     5  H    0.383704
     6  H    0.379731
 Sum of Mulliken charges =  -0.00000

 Dipole moment (field-independent basis, Debye):
    X=             -1.8592    Y=             -4.4016    Z=              0.0000  Tot=              4.7781
 Quadrupole moment (field-independent basis, Debye-Ang):
   XX=             -9.4010   YY=             -7.2937   ZZ=            -15.0009
   XY=             -5.5566   XZ=              0.0000   YZ=             -0.0000

 563\MP4DQ=-33.8977063\MP4SDQ=-33.8997733\CCSD=-33.9007989\CCSD(T)=-33.
 Normal termination of Gaussian 16 at Sun Dec 10 06:59:52 2023.
