 Gaussian 16, Revision A.03,
 Gaussian 16:  ES64L-G16RevA.03 25-Dec-2016

 ------------------
 #p CCSD(T)/CEP-31G
 ------------------

 ------------
 H2O_H2O_2582
 ------------
 Symbolic Z-matrix:
 Charge =  0 Multiplicity = 1

                         Standard orientation:
 ---------------------------------------------------------------------
 Center     Atomic      Atomic             Coordinates (Angstroms)
 Number     Number       Type             X           Y           Z
 ---------------------------------------------------------------------
      1          8           0        0.073542    2.132528   -0.000000
      2          1           0        0.072738    1.149927   -0.000000
      3          1           0       -0.855690    2.451955    0.000000
      4          8           0        0.073542   -1.965598   -0.000000
      5          1           0        0.507415   -2.847222   -0.000000
      6          1           0       -0.901140   -2.090100    0.000000
 ---------------------------------------------------------------------

 SCF Done:  E(RHF) =  -33.6548862279     A.U. after   11 cycles
 E2 =    -0.2284555045D+00 EUMP2 =    -0.33883341732423D+02
 CCSD(T)
 CCSD(T)= -0.33900280274D+02

 The electronic state is 1-A'.
 Alpha  occ. eigenvalues --   -1.36983  -1.34026  -0.72651  -0.69620  -0.56912
 Alpha  occ. eigenvalues --   -0.53811  -0.51592  -0.48629
 Alpha virt. eigenvalues --    0.18104   0.22661   0.29161   0.32740   0.78953
 Alpha virt. eigenvalues --    0.81905   0.83270   0.84904   0.85919   0.88251
 Alpha virt. eigenvalues --    1.15948   1.19430   1.20474   1.29081   2.55096

 Mulliken charges:
               1
     1  O   -0.754035
     2  H    0.390748
     3  H    0.361928
     4  O   -0.751969
     5  H    0.381789
     6  H    0.371538
 Sum of Mulliken charges =   0.00000

 Dipole moment (field-independent basis, Debye):
    X=             -3.3477    Y=             -4.0336    Z=              0.0000  Tot=              5.2418
 Quadrupole moment (field-independent basis, Debye-Ang):
   XX=            -10.1750   YY=             -7.5475   ZZ=            -14.9941
   XY=             -4.0476   XZ=             -0.0000   YZ=              0.0000

 592\MP4DQ=-33.8946072\MP4SDQ=-33.8966627\CCSD=-33.8976973\CCSD(T)=-33.
 Normal termination of Gaussian 16 at Sun Dec 10 06:19:29 2023.
