 Gaussian 16, Revision A.03,
 Gaussian 16:  ES64L-G16RevA.03 25-Dec-2016

 ------------------
 #p CCSD(T)/CEP-31G
 ------------------

 ------------
 H2O_H2O_3455
 ------------
 Symbolic Z-matrix:
 Charge =  0 Multiplicity = 1

                         Standard orientation:
 ---------------------------------------------------------------------
 Center     Atomic      Atomic             Coordinates (Angstroms)
 Number     Number       Type             X           Y           Z
 ---------------------------------------------------------------------
      1          8           0        0.079850    2.477272    0.000000
      2          1           0        0.079386    1.494671    0.000000
      3          1           0       -0.849493    2.796377    0.000000
      4          8           0        0.079850   -2.318207   -0.000000
      5          1           0        0.395258   -3.248810   -0.000000
      6          1           0       -0.902746   -2.314764   -0.000000
 ---------------------------------------------------------------------

 SCF Done:  E(RHF) =  -33.6531773230     A.U. after   11 cycles
 E2 =    -0.2283437261D+00 EUMP2 =    -0.33881521049181D+02
 CCSD(T)
 CCSD(T)= -0.33898483866D+02

 The electronic state is 1-A'.
 Alpha  occ. eigenvalues --   -1.36569  -1.34620  -0.72224  -0.70229  -0.56388
 Alpha  occ. eigenvalues --   -0.54382  -0.51157  -0.49206
 Alpha virt. eigenvalues --    0.18882   0.21550   0.29490   0.31633   0.79415
 Alpha virt. eigenvalues --    0.81311   0.82287   0.84333   0.85384   0.87646
 Alpha virt. eigenvalues --    1.16342   1.18502   1.20784   1.23808   2.56358

 Mulliken charges:
               1
     1  O   -0.746624
     2  H    0.381232
     3  H    0.365171
     4  O   -0.746651
     5  H    0.377375
     6  H    0.369497
 Sum of Mulliken charges =  -0.00000

 Dipole moment (field-independent basis, Debye):
    X=             -3.6574    Y=             -3.7719    Z=             -0.0000  Tot=              5.2540
 Quadrupole moment (field-independent basis, Debye-Ang):
   XX=            -10.4804   YY=             -7.5546   ZZ=            -14.9909
   XY=             -3.7865   XZ=             -0.0000   YZ=              0.0000

 62\MP4DQ=-33.8928418\MP4SDQ=-33.8948717\CCSD=-33.8959203\CCSD(T)=-33.8
 Normal termination of Gaussian 16 at Sun Dec 10 06:35:12 2023.
