 Gaussian 16, Revision A.03,
 Gaussian 16:  ES64L-G16RevA.03 25-Dec-2016

 ------------------
 #p CCSD(T)/CEP-31G
 ------------------

 -----------
 H2O_H2O_811
 -----------
 Symbolic Z-matrix:
 Charge =  0 Multiplicity = 1

                         Standard orientation:
 ---------------------------------------------------------------------
 Center     Atomic      Atomic             Coordinates (Angstroms)
 Number     Number       Type             X           Y           Z
 ---------------------------------------------------------------------
      1          8           0        0.059718    1.430182   -0.000000
      2          1           0        0.057611    0.447583   -0.000000
      3          1           0       -0.869089    1.750841    0.000000
      4          8           0        0.059718   -1.252841   -0.000000
      5          1           0        0.706007   -1.992988   -0.000000
      6          1           0       -0.850022   -1.624162    0.000000
 ---------------------------------------------------------------------

 SCF Done:  E(RHF) =  -33.6602931464     A.U. after   11 cycles
 E2 =    -0.2291308530D+00 EUMP2 =    -0.33889423999407D+02
 CCSD(T)
 CCSD(T)= -0.33905667012D+02

 The electronic state is 1-A'.
 Alpha  occ. eigenvalues --   -1.39661  -1.30690  -0.75247  -0.68968  -0.59178
 Alpha  occ. eigenvalues --   -0.54345  -0.50001  -0.45251
 Alpha virt. eigenvalues --    0.17274   0.26913   0.27554   0.48554   0.74806
 Alpha virt. eigenvalues --    0.76203   0.85214   0.87453   0.96248   1.02884
 Alpha virt. eigenvalues --    1.15206   1.18518   1.22706   1.36504   2.57799

 Mulliken charges:
               1
     1  O   -0.776877
     2  H    0.433124
     3  H    0.338697
     4  O   -0.821328
     5  H    0.429265
     6  H    0.397119
 Sum of Mulliken charges =  -0.00000

 Dipole moment (field-independent basis, Debye):
    X=             -2.5695    Y=             -4.7869    Z=              0.0000  Tot=              5.4329
 Quadrupole moment (field-independent basis, Debye-Ang):
   XX=             -9.6375   YY=             -9.1185   ZZ=            -15.0150
   XY=             -3.8342   XZ=             -0.0000   YZ=              0.0000

 9\MP4DQ=-33.8997504\MP4SDQ=-33.9019068\CCSD=-33.9028012\CCSD(T)=-33.90
 Normal termination of Gaussian 16 at Sun Dec 10 06:33:46 2023.
