 Gaussian 16, Revision A.03,
 Gaussian 16:  ES64L-G16RevA.03 25-Dec-2016

 ------------------
 #p CCSD(T)/CEP-31G
 ------------------

 ------------
 H2O_H2O_2655
 ------------
 Symbolic Z-matrix:
 Charge =  0 Multiplicity = 1

                         Standard orientation:
 ---------------------------------------------------------------------
 Center     Atomic      Atomic             Coordinates (Angstroms)
 Number     Number       Type             X           Y           Z
 ---------------------------------------------------------------------
      1          8           0        0.079855    2.158165    0.000000
      2          1           0        0.079321    1.175563    0.000000
      3          1           0       -0.849464    2.477337    0.000000
      4          8           0        0.079855   -1.999110   -0.000000
      5          1           0        0.395197   -2.929738   -0.000000
      6          1           0       -0.902740   -1.995596   -0.000000
 ---------------------------------------------------------------------

 SCF Done:  E(RHF) =  -33.6541619344     A.U. after   11 cycles
 E2 =    -0.2284566943D+00 EUMP2 =    -0.33882618628711D+02
 CCSD(T)
 CCSD(T)= -0.33899574543D+02

 The electronic state is 1-A'.
 Alpha  occ. eigenvalues --   -1.36949  -1.34252  -0.72624  -0.69841  -0.56833
 Alpha  occ. eigenvalues --   -0.54019  -0.51547  -0.48844
 Alpha virt. eigenvalues --    0.17936   0.22496   0.29164   0.32398   0.79008
 Alpha virt. eigenvalues --    0.81696   0.83002   0.84715   0.85921   0.88103
 Alpha virt. eigenvalues --    1.15891   1.19215   1.20491   1.28650   2.55588

 Mulliken charges:
               1
     1  O   -0.751118
     2  H    0.387781
     3  H    0.362222
     4  O   -0.749981
     5  H    0.381223
     6  H    0.369872
 Sum of Mulliken charges =  -0.00000

 Dipole moment (field-independent basis, Debye):
    X=             -3.6399    Y=             -3.8347    Z=             -0.0000  Tot=              5.2871
 Quadrupole moment (field-independent basis, Debye-Ang):
   XX=            -10.4873   YY=             -7.9429   ZZ=            -14.9924
   XY=             -3.5860   XZ=             -0.0000   YZ=              0.0000

 157\MP4DQ=-33.8939028\MP4SDQ=-33.8959559\CCSD=-33.8969928\CCSD(T)=-33.
 Normal termination of Gaussian 16 at Sun Dec 10 06:20:48 2023.
