 Gaussian 16, Revision A.03,
 Gaussian 16:  ES64L-G16RevA.03 25-Dec-2016

 ------------------
 #p CCSD(T)/CEP-31G
 ------------------

 ------------
 H2O_H2O_4601
 ------------
 Symbolic Z-matrix:
 Charge =  0 Multiplicity = 1

                         Standard orientation:
 ---------------------------------------------------------------------
 Center     Atomic      Atomic             Coordinates (Angstroms)
 Number     Number       Type             X           Y           Z
 ---------------------------------------------------------------------
      1          8           0        0.090683   -2.924925    0.000000
      2          1           0        0.090616   -1.942324    0.000000
      3          1           0       -0.838788   -3.243656    0.000000
      4          8           0        0.090683    2.786214    0.000000
      5          1           0        0.154882    3.766716    0.000000
      6          1           0       -0.857644    2.528955    0.000000
 ---------------------------------------------------------------------

 SCF Done:  E(RHF) =  -33.6520752140     A.U. after   11 cycles
 E2 =    -0.2283574014D+00 EUMP2 =    -0.33880432615389D+02
 CCSD(T)
 CCSD(T)= -0.33897426453D+02

 The electronic state is 1-A'.
 Alpha  occ. eigenvalues --   -1.36282  -1.35144  -0.71929  -0.70763  -0.56038
 Alpha  occ. eigenvalues --   -0.54881  -0.50856  -0.49716
 Alpha virt. eigenvalues --    0.19441   0.20716   0.29748   0.30932   0.79707
 Alpha virt. eigenvalues --    0.80825   0.82674   0.83843   0.85740   0.87016
 Alpha virt. eigenvalues --    1.16624   1.17777   1.21085   1.22276   2.56535

 Mulliken charges:
               1
     1  O   -0.742304
     2  H    0.374823
     3  H    0.367478
     4  O   -0.742582
     5  H    0.374340
     6  H    0.368245
 Sum of Mulliken charges =  -0.00000

 Dipole moment (field-independent basis, Debye):
    X=             -4.1728    Y=              3.2543    Z=              0.0000  Tot=              5.2918
 Quadrupole moment (field-independent basis, Debye-Ang):
   XX=            -11.1254   YY=             -9.0246   ZZ=            -14.9886
   XY=              2.6524   XZ=              0.0000   YZ=              0.0000

 417\MP4DQ=-33.8917832\MP4SDQ=-33.8938103\CCSD=-33.894865\CCSD(T)=-33.8
 Normal termination of Gaussian 16 at Sun Dec 10 06:55:49 2023.
