 Gaussian 16, Revision A.03,
 Gaussian 16:  ES64L-G16RevA.03 25-Dec-2016

 ------------------
 #p CCSD(T)/CEP-31G
 ------------------

 ------------
 H2O_H2O_2396
 ------------
 Symbolic Z-matrix:
 Charge =  0 Multiplicity = 1

                         Standard orientation:
 ---------------------------------------------------------------------
 Center     Atomic      Atomic             Coordinates (Angstroms)
 Number     Number       Type             X           Y           Z
 ---------------------------------------------------------------------
      1          8           0       -0.023243    2.054629    0.000000
      2          1           0       -0.020238    1.072032    0.000000
      3          1           0        0.905271    2.376137    0.000000
      4          8           0       -0.023243   -1.884261    0.000000
      5          1           0       -0.986373   -2.078903    0.000000
      6          1           0        0.473231   -2.732210    0.000000
 ---------------------------------------------------------------------

 SCF Done:  E(RHF) =  -33.6571206562     A.U. after   11 cycles
 E2 =    -0.2284187475D+00 EUMP2 =    -0.33885539403631D+02
 CCSD(T)
 CCSD(T)= -0.33902431266D+02

 The electronic state is 1-A'.
 Alpha  occ. eigenvalues --   -1.37043  -1.33678  -0.72701  -0.69326  -0.57113
 Alpha  occ. eigenvalues --   -0.53543  -0.51687  -0.48329
 Alpha virt. eigenvalues --    0.18199   0.23185   0.29258   0.33450   0.78805
 Alpha virt. eigenvalues --    0.82217   0.83191   0.85211   0.87129   0.88214
 Alpha virt. eigenvalues --    1.16003   1.19867   1.20530   1.30728   2.54324

 Mulliken charges:
               1
     1  O   -0.763288
     2  H    0.394833
     3  H    0.366627
     4  O   -0.758717
     5  H    0.380091
     6  H    0.380455
 Sum of Mulliken charges =  -0.00000

 Dipole moment (field-independent basis, Debye):
    X=              1.0509    Y=             -4.1317    Z=              0.0000  Tot=              4.2632
 Quadrupole moment (field-independent basis, Debye-Ang):
   XX=             -9.5852   YY=             -7.4877   ZZ=            -14.9988
   XY=              6.7493   XZ=              0.0000   YZ=              0.0000

 0006\MP4DQ=-33.896755\MP4SDQ=-33.8988151\CCSD=-33.899844\CCSD(T)=-33.9
 Normal termination of Gaussian 16 at Sun Dec 10 07:05:32 2023.
