 Gaussian 16, Revision A.03,
 Gaussian 16:  ES64L-G16RevA.03 25-Dec-2016

 ------------------
 #p CCSD(T)/CEP-31G
 ------------------

 ------------
 H2O_H2O_2304
 ------------
 Symbolic Z-matrix:
 Charge =  0 Multiplicity = 1

                         Standard orientation:
 ---------------------------------------------------------------------
 Center     Atomic      Atomic             Coordinates (Angstroms)
 Number     Number       Type             X           Y           Z
 ---------------------------------------------------------------------
      1          8           0        0.082809   -2.016088    0.000000
      2          1           0        0.082364   -1.033486    0.000000
      3          1           0       -0.846540   -2.335174    0.000000
      4          8           0        0.082809    1.861581    0.000000
      5          1           0        0.336695    2.810816    0.000000
      6          1           0       -0.897460    1.793900    0.000000
 ---------------------------------------------------------------------

 SCF Done:  E(RHF) =  -33.6544216737     A.U. after   11 cycles
 E2 =    -0.2285802136D+00 EUMP2 =    -0.33883001887298D+02
 CCSD(T)
 CCSD(T)= -0.33899978051D+02

 The electronic state is 1-A'.
 Alpha  occ. eigenvalues --   -1.37196  -1.34137  -0.72895  -0.69711  -0.57111
 Alpha  occ. eigenvalues --   -0.53890  -0.51792  -0.48725
 Alpha virt. eigenvalues --    0.17448   0.23045   0.28970   0.33102   0.78674
 Alpha virt. eigenvalues --    0.81923   0.83003   0.84793   0.88018   0.88842
 Alpha virt. eigenvalues --    1.15582   1.19263   1.20449   1.32553   2.54621

 Mulliken charges:
               1
     1  O   -0.753033
     2  H    0.391113
     3  H    0.360253
     4  O   -0.751709
     5  H    0.384148
     6  H    0.369229
 Sum of Mulliken charges =   0.00000

 Dipole moment (field-independent basis, Debye):
    X=             -3.7635    Y=              3.7658    Z=              0.0000  Tot=              5.3241
 Quadrupole moment (field-independent basis, Debye-Ang):
   XX=            -10.6566   YY=             -8.3559   ZZ=            -14.9924
   XY=              3.2641   XZ=              0.0000   YZ=              0.0000

 531\MP4DQ=-33.8942721\MP4SDQ=-33.8963458\CCSD=-33.8973773\CCSD(T)=-33.
 Normal termination of Gaussian 16 at Sun Dec 10 07:03:50 2023.
