 Gaussian 16, Revision A.03,
 Gaussian 16:  ES64L-G16RevA.03 25-Dec-2016

 ------------------
 #p CCSD(T)/CEP-31G
 ------------------

 ------------
 H2O_H2O_2372
 ------------
 Symbolic Z-matrix:
 Charge =  0 Multiplicity = 1

                         Standard orientation:
 ---------------------------------------------------------------------
 Center     Atomic      Atomic             Coordinates (Angstroms)
 Number     Number       Type             X           Y           Z
 ---------------------------------------------------------------------
      1          8           0       -0.019897    2.042875    0.000000
      2          1           0       -0.016732    1.060278    0.000000
      3          1           0        0.908564    2.364534    0.000000
      4          8           0       -0.019897   -1.875788    0.000000
      5          1           0       -0.993674   -2.007181    0.000000
      6          1           0        0.420199   -2.754322    0.000000
 ---------------------------------------------------------------------

 SCF Done:  E(RHF) =  -33.6571085618     A.U. after   11 cycles
 E2 =    -0.2284230041D+00 EUMP2 =    -0.33885531565930D+02
 CCSD(T)
 CCSD(T)= -0.33902427668D+02

 The electronic state is 1-A'.
 Alpha  occ. eigenvalues --   -1.37057  -1.33724  -0.72720  -0.69376  -0.57125
 Alpha  occ. eigenvalues --   -0.53591  -0.51699  -0.48376
 Alpha virt. eigenvalues --    0.18102   0.23220   0.29247   0.33452   0.78781
 Alpha virt. eigenvalues --    0.82184   0.83055   0.85190   0.87482   0.88240
 Alpha virt. eigenvalues --    1.15971   1.19840   1.20532   1.31222   2.54407

 Mulliken charges:
               1
     1  O   -0.763365
     2  H    0.394286
     3  H    0.367246
     4  O   -0.759035
     5  H    0.379816
     6  H    0.381051
 Sum of Mulliken charges =  -0.00000

 Dipole moment (field-independent basis, Debye):
    X=              0.8990    Y=             -4.0538    Z=              0.0000  Tot=              4.1523
 Quadrupole moment (field-independent basis, Debye-Ang):
   XX=             -9.6669   YY=             -7.6602   ZZ=            -14.9987
   XY=              6.9214   XZ=              0.0000   YZ=              0.0000

 41\MP4DQ=-33.8967482\MP4SDQ=-33.8988101\CCSD=-33.8998387\CCSD(T)=-33.9
 Normal termination of Gaussian 16 at Sun Dec 10 07:05:05 2023.
