 Gaussian 16, Revision A.03,
 Gaussian 16:  ES64L-G16RevA.03 25-Dec-2016

 ------------------
 #p CCSD(T)/CEP-31G
 ------------------

 ----------
 H2O_H2O_70
 ----------
 Symbolic Z-matrix:
 Charge =  0 Multiplicity = 1

                         Standard orientation:
 ---------------------------------------------------------------------
 Center     Atomic      Atomic             Coordinates (Angstroms)
 Number     Number       Type             X           Y           Z
 ---------------------------------------------------------------------
      1          8           0        0.026913    1.128717   -0.000000
      2          1           0        0.021515    0.146131   -0.000000
      3          1           0       -0.900815    1.452486   -0.000000
      4          8           0        0.026913   -0.955651    0.000000
      5          1           0        0.974621   -1.215178    0.000000
      6          1           0       -0.525937   -1.767970    0.000000
 ---------------------------------------------------------------------

 SCF Done:  E(RHF) =  -33.5943034441     A.U. after   11 cycles
 E2 =    -0.2269294355D+00 EUMP2 =    -0.33821232879588D+02
 CCSD(T)
 CCSD(T)= -0.33835758338D+02

 The electronic state is 1-A'.
 Alpha  occ. eigenvalues --   -1.46245  -1.26562  -0.82436  -0.76351  -0.59132
 Alpha  occ. eigenvalues --   -0.54862  -0.43311  -0.40535
 Alpha virt. eigenvalues --    0.16508   0.24670   0.30461   0.62435   0.73282
 Alpha virt. eigenvalues --    0.73835   0.87713   0.92029   0.92211   1.03903
 Alpha virt. eigenvalues --    1.12610   1.19224   1.31064   1.39920   2.97409

 Mulliken charges:
               1
     1  O   -0.745193
     2  H    0.271453
     3  H    0.315757
     4  O   -0.768741
     5  H    0.445364
     6  H    0.481360
 Sum of Mulliken charges =  -0.00000

 Dipole moment (field-independent basis, Debye):
    X=             -1.1245    Y=             -5.6437    Z=              0.0000  Tot=              5.7547
 Quadrupole moment (field-independent basis, Debye-Ang):
   XX=             -9.3564   YY=            -10.6655   ZZ=            -14.9211
   XY=             -3.4350   XZ=              0.0000   YZ=             -0.0000

 2\MP4DQ=-33.8295881\MP4SDQ=-33.8319298\CCSD=-33.8325296\CCSD(T)=-33.83
 Normal termination of Gaussian 16 at Sun Dec 10 06:19:24 2023.
