 Gaussian 16, Revision A.03,
 Gaussian 16:  ES64L-G16RevA.03 25-Dec-2016

 ------------------
 #p CCSD(T)/CEP-31G
 ------------------

 ------------
 H2O_H2O_3943
 ------------
 Symbolic Z-matrix:
 Charge =  0 Multiplicity = 1

                         Standard orientation:
 ---------------------------------------------------------------------
 Center     Atomic      Atomic             Coordinates (Angstroms)
 Number     Number       Type             X           Y           Z
 ---------------------------------------------------------------------
      1          8           0        0.033765    2.676780   -0.000000
      2          1           0        0.031825    1.694180   -0.000000
      3          1           0       -0.895097    2.997281   -0.000000
      4          8           0        0.033765   -2.499238    0.000000
      5          1           0        0.940827   -2.877055    0.000000
      6          1           0       -0.617800   -3.234744    0.000000
 ---------------------------------------------------------------------

 SCF Done:  E(RHF) =  -33.6539438864     A.U. after   11 cycles
 E2 =    -0.2282810394D+00 EUMP2 =    -0.33882224925758D+02
 CCSD(T)
 CCSD(T)= -0.33899164547D+02

 The electronic state is 1-A'.
 Alpha  occ. eigenvalues --   -1.36374  -1.34491  -0.72015  -0.70123  -0.56233
 Alpha  occ. eigenvalues --   -0.54295  -0.50978  -0.49097
 Alpha virt. eigenvalues --    0.19442   0.21492   0.29758   0.31758   0.79578
 Alpha virt. eigenvalues --    0.81407   0.82342   0.84403   0.85595   0.87515
 Alpha virt. eigenvalues --    1.16619   1.18533   1.21045   1.23177   2.56571

 Mulliken charges:
               1
     1  O   -0.749520
     2  H    0.381162
     3  H    0.368280
     4  O   -0.748647
     5  H    0.375060
     6  H    0.373666
 Sum of Mulliken charges =   0.00000

 Dipole moment (field-independent basis, Debye):
    X=             -1.5470    Y=             -4.1809    Z=              0.0000  Tot=              4.4579
 Quadrupole moment (field-independent basis, Debye-Ang):
   XX=             -9.4356   YY=             -5.8243   ZZ=            -14.9930
   XY=             -7.8607   XZ=              0.0000   YZ=             -0.0000

 784\MP4DQ=-33.8935339\MP4SDQ=-33.8955578\CCSD=-33.8966075\CCSD(T)=-33.
 Normal termination of Gaussian 16 at Sun Dec 10 06:43:58 2023.
