 Gaussian 16, Revision A.03,
 Gaussian 16:  ES64L-G16RevA.03 25-Dec-2016

 ------------------
 #p CCSD(T)/CEP-31G
 ------------------

 ------------
 H2O_H2O_2837
 ------------
 Symbolic Z-matrix:
 Charge =  0 Multiplicity = 1

                         Standard orientation:
 ---------------------------------------------------------------------
 Center     Atomic      Atomic             Coordinates (Angstroms)
 Number     Number       Type             X           Y           Z
 ---------------------------------------------------------------------
      1          8           0        0.055996    2.238751   -0.000000
      2          1           0        0.054537    1.256151   -0.000000
      3          1           0       -0.873022    2.558798   -0.000000
      4          8           0        0.055996   -2.059851    0.000000
      5          1           0        0.749768   -2.755686    0.000000
      6          1           0       -0.827226   -2.490459    0.000000
 ---------------------------------------------------------------------

 SCF Done:  E(RHF) =  -33.6553828581     A.U. after   11 cycles
 E2 =    -0.2283648751D+00 EUMP2 =    -0.33883747733213D+02
 CCSD(T)
 CCSD(T)= -0.33900657136D+02

 The electronic state is 1-A'.
 Alpha  occ. eigenvalues --   -1.36812  -1.33927  -0.72461  -0.69539  -0.56763
 Alpha  occ. eigenvalues --   -0.53745  -0.51434  -0.48545
 Alpha virt. eigenvalues --    0.18664   0.22463   0.29388   0.32588   0.79133
 Alpha virt. eigenvalues --    0.81943   0.83027   0.84770   0.85248   0.88158
 Alpha virt. eigenvalues --    1.16230   1.19417   1.20653   1.26611   2.55561

 Mulliken charges:
               1
     1  O   -0.755457
     2  H    0.390330
     3  H    0.364036
     4  O   -0.752723
     5  H    0.379796
     6  H    0.374018
 Sum of Mulliken charges =  -0.00000

 Dipole moment (field-independent basis, Debye):
    X=             -2.5504    Y=             -4.2928    Z=              0.0000  Tot=              4.9932
 Quadrupole moment (field-independent basis, Debye-Ang):
   XX=             -9.5837   YY=             -6.7000   ZZ=            -14.9957
   XY=             -5.3238   XZ=              0.0000   YZ=             -0.0000

 2539\MP4DQ=-33.8950072\MP4SDQ=-33.8970499\CCSD=-33.8980867\CCSD(T)=-33
 Normal termination of Gaussian 16 at Sun Dec 10 06:24:03 2023.
