 Gaussian 16, Revision A.03,
 Gaussian 16:  ES64L-G16RevA.03 25-Dec-2016

 ------------------
 #p CCSD(T)/CEP-31G
 ------------------

 ------------
 H2O_H2O_1107
 ------------
 Symbolic Z-matrix:
 Charge =  0 Multiplicity = 1

                         Standard orientation:
 ---------------------------------------------------------------------
 Center     Atomic      Atomic             Coordinates (Angstroms)
 Number     Number       Type             X           Y           Z
 ---------------------------------------------------------------------
      1          8           0        0.073570    1.544160   -0.000000
      2          1           0        0.072442    0.561559   -0.000000
      3          1           0       -0.855557    1.863893   -0.000000
      4          8           0        0.073570   -1.377278    0.000000
      5          1           0        0.507152   -2.259045    0.000000
      6          1           0       -0.901153   -1.501460    0.000000
 ---------------------------------------------------------------------

 SCF Done:  E(RHF) =  -33.6587856636     A.U. after   11 cycles
 E2 =    -0.2290278889D+00 EUMP2 =    -0.33887813552440D+02
 CCSD(T)
 CCSD(T)= -0.33904547061D+02

 The electronic state is 1-A'.
 Alpha  occ. eigenvalues --   -1.38807  -1.32101  -0.74649  -0.68342  -0.58999
 Alpha  occ. eigenvalues --   -0.53439  -0.51658  -0.46680
 Alpha virt. eigenvalues --    0.17259   0.25787   0.27812   0.42924   0.75764
 Alpha virt. eigenvalues --    0.78769   0.85254   0.85589   0.92931   1.08853
 Alpha virt. eigenvalues --    1.16423   1.17391   1.21965   1.36781   2.51466

 Mulliken charges:
               1
     1  O   -0.769413
     2  H    0.420298
     3  H    0.345308
     4  O   -0.796349
     5  H    0.419806
     6  H    0.380350
 Sum of Mulliken charges =  -0.00000

 Dipole moment (field-independent basis, Debye):
    X=             -3.2358    Y=             -4.3808    Z=              0.0000  Tot=              5.4463
 Quadrupole moment (field-independent basis, Debye-Ang):
   XX=            -10.1850   YY=             -8.7524   ZZ=            -15.0059
   XY=             -3.5246   XZ=              0.0000   YZ=             -0.0000

 974\MP4DQ=-33.8986617\MP4SDQ=-33.9008183\CCSD=-33.9017905\CCSD(T)=-33.
 Normal termination of Gaussian 16 at Sun Dec 10 06:39:20 2023.
