 Gaussian 16, Revision A.03,
 Gaussian 16:  ES64L-G16RevA.03 25-Dec-2016

 ------------------
 #p CCSD(T)/CEP-31G
 ------------------

 ------------
 H2O_H2O_3974
 ------------
 Symbolic Z-matrix:
 Charge =  0 Multiplicity = 1

                         Standard orientation:
 ---------------------------------------------------------------------
 Center     Atomic      Atomic             Coordinates (Angstroms)
 Number     Number       Type             X           Y           Z
 ---------------------------------------------------------------------
      1          8           0       -0.013488    2.676832    0.000000
      2          1           0       -0.010893    1.694234    0.000000
      3          1           0        0.915160    2.997952    0.000000
      4          8           0       -0.013488   -2.517560    0.000000
      5          1           0       -0.996087   -2.520154    0.000000
      6          1           0        0.307632   -3.446208    0.000000
 ---------------------------------------------------------------------

 SCF Done:  E(RHF) =  -33.6538032504     A.U. after   11 cycles
 E2 =    -0.2282757425D+00 EUMP2 =    -0.33882078992938D+02
 CCSD(T)
 CCSD(T)= -0.33899024752D+02

 The electronic state is 1-A'.
 Alpha  occ. eigenvalues --   -1.36363  -1.34708  -0.72008  -0.70350  -0.56211
 Alpha  occ. eigenvalues --   -0.54514  -0.50964  -0.49315
 Alpha virt. eigenvalues --    0.19389   0.21296   0.29761   0.31516   0.79592
 Alpha virt. eigenvalues --    0.81196   0.82380   0.84169   0.85571   0.87303
 Alpha virt. eigenvalues --    1.16613   1.18328   1.21042   1.22978   2.56519

 Mulliken charges:
               1
     1  O   -0.748979
     2  H    0.378820
     3  H    0.370105
     4  O   -0.748543
     5  H    0.373799
     6  H    0.374798
 Sum of Mulliken charges =  -0.00000

 Dipole moment (field-independent basis, Debye):
    X=              0.6182    Y=             -3.7460    Z=              0.0000  Tot=              3.7966
 Quadrupole moment (field-independent basis, Debye-Ang):
   XX=             -9.8750   YY=             -7.2505   ZZ=            -14.9925
   XY=              9.6941   XZ=              0.0000   YZ=              0.0000

 434\MP4DQ=-33.8933926\MP4SDQ=-33.8954165\CCSD=-33.8964671\CCSD(T)=-33.
 Normal termination of Gaussian 16 at Sun Dec 10 06:44:31 2023.
