 Gaussian 16, Revision A.03,
 Gaussian 16:  ES64L-G16RevA.03 25-Dec-2016

 ------------------
 #p CCSD(T)/CEP-31G
 ------------------

 ------------
 H2O_H2O_2291
 ------------
 Symbolic Z-matrix:
 Charge =  0 Multiplicity = 1

                         Standard orientation:
 ---------------------------------------------------------------------
 Center     Atomic      Atomic             Coordinates (Angstroms)
 Number     Number       Type             X           Y           Z
 ---------------------------------------------------------------------
      1          8           0        0.041171    2.019913    0.000000
      2          1           0        0.038893    1.037315    0.000000
      3          1           0       -0.887580    2.340734   -0.000000
      4          8           0        0.041171   -1.840017    0.000000
      5          1           0        0.890988   -2.333289    0.000000
      6          1           0       -0.701044   -2.483929   -0.000000
 ---------------------------------------------------------------------

 SCF Done:  E(RHF) =  -33.6575111044     A.U. after   11 cycles
 E2 =    -0.2284701496D+00 EUMP2 =    -0.33885981254048D+02
 CCSD(T)
 CCSD(T)= -0.33902861203D+02

 The electronic state is 1-A'.
 Alpha  occ. eigenvalues --   -1.37136  -1.33399  -0.72784  -0.69034  -0.57250
 Alpha  occ. eigenvalues --   -0.53252  -0.51787  -0.48048
 Alpha virt. eigenvalues --    0.18324   0.23413   0.29194   0.33957   0.78685
 Alpha virt. eigenvalues --    0.82515   0.83649   0.85901   0.86374   0.88675
 Alpha virt. eigenvalues --    1.15963   1.20044   1.20445   1.30617   2.53309

 Mulliken charges:
               1
     1  O   -0.764881
     2  H    0.399664
     3  H    0.363126
     4  O   -0.759223
     5  H    0.382597
     6  H    0.378717
 Sum of Mulliken charges =  -0.00000

 Dipole moment (field-independent basis, Debye):
    X=             -1.8621    Y=             -4.3827    Z=             -0.0000  Tot=              4.7618
 Quadrupole moment (field-independent basis, Debye-Ang):
   XX=             -9.4026   YY=             -7.1651   ZZ=            -14.9999
   XY=             -5.6786   XZ=              0.0000   YZ=             -0.0000

 265\MP4DQ=-33.8971788\MP4SDQ=-33.8992413\CCSD=-33.9002687\CCSD(T)=-33.
 Normal termination of Gaussian 16 at Sun Dec 10 07:03:35 2023.
