 Gaussian 16, Revision A.03,
 Gaussian 16:  ES64L-G16RevA.03 25-Dec-2016

 ------------------
 #p CCSD(T)/CEP-31G
 ------------------

 ------------
 H2O_H2O_2988
 ------------
 Symbolic Z-matrix:
 Charge =  0 Multiplicity = 1

                         Standard orientation:
 ---------------------------------------------------------------------
 Center     Atomic      Atomic             Coordinates (Angstroms)
 Number     Number       Type             X           Y           Z
 ---------------------------------------------------------------------
      1          8           0        0.052302    2.299119   -0.000000
      2          1           0        0.050740    1.316519   -0.000000
      3          1           0       -0.876683    2.619262   -0.000000
      4          8           0        0.052302   -2.119232    0.000000
      5          1           0        0.790030   -2.768280    0.000000
      6          1           0       -0.800917   -2.606595    0.000000
 ---------------------------------------------------------------------

 SCF Done:  E(RHF) =  -33.6551796056     A.U. after   11 cycles
 E2 =    -0.2283377861D+00 EUMP2 =    -0.33883517391674D+02
 CCSD(T)
 CCSD(T)= -0.33900427894D+02

 The electronic state is 1-A'.
 Alpha  occ. eigenvalues --   -1.36731  -1.34004  -0.72378  -0.69621  -0.56667
 Alpha  occ. eigenvalues --   -0.53823  -0.51351  -0.48622
 Alpha virt. eigenvalues --    0.18818   0.22298   0.29467   0.32417   0.79219
 Alpha virt. eigenvalues --    0.81862   0.82653   0.84784   0.85258   0.88060
 Alpha virt. eigenvalues --    1.16308   1.19291   1.20731   1.25701   2.55906

 Mulliken charges:
               1
     1  O   -0.754505
     2  H    0.388792
     3  H    0.364860
     4  O   -0.752142
     5  H    0.378909
     6  H    0.374087
 Sum of Mulliken charges =  -0.00000

 Dipole moment (field-independent basis, Debye):
    X=             -2.3844    Y=             -4.3008    Z=              0.0000  Tot=              4.9176
 Quadrupole moment (field-independent basis, Debye-Ang):
   XX=             -9.5125   YY=             -6.5081   ZZ=            -14.9954
   XY=             -5.6620   XZ=              0.0000   YZ=             -0.0000

 0313\MP4DQ=-33.8947849\MP4SDQ=-33.8968225\CCSD=-33.8978616\CCSD(T)=-33
 Normal termination of Gaussian 16 at Sun Dec 10 06:26:49 2023.
