 Gaussian 16, Revision A.03,
 Gaussian 16:  ES64L-G16RevA.03 25-Dec-2016

 ------------------
 #p CCSD(T)/CEP-31G
 ------------------

 ------------
 H2O_H2O_2111
 ------------
 Symbolic Z-matrix:
 Charge =  0 Multiplicity = 1

                         Standard orientation:
 ---------------------------------------------------------------------
 Center     Atomic      Atomic             Coordinates (Angstroms)
 Number     Number       Type             X           Y           Z
 ---------------------------------------------------------------------
      1          8           0        0.059665    1.948758   -0.000000
      2          1           0        0.058145    0.966157   -0.000000
      3          1           0       -0.869334    2.268861   -0.000000
      4          8           0        0.059665   -1.771345    0.000000
      5          1           0        0.706396   -2.511106    0.000000
      6          1           0       -0.849853   -2.143210    0.000000
 ---------------------------------------------------------------------

 SCF Done:  E(RHF) =  -33.6573783975     A.U. after   11 cycles
 E2 =    -0.2285717713D+00 EUMP2 =    -0.33885950168840D+02
 CCSD(T)
 CCSD(T)= -0.33902846631D+02

 The electronic state is 1-A'.
 Alpha  occ. eigenvalues --   -1.37303  -1.33322  -0.72962  -0.68943  -0.57432
 Alpha  occ. eigenvalues --   -0.53140  -0.51948  -0.47956
 Alpha virt. eigenvalues --    0.18096   0.23660   0.29011   0.34567   0.78444
 Alpha virt. eigenvalues --    0.82706   0.83258   0.85544   0.88834   0.89044
 Alpha virt. eigenvalues --    1.15745   1.20124   1.20276   1.32268   2.52444

 Mulliken charges:
               1
     1  O   -0.764817
     2  H    0.402884
     3  H    0.359739
     4  O   -0.760155
     5  H    0.386084
     6  H    0.376265
 Sum of Mulliken charges =  -0.00000

 Dipole moment (field-independent basis, Debye):
    X=             -2.6957    Y=             -4.3538    Z=              0.0000  Tot=              5.1207
 Quadrupole moment (field-independent basis, Debye-Ang):
   XX=             -9.6711   YY=             -7.4491   ZZ=            -14.9995
   XY=             -4.6456   XZ=              0.0000   YZ=             -0.0000

 949\MP4DQ=-33.8971404\MP4SDQ=-33.8992135\CCSD=-33.9002393\CCSD(T)=-33.
 Normal termination of Gaussian 16 at Sun Dec 10 06:58:47 2023.
