 Gaussian 16, Revision A.03,
 Gaussian 16:  ES64L-G16RevA.03 25-Dec-2016

 ------------------
 #p CCSD(T)/CEP-31G
 ------------------

 ------------
 H2O_H2O_3270
 ------------
 Symbolic Z-matrix:
 Charge =  0 Multiplicity = 1

                         Standard orientation:
 ---------------------------------------------------------------------
 Center     Atomic      Atomic             Coordinates (Angstroms)
 Number     Number       Type             X           Y           Z
 ---------------------------------------------------------------------
      1          8           0        0.026652    2.405197    0.000000
      2          1           0        0.024225    1.422599    0.000000
      3          1           0       -0.902052    2.726158    0.000000
      4          8           0        0.026652   -2.231969   -0.000000
      5          1           0        0.975141   -2.488627   -0.000000
      6          1           0       -0.523740   -3.045957   -0.000000
 ---------------------------------------------------------------------

 SCF Done:  E(RHF) =  -33.6549365904     A.U. after   11 cycles
 E2 =    -0.2282874892D+00 EUMP2 =    -0.33883224079573D+02
 CCSD(T)
 CCSD(T)= -0.33900138970D+02

 The electronic state is 1-A'.
 Alpha  occ. eigenvalues --   -1.36588  -1.34240  -0.72233  -0.69876  -0.56503
 Alpha  occ. eigenvalues --   -0.54070  -0.51204  -0.48861
 Alpha virt. eigenvalues --    0.19012   0.21972   0.29570   0.32129   0.79360
 Alpha virt. eigenvalues --    0.81626   0.82272   0.84514   0.85487   0.87759
 Alpha virt. eigenvalues --    1.16435   1.18985   1.20825   1.24621   2.56357

 Mulliken charges:
               1
     1  O   -0.753443
     2  H    0.384964
     3  H    0.368030
     4  O   -0.751813
     5  H    0.376479
     6  H    0.375782
 Sum of Mulliken charges =   0.00000

 Dipole moment (field-independent basis, Debye):
    X=             -1.2161    Y=             -4.1141    Z=             -0.0000  Tot=              4.2901
 Quadrupole moment (field-independent basis, Debye-Ang):
   XX=             -9.5241   YY=             -6.6665   ZZ=            -14.9948
   XY=             -7.6256   XZ=             -0.0000   YZ=              0.0000

 512\MP4DQ=-33.8945048\MP4SDQ=-33.8965347\CCSD=-33.8975779\CCSD(T)=-33.
 Normal termination of Gaussian 16 at Sun Dec 10 06:31:56 2023.
