 Gaussian 16, Revision A.03,
 Gaussian 16:  ES64L-G16RevA.03 25-Dec-2016

 ------------------
 #p CCSD(T)/CEP-31G
 ------------------

 -----------
 H2O_H2O_328
 -----------
 Symbolic Z-matrix:
 Charge =  0 Multiplicity = 1

                         Standard orientation:
 ---------------------------------------------------------------------
 Center     Atomic      Atomic             Coordinates (Angstroms)
 Number     Number       Type             X           Y           Z
 ---------------------------------------------------------------------
      1          8           0        0.085621   -1.225614    0.000000
      2          1           0        0.085079   -0.243013    0.000000
      3          1           0       -0.843696   -1.544793    0.000000
      4          8           0        0.085621    1.076064    0.000000
      5          1           0        0.276785    2.039891    0.000000
      6          1           0       -0.888109    0.944318    0.000000
 ---------------------------------------------------------------------

 SCF Done:  E(RHF) =  -33.6232563463     A.U. after   11 cycles
 E2 =    -0.2285398518D+00 EUMP2 =    -0.33851796198097D+02
 CCSD(T)
 CCSD(T)= -0.33867672555D+02

 The electronic state is 1-A'.
 Alpha  occ. eigenvalues --   -1.43296  -1.30243  -0.80858  -0.70376  -0.57965
 Alpha  occ. eigenvalues --   -0.56803  -0.48773  -0.44464
 Alpha virt. eigenvalues --    0.16256   0.24301   0.28885   0.56399   0.73291
 Alpha virt. eigenvalues --    0.76141   0.87052   0.89258   0.96355   1.09600
 Alpha virt. eigenvalues --    1.13443   1.23815   1.26550   1.43110   2.82612

 Mulliken charges:
               1
     1  O   -0.700776
     2  H    0.312922
     3  H    0.317990
     4  O   -0.795816
     5  H    0.480522
     6  H    0.385158
 Sum of Mulliken charges =  -0.00000

 Dipole moment (field-independent basis, Debye):
    X=             -3.6002    Y=              4.6064    Z=              0.0000  Tot=              5.8464
 Quadrupole moment (field-independent basis, Debye-Ang):
   XX=            -10.8575   YY=             -9.9801   ZZ=            -14.9535
   XY=              2.6537   XZ=              0.0000   YZ=              0.0000

 073\MP4DQ=-33.8614152\MP4SDQ=-33.8638335\CCSD=-33.8646\CCSD(T)=-33.867
 Normal termination of Gaussian 16 at Sun Dec 10 06:24:31 2023.
