 Gaussian 16, Revision A.03,
 Gaussian 16:  ES64L-G16RevA.03 25-Dec-2016

 ------------------
 #p CCSD(T)/CEP-31G
 ------------------

 -----------
 H2O_H2O_854
 -----------
 Symbolic Z-matrix:
 Charge =  0 Multiplicity = 1

                         Standard orientation:
 ---------------------------------------------------------------------
 Center     Atomic      Atomic             Coordinates (Angstroms)
 Number     Number       Type             X           Y           Z
 ---------------------------------------------------------------------
      1          8           0        0.082824   -1.437700    0.000000
      2          1           0        0.082191   -0.455099    0.000000
      3          1           0       -0.846464   -1.756965    0.000000
      4          8           0        0.082824    1.283225    0.000000
      5          1           0        0.336528    2.232509    0.000000
      6          1           0       -0.897431    1.215355    0.000000
 ---------------------------------------------------------------------

 SCF Done:  E(RHF) =  -33.6533214826     A.U. after   11 cycles
 E2 =    -0.2290183930D+00 EUMP2 =    -0.33882339875565D+02
 CCSD(T)
 CCSD(T)= -0.33899029338D+02

 The electronic state is 1-A'.
 Alpha  occ. eigenvalues --   -1.39693  -1.32048  -0.76017  -0.68549  -0.59220
 Alpha  occ. eigenvalues --   -0.54167  -0.51413  -0.46536
 Alpha virt. eigenvalues --    0.16807   0.25770   0.27533   0.46118   0.74754
 Alpha virt. eigenvalues --    0.78099   0.85112   0.86504   0.93493   1.10877
 Alpha virt. eigenvalues --    1.15526   1.22802   1.26880   1.36633   2.55172

 Mulliken charges:
               1
     1  O   -0.749205
     2  H    0.395550
     3  H    0.339351
     4  O   -0.799250
     5  H    0.436576
     6  H    0.376978
 Sum of Mulliken charges =   0.00000

 Dipole moment (field-independent basis, Debye):
    X=             -3.6172    Y=              4.2196    Z=              0.0000  Tot=              5.5578
 Quadrupole moment (field-independent basis, Debye-Ang):
   XX=            -10.6932   YY=             -9.2109   ZZ=            -14.9978
   XY=              2.9701   XZ=              0.0000   YZ=              0.0000

 98\MP4DQ=-33.8930338\MP4SDQ=-33.8952688\CCSD=-33.8962056\CCSD(T)=-33.8
 Normal termination of Gaussian 16 at Sun Dec 10 06:34:35 2023.
