 Gaussian 16, Revision A.03,
 Gaussian 16:  ES64L-G16RevA.03 25-Dec-2016

 ------------------
 #p CCSD(T)/CEP-31G
 ------------------

 ------------
 H2O_H2O_2581
 ------------
 Symbolic Z-matrix:
 Charge =  0 Multiplicity = 1

                         Standard orientation:
 ---------------------------------------------------------------------
 Center     Atomic      Atomic             Coordinates (Angstroms)
 Number     Number       Type             X           Y           Z
 ---------------------------------------------------------------------
      1          8           0        0.076763    2.130501    0.000000
      2          1           0        0.076093    1.147899    0.000000
      3          1           0       -0.852512    2.449801    0.000000
      4          8           0        0.076763   -1.967302   -0.000000
      5          1           0        0.452169   -2.875364   -0.000000
      6          1           0       -0.903966   -2.027924   -0.000000
 ---------------------------------------------------------------------

 SCF Done:  E(RHF) =  -33.6545963922     A.U. after   11 cycles
 E2 =    -0.2284655324D+00 EUMP2 =    -0.33883061924587D+02
 CCSD(T)
 CCSD(T)= -0.33900009483D+02

 The electronic state is 1-A'.
 Alpha  occ. eigenvalues --   -1.36989  -1.34112  -0.72662  -0.69702  -0.56901
 Alpha  occ. eigenvalues --   -0.53888  -0.51594  -0.48710
 Alpha virt. eigenvalues --    0.17988   0.22633   0.29144   0.32642   0.78952
 Alpha virt. eigenvalues --    0.81833   0.83170   0.84836   0.86083   0.88208
 Alpha virt. eigenvalues --    1.15898   1.19357   1.20468   1.29236   2.55230

 Mulliken charges:
               1
     1  O   -0.752934
     2  H    0.389771
     3  H    0.361860
     4  O   -0.751252
     5  H    0.381790
     6  H    0.370765
 Sum of Mulliken charges =  -0.00000

 Dipole moment (field-independent basis, Debye):
    X=             -3.4956    Y=             -3.9433    Z=             -0.0000  Tot=              5.2696
 Quadrupole moment (field-independent basis, Debye-Ang):
   XX=            -10.3282   YY=             -7.7501   ZZ=            -14.9934
   XY=             -3.8102   XZ=              0.0000   YZ=              0.0000

 75\MP4DQ=-33.8943343\MP4SDQ=-33.8963905\CCSD=-33.8974256\CCSD(T)=-33.9
 Normal termination of Gaussian 16 at Sun Dec 10 06:19:28 2023.
