 Gaussian 16, Revision A.03,
 Gaussian 16:  ES64L-G16RevA.03 25-Dec-2016

 ------------------
 #p CCSD(T)/CEP-31G
 ------------------

 ------------
 H2O_H2O_2545
 ------------
 Symbolic Z-matrix:
 Charge =  0 Multiplicity = 1

                         Standard orientation:
 ---------------------------------------------------------------------
 Center     Atomic      Atomic             Coordinates (Angstroms)
 Number     Number       Type             X           Y           Z
 ---------------------------------------------------------------------
      1          8           0        0.026682    2.116003   -0.000000
      2          1           0        0.023910    1.133405   -0.000000
      3          1           0       -0.901908    2.437290   -0.000000
      4          8           0        0.026682   -1.942793    0.000000
      5          1           0        0.975081   -2.199785    0.000000
      6          1           0       -0.523995   -2.756587    0.000000
 ---------------------------------------------------------------------

 SCF Done:  E(RHF) =  -33.6566930772     A.U. after   11 cycles
 E2 =    -0.2283852961D+00 EUMP2 =    -0.33885078373242D+02
 CCSD(T)
 CCSD(T)= -0.33901969796D+02

 The electronic state is 1-A'.
 Alpha  occ. eigenvalues --   -1.36950  -1.33753  -0.72602  -0.69394  -0.56985
 Alpha  occ. eigenvalues --   -0.53612  -0.51589  -0.48398
 Alpha virt. eigenvalues --    0.18371   0.22934   0.29320   0.33112   0.78940
 Alpha virt. eigenvalues --    0.82112   0.83368   0.84833   0.86281   0.88087
 Alpha virt. eigenvalues --    1.16105   1.19759   1.20571   1.29192   2.54789

 Mulliken charges:
               1
     1  O   -0.761186
     2  H    0.393149
     3  H    0.366451
     4  O   -0.756965
     5  H    0.379593
     6  H    0.378957
 Sum of Mulliken charges =  -0.00000

 Dipole moment (field-independent basis, Debye):
    X=             -1.2090    Y=             -4.1828    Z=              0.0000  Tot=              4.3540
 Quadrupole moment (field-independent basis, Debye-Ang):
   XX=             -9.5182   YY=             -7.2333   ZZ=            -14.9981
   XY=             -6.7334   XZ=              0.0000   YZ=             -0.0000

 5504\MP4DQ=-33.8963059\MP4SDQ=-33.8983589\CCSD=-33.89939\CCSD(T)=-33.9
 Normal termination of Gaussian 16 at Sun Dec 10 06:18:49 2023.
