 Gaussian 16, Revision A.03,
 Gaussian 16:  ES64L-G16RevA.03 25-Dec-2016

 ------------------
 #p CCSD(T)/CEP-31G
 ------------------

 ------------
 H2O_H2O_3575
 ------------
 Symbolic Z-matrix:
 Charge =  0 Multiplicity = 1

                         Standard orientation:
 ---------------------------------------------------------------------
 Center     Atomic      Atomic             Coordinates (Angstroms)
 Number     Number       Type             X           Y           Z
 ---------------------------------------------------------------------
      1          8           0        0.092949   -2.512858    0.000000
      2          1           0        0.092949   -1.530256    0.000000
      3          1           0       -0.836544   -2.831524    0.000000
      4          8           0        0.092949    2.380071    0.000000
      5          1           0        0.092950    3.362673    0.000000
      6          1           0       -0.836544    2.061404    0.000000
 ---------------------------------------------------------------------

 SCF Done:  E(RHF) =  -33.6521087097     A.U. after   11 cycles
 E2 =    -0.2283793223D+00 EUMP2 =    -0.33880488031947D+02
 CCSD(T)
 CCSD(T)= -0.33897483506D+02

 The electronic state is 1-A'.
 Alpha  occ. eigenvalues --   -1.36557  -1.35052  -0.72217  -0.70658  -0.56321
 Alpha  occ. eigenvalues --   -0.54781  -0.51128  -0.49621
 Alpha virt. eigenvalues --    0.18512   0.21311   0.29463   0.31155   0.79449
 Alpha virt. eigenvalues --    0.80920   0.82364   0.83918   0.85412   0.87313
 Alpha virt. eigenvalues --    1.16112   1.18106   1.20792   1.23217   2.55553

 Mulliken charges:
               1
     1  O   -0.742480
     2  H    0.376591
     3  H    0.365793
     4  O   -0.743143
     5  H    0.376625
     6  H    0.366614
 Sum of Mulliken charges =  -0.00000

 Dipole moment (field-independent basis, Debye):
    X=             -4.2641    Y=              3.1433    Z=              0.0000  Tot=              5.2975
 Quadrupole moment (field-independent basis, Debye-Ang):
   XX=            -11.2883   YY=             -9.6140   ZZ=            -14.9882
   XY=              2.3017   XZ=              0.0000   YZ=              0.0000

 947\MP4DQ=-33.8918352\MP4SDQ=-33.8938657\CCSD=-33.8949176\CCSD(T)=-33.
 Normal termination of Gaussian 16 at Sun Dec 10 06:37:20 2023.
