 Gaussian 16, Revision A.03,
 Gaussian 16:  ES64L-G16RevA.03 25-Dec-2016

 ------------------
 #p CCSD(T)/CEP-31G
 ------------------

 ------------
 H2O_H2O_3220
 ------------
 Symbolic Z-matrix:
 Charge =  0 Multiplicity = 1

                         Standard orientation:
 ---------------------------------------------------------------------
 Center     Atomic      Atomic             Coordinates (Angstroms)
 Number     Number       Type             X           Y           Z
 ---------------------------------------------------------------------
      1          8           0        0.026653    2.385253   -0.000000
      2          1           0        0.024206    1.402654   -0.000000
      3          1           0       -0.902043    2.706233   -0.000000
      4          8           0        0.026653   -2.212025    0.000000
      5          1           0        0.975137   -2.468704    0.000000
      6          1           0       -0.523754   -3.026001    0.000000
 ---------------------------------------------------------------------

 SCF Done:  E(RHF) =  -33.6550308889     A.U. after   11 cycles
 E2 =    -0.2282905872D+00 EUMP2 =    -0.33883321476141D+02
 CCSD(T)
 CCSD(T)= -0.33900234357D+02

 The electronic state is 1-A'.
 Alpha  occ. eigenvalues --   -1.36608  -1.34213  -0.72253  -0.69849  -0.56529
 Alpha  occ. eigenvalues --   -0.54045  -0.51226  -0.48836
 Alpha virt. eigenvalues --    0.18970   0.22023   0.29554   0.32169   0.79339
 Alpha virt. eigenvalues --    0.81650   0.82303   0.84517   0.85496   0.87782
 Alpha virt. eigenvalues --    1.16418   1.19034   1.20808   1.24818   2.56317

 Mulliken charges:
               1
     1  O   -0.753829
     2  H    0.385377
     3  H    0.367951
     4  O   -0.752086
     5  H    0.376646
     6  H    0.375941
 Sum of Mulliken charges =   0.00000

 Dipole moment (field-independent basis, Debye):
    X=             -1.2157    Y=             -4.1177    Z=              0.0000  Tot=              4.2934
 Quadrupole moment (field-independent basis, Debye-Ang):
   XX=             -9.5238   YY=             -6.7047   ZZ=            -14.9950
   XY=             -7.5642   XZ=              0.0000   YZ=             -0.0000

 454\MP4DQ=-33.8945993\MP4SDQ=-33.8966302\CCSD=-33.8976726\CCSD(T)=-33.
 Normal termination of Gaussian 16 at Sun Dec 10 06:31:02 2023.
