 Gaussian 16, Revision A.03,
 Gaussian 16:  ES64L-G16RevA.03 25-Dec-2016

 ------------------
 #p CCSD(T)/CEP-31G
 ------------------

 ------------
 H2O_H2O_2728
 ------------
 Symbolic Z-matrix:
 Charge =  0 Multiplicity = 1

                         Standard orientation:
 ---------------------------------------------------------------------
 Center     Atomic      Atomic             Coordinates (Angstroms)
 Number     Number       Type             X           Y           Z
 ---------------------------------------------------------------------
      1          8           0        0.085602   -2.182941    0.000000
      2          1           0        0.085307   -1.200340    0.000000
      3          1           0       -0.843795   -2.501887    0.000000
      4          8           0        0.085602    2.033348    0.000000
      5          1           0        0.277009    2.997126    0.000000
      6          1           0       -0.888159    1.901846    0.000000
 ---------------------------------------------------------------------

 SCF Done:  E(RHF) =  -33.6534356660     A.U. after   11 cycles
 E2 =    -0.2284602995D+00 EUMP2 =    -0.33881895965490D+02
 CCSD(T)
 CCSD(T)= -0.33898869495D+02

 The electronic state is 1-A'.
 Alpha  occ. eigenvalues --   -1.36919  -1.34495  -0.72599  -0.70081  -0.56761
 Alpha  occ. eigenvalues --   -0.54244  -0.51506  -0.49076
 Alpha virt. eigenvalues --    0.17715   0.22362   0.29186   0.32058   0.79057
 Alpha virt. eigenvalues --    0.81473   0.82792   0.84478   0.85891   0.87930
 Alpha virt. eigenvalues --    1.15799   1.18979   1.20521   1.28103   2.55999

 Mulliken charges:
               1
     1  O   -0.748200
     2  H    0.384658
     3  H    0.362673
     4  O   -0.747850
     5  H    0.380593
     6  H    0.368127
 Sum of Mulliken charges =  -0.00000

 Dipole moment (field-independent basis, Debye):
    X=             -3.9064    Y=              3.5983    Z=              0.0000  Tot=              5.3111
 Quadrupole moment (field-independent basis, Debye-Ang):
   XX=            -10.8164   YY=             -8.4824   ZZ=            -14.9906
   XY=              3.0880   XZ=              0.0000   YZ=              0.0000

 557\MP4DQ=-33.893199\MP4SDQ=-33.8952493\CCSD=-33.8962887\CCSD(T)=-33.8
 Normal termination of Gaussian 16 at Sun Dec 10 06:22:06 2023.
