 Gaussian 16, Revision A.03,
 Gaussian 16:  ES64L-G16RevA.03 25-Dec-2016

 ------------------
 #p CCSD(T)/CEP-31G
 ------------------

 ------------
 H2O_H2O_2786
 ------------
 Symbolic Z-matrix:
 Charge =  0 Multiplicity = 1

                         Standard orientation:
 ---------------------------------------------------------------------
 Center     Atomic      Atomic             Coordinates (Angstroms)
 Number     Number       Type             X           Y           Z
 ---------------------------------------------------------------------
      1          8           0        0.059648    2.218011    0.000000
      2          1           0        0.058320    1.235410    0.000000
      3          1           0       -0.869414    2.537933    0.000000
      4          8           0        0.059648   -2.040575   -0.000000
      5          1           0        0.706523   -2.780209   -0.000000
      6          1           0       -0.849797   -2.412618   -0.000000
 ---------------------------------------------------------------------

 SCF Done:  E(RHF) =  -33.6553393915     A.U. after   11 cycles
 E2 =    -0.2283798111D+00 EUMP2 =    -0.33883719202568D+02
 CCSD(T)
 CCSD(T)= -0.33900632018D+02

 The electronic state is 1-A'.
 Alpha  occ. eigenvalues --   -1.36843  -1.33926  -0.72495  -0.69535  -0.56793
 Alpha  occ. eigenvalues --   -0.53739  -0.51464  -0.48543
 Alpha virt. eigenvalues --    0.18583   0.22502   0.29343   0.32634   0.79101
 Alpha virt. eigenvalues --    0.81951   0.83149   0.84812   0.85232   0.88191
 Alpha virt. eigenvalues --    1.16189   1.19432   1.20615   1.27008   2.55443

 Mulliken charges:
               1
     1  O   -0.755365
     2  H    0.390634
     3  H    0.363572
     4  O   -0.752668
     5  H    0.380197
     6  H    0.373631
 Sum of Mulliken charges =   0.00000

 Dipole moment (field-independent basis, Debye):
    X=             -2.7163    Y=             -4.2634    Z=             -0.0000  Tot=              5.0552
 Quadrupole moment (field-independent basis, Debye-Ang):
   XX=             -9.6725   YY=             -6.8250   ZZ=            -14.9955
   XY=             -5.0649   XZ=             -0.0000   YZ=              0.0000

 58\MP4DQ=-33.8949784\MP4SDQ=-33.8970233\CCSD=-33.8980596\CCSD(T)=-33.9
 Normal termination of Gaussian 16 at Sun Dec 10 06:23:09 2023.
