 Gaussian 16, Revision A.03,
 Gaussian 16:  ES64L-G16RevA.03 25-Dec-2016

 ------------------
 #p CCSD(T)/CEP-31G
 ------------------

 ------------
 H2O_H2O_1635
 ------------
 Symbolic Z-matrix:
 Charge =  0 Multiplicity = 1

                         Standard orientation:
 ---------------------------------------------------------------------
 Center     Atomic      Atomic             Coordinates (Angstroms)
 Number     Number       Type             X           Y           Z
 ---------------------------------------------------------------------
      1          8           0        0.063271    1.758229    0.000000
      2          1           0        0.061762    0.775629    0.000000
      3          1           0       -0.865731    2.078323    0.000000
      4          8           0        0.063271   -1.582772   -0.000000
      5          1           0        0.660243   -2.363240   -0.000000
      6          1           0       -0.868617   -1.894366   -0.000000
 ---------------------------------------------------------------------

 SCF Done:  E(RHF) =  -33.6591524120     A.U. after   11 cycles
 E2 =    -0.2288108018D+00 EUMP2 =    -0.33887963213850D+02
 CCSD(T)
 CCSD(T)= -0.33904818848D+02

 The electronic state is 1-A'.
 Alpha  occ. eigenvalues --   -1.37807  -1.32759  -0.73484  -0.68480  -0.58130
 Alpha  occ. eigenvalues --   -0.52528  -0.52471  -0.47396
 Alpha virt. eigenvalues --    0.17801   0.24682   0.28619   0.37564   0.77484
 Alpha virt. eigenvalues --    0.81390   0.83758   0.85629   0.90529   0.96674
 Alpha virt. eigenvalues --    1.15211   1.19594   1.20804   1.34896   2.50186

 Mulliken charges:
               1
     1  O   -0.772439
     2  H    0.415726
     3  H    0.354779
     4  O   -0.772787
     5  H    0.395833
     6  H    0.378887
 Sum of Mulliken charges =   0.00000

 Dipole moment (field-independent basis, Debye):
    X=             -2.8308    Y=             -4.4034    Z=             -0.0000  Tot=              5.2348
 Quadrupole moment (field-independent basis, Debye-Ang):
   XX=             -9.7742   YY=             -8.0048   ZZ=            -15.0035
   XY=             -4.2038   XZ=             -0.0000   YZ=              0.0000

 248\MP4DQ=-33.8990505\MP4SDQ=-33.9011468\CCSD=-33.9021597\CCSD(T)=-33.
 Normal termination of Gaussian 16 at Sun Dec 10 06:49:46 2023.
