 Gaussian 16, Revision A.03,
 Gaussian 16:  ES64L-G16RevA.03 25-Dec-2016

 ------------------
 #p CCSD(T)/CEP-31G
 ------------------

 ------------
 H2O_H2O_4328
 ------------
 Symbolic Z-matrix:
 Charge =  0 Multiplicity = 1

                         Standard orientation:
 ---------------------------------------------------------------------
 Center     Atomic      Atomic             Coordinates (Angstroms)
 Number     Number       Type             X           Y           Z
 ---------------------------------------------------------------------
      1          8           0        0.085597   -2.821151    0.000000
      2          1           0        0.085370   -1.838549    0.000000
      3          1           0       -0.843822   -3.140032    0.000000
      4          8           0        0.085597    2.671546    0.000000
      5          1           0        0.277071    3.635311    0.000000
      6          1           0       -0.888174    2.540111    0.000000
 ---------------------------------------------------------------------

 SCF Done:  E(RHF) =  -33.6523804131     A.U. after   11 cycles
 E2 =    -0.2283442668D+00 EUMP2 =    -0.33880724679887D+02
 CCSD(T)
 CCSD(T)= -0.33897709407D+02

 The electronic state is 1-A'.
 Alpha  occ. eigenvalues --   -1.36330  -1.34981  -0.71977  -0.70598  -0.56103
 Alpha  occ. eigenvalues --   -0.54726  -0.50908  -0.49558
 Alpha virt. eigenvalues --    0.19392   0.20918   0.29719   0.31132   0.79654
 Alpha virt. eigenvalues --    0.80977   0.82580   0.83990   0.85665   0.87178
 Alpha virt. eigenvalues --    1.16589   1.17959   1.21047   1.22495   2.56507

 Mulliken charges:
               1
     1  O   -0.743500
     2  H    0.376486
     3  H    0.367002
     4  O   -0.743731
     5  H    0.374941
     6  H    0.368803
 Sum of Mulliken charges =   0.00000

 Dipole moment (field-independent basis, Debye):
    X=             -3.9348    Y=              3.5157    Z=              0.0000  Tot=              5.2767
 Quadrupole moment (field-independent basis, Debye-Ang):
   XX=            -10.8023   YY=             -8.0068   ZZ=            -14.9893
   XY=              3.3175   XZ=              0.0000   YZ=              0.0000

 254\MP4DQ=-33.8920682\MP4SDQ=-33.8940947\CCSD=-33.8951485\CCSD(T)=-33.
 Normal termination of Gaussian 16 at Sun Dec 10 06:50:54 2023.
