 Gaussian 16, Revision A.03,
 Gaussian 16:  ES64L-G16RevA.03 25-Dec-2016

 ------------------
 #p CCSD(T)/CEP-31G
 ------------------

 ------------
 H2O_H2O_1055
 ------------
 Symbolic Z-matrix:
 Charge =  0 Multiplicity = 1

                         Standard orientation:
 ---------------------------------------------------------------------
 Center     Atomic      Atomic             Coordinates (Angstroms)
 Number     Number       Type             X           Y           Z
 ---------------------------------------------------------------------
      1          8           0        0.079875   -1.519942    0.000000
      2          1           0        0.079103   -0.537341    0.000000
      3          1           0       -0.849368   -1.839338    0.000000
      4          8           0        0.079875    1.360926    0.000000
      5          1           0        0.394991    2.291630    0.000000
      6          1           0       -0.902720    1.357175    0.000000
 ---------------------------------------------------------------------

 SCF Done:  E(RHF) =  -33.6566263483     A.U. after   11 cycles
 E2 =    -0.2290314940D+00 EUMP2 =    -0.33885657842330D+02
 CCSD(T)
 CCSD(T)= -0.33902452909D+02

 The electronic state is 1-A'.
 Alpha  occ. eigenvalues --   -1.38995  -1.32345  -0.75012  -0.68463  -0.59016
 Alpha  occ. eigenvalues --   -0.53569  -0.51860  -0.46891
 Alpha virt. eigenvalues --    0.17036   0.25675   0.27671   0.43203   0.75516
 Alpha virt. eigenvalues --    0.78869   0.85122   0.85615   0.92575   1.10906
 Alpha virt. eigenvalues --    1.16457   1.19796   1.22258   1.37425   2.51796

 Mulliken charges:
               1
     1  O   -0.761156
     2  H    0.409833
     3  H    0.344246
     4  O   -0.793127
     5  H    0.423517
     6  H    0.376687
 Sum of Mulliken charges =  -0.00000

 Dipole moment (field-independent basis, Debye):
    X=             -3.5178    Y=              4.2157    Z=              0.0000  Tot=              5.4906
 Quadrupole moment (field-independent basis, Debye-Ang):
   XX=            -10.5158   YY=             -8.9384   ZZ=            -15.0014
   XY=              3.1902   XZ=              0.0000   YZ=              0.0000

 475\MP4DQ=-33.8965307\MP4SDQ=-33.8987167\CCSD=-33.8996866\CCSD(T)=-33.
 Normal termination of Gaussian 16 at Sun Dec 10 06:38:21 2023.
