 Gaussian 16, Revision A.03,
 Gaussian 16:  ES64L-G16RevA.03 25-Dec-2016

 ------------------
 #p CCSD(T)/CEP-31G
 ------------------

 ------------
 H2O_H2O_4127
 ------------
 Symbolic Z-matrix:
 Charge =  0 Multiplicity = 1

                         Standard orientation:
 ---------------------------------------------------------------------
 Center     Atomic      Atomic             Coordinates (Angstroms)
 Number     Number       Type             X           Y           Z
 ---------------------------------------------------------------------
      1          8           0        0.088230   -2.738507    0.000000
      2          1           0        0.088079   -1.755905    0.000000
      3          1           0       -0.841214   -3.057315    0.000000
      4          8           0        0.088230    2.594183    0.000000
      5          1           0        0.216336    3.568397    0.000000
      6          1           0       -0.874877    2.399417    0.000000
 ---------------------------------------------------------------------

 SCF Done:  E(RHF) =  -33.6523042065     A.U. after   11 cycles
 E2 =    -0.2283505369D+00 EUMP2 =    -0.33880654743307D+02
 CCSD(T)
 CCSD(T)= -0.33897642173D+02

 The electronic state is 1-A'.
 Alpha  occ. eigenvalues --   -1.36382  -1.35004  -0.72033  -0.70619  -0.56153
 Alpha  occ. eigenvalues --   -0.54746  -0.50959  -0.49579
 Alpha virt. eigenvalues --    0.19253   0.20955   0.29664   0.31109   0.79607
 Alpha virt. eigenvalues --    0.80957   0.82524   0.83972   0.85597   0.87195
 Alpha virt. eigenvalues --    1.16511   1.17957   1.20994   1.22535   2.56336

 Mulliken charges:
               1
     1  O   -0.743214
     2  H    0.376480
     3  H    0.366711
     4  O   -0.743557
     5  H    0.375314
     6  H    0.368266
 Sum of Mulliken charges =  -0.00000

 Dipole moment (field-independent basis, Debye):
    X=             -4.0540    Y=              3.3971    Z=              0.0000  Tot=              5.2892
 Quadrupole moment (field-independent basis, Debye-Ang):
   XX=            -10.9674   YY=             -8.5486   ZZ=            -14.9891
   XY=              2.9585   XZ=              0.0000   YZ=              0.0000

 2574\MP4DQ=-33.8919997\MP4SDQ=-33.8940268\CCSD=-33.8950804\CCSD(T)=-33
 Normal termination of Gaussian 16 at Sun Dec 10 06:47:16 2023.
