 Gaussian 16, Revision A.03,
 Gaussian 16:  ES64L-G16RevA.03 25-Dec-2016

 ------------------
 #p CCSD(T)/CEP-31G
 ------------------

 ------------
 H2O_H2O_3250
 ------------
 Symbolic Z-matrix:
 Charge =  0 Multiplicity = 1

                         Standard orientation:
 ---------------------------------------------------------------------
 Center     Atomic      Atomic             Coordinates (Angstroms)
 Number     Number       Type             X           Y           Z
 ---------------------------------------------------------------------
      1          8           0        0.092949   -2.383223    0.000000
      2          1           0        0.092949   -1.400621    0.000000
      3          1           0       -0.836544   -2.701889    0.000000
      4          8           0        0.092949    2.250436    0.000000
      5          1           0        0.092949    3.233037    0.000000
      6          1           0       -0.836544    1.931768    0.000000
 ---------------------------------------------------------------------

 SCF Done:  E(RHF) =  -33.6522046577     A.U. after   11 cycles
 E2 =    -0.2284041222D+00 EUMP2 =    -0.33880608779859D+02
 CCSD(T)
 CCSD(T)= -0.33897604277D+02

 The electronic state is 1-A'.
 Alpha  occ. eigenvalues --   -1.36681  -1.34985  -0.72349  -0.70583  -0.56453
 Alpha  occ. eigenvalues --   -0.54712  -0.51252  -0.49552
 Alpha virt. eigenvalues --    0.17988   0.21679   0.29348   0.31335   0.79330
 Alpha virt. eigenvalues --    0.80991   0.82342   0.83961   0.85393   0.87466
 Alpha virt. eigenvalues --    1.15862   1.18336   1.20684   1.24393   2.55502

 Mulliken charges:
               1
     1  O   -0.742932
     2  H    0.377747
     3  H    0.364966
     4  O   -0.743643
     5  H    0.377750
     6  H    0.366113
 Sum of Mulliken charges =   0.00000

 Dipole moment (field-independent basis, Debye):
    X=             -4.2580    Y=              3.1580    Z=              0.0000  Tot=              5.3013
 Quadrupole moment (field-independent basis, Debye-Ang):
   XX=            -11.2918   YY=             -9.6010   ZZ=            -14.9881
   XY=              2.2985   XZ=              0.0000   YZ=              0.0000

 103\MP4DQ=-33.8919505\MP4SDQ=-33.8939852\CCSD=-33.8950343\CCSD(T)=-33.
 Normal termination of Gaussian 16 at Sun Dec 10 06:31:34 2023.
