 Gaussian 16, Revision A.03,
 Gaussian 16:  ES64L-G16RevA.03 25-Dec-2016

 ------------------
 #p CCSD(T)/CEP-31G
 ------------------

 ------------
 H2O_H2O_3242
 ------------
 Symbolic Z-matrix:
 Charge =  0 Multiplicity = 1

                         Standard orientation:
 ---------------------------------------------------------------------
 Center     Atomic      Atomic             Coordinates (Angstroms)
 Number     Number       Type             X           Y           Z
 ---------------------------------------------------------------------
      1          8           0        0.037443    2.398340    0.000000
      2          1           0        0.035402    1.415741    0.000000
      3          1           0       -0.891387    2.718936    0.000000
      4          8           0        0.037443   -2.219373   -0.000000
      5          1           0        0.917807   -2.655796   -0.000000
      6          1           0       -0.660903   -2.910619   -0.000000
 ---------------------------------------------------------------------

 SCF Done:  E(RHF) =  -33.6549623635     A.U. after   11 cycles
 E2 =    -0.2282974000D+00 EUMP2 =    -0.33883259763506D+02
 CCSD(T)
 CCSD(T)= -0.33900172810D+02

 The electronic state is 1-A'.
 Alpha  occ. eigenvalues --   -1.36606  -1.34149  -0.72249  -0.69777  -0.56525
 Alpha  occ. eigenvalues --   -0.53974  -0.51223  -0.48768
 Alpha virt. eigenvalues --    0.19041   0.22045   0.29579   0.32201   0.79343
 Alpha virt. eigenvalues --    0.81716   0.82300   0.84651   0.85421   0.87859
 Alpha virt. eigenvalues --    1.16427   1.19069   1.20842   1.24631   2.56297

 Mulliken charges:
               1
     1  O   -0.753526
     2  H    0.386173
     3  H    0.366842
     4  O   -0.751653
     5  H    0.377217
     6  H    0.374947
 Sum of Mulliken charges =  -0.00000

 Dipole moment (field-independent basis, Debye):
    X=             -1.7088    Y=             -4.2548    Z=             -0.0000  Tot=              4.5852
 Quadrupole moment (field-independent basis, Debye-Ang):
   XX=             -9.4118   YY=             -6.3310   ZZ=            -14.9950
   XY=             -6.8440   XZ=             -0.0000   YZ=              0.0000

 7845\MP4DQ=-33.8945382\MP4SDQ=-33.896569\CCSD=-33.8976115\CCSD(T)=-33.
 Normal termination of Gaussian 16 at Sun Dec 10 06:31:25 2023.
