 Gaussian 16, Revision A.03,
 Gaussian 16:  ES64L-G16RevA.03 25-Dec-2016

 ------------------
 #p CCSD(T)/CEP-31G
 ------------------

 -----------
 H2O_H2O_730
 -----------
 Symbolic Z-matrix:
 Charge =  0 Multiplicity = 1

                         Standard orientation:
 ---------------------------------------------------------------------
 Center     Atomic      Atomic             Coordinates (Angstroms)
 Number     Number       Type             X           Y           Z
 ---------------------------------------------------------------------
      1          8           0        0.079881   -1.390301    0.000000
      2          1           0        0.079033   -0.407700    0.000000
      3          1           0       -0.849337   -1.709769    0.000000
      4          8           0        0.079881    1.231298    0.000000
      5          1           0        0.394925    2.162024    0.000000
      6          1           0       -0.902714    1.227470    0.000000
 ---------------------------------------------------------------------

 SCF Done:  E(RHF) =  -33.6523450454     A.U. after   11 cycles
 E2 =    -0.2289422943D+00 EUMP2 =    -0.33881287339704D+02
 CCSD(T)
 CCSD(T)= -0.33897763093D+02

 The electronic state is 1-A'.
 Alpha  occ. eigenvalues --   -1.40182  -1.31423  -0.76514  -0.68838  -0.59181
 Alpha  occ. eigenvalues --   -0.54624  -0.50652  -0.45887
 Alpha virt. eigenvalues --    0.16795   0.25918   0.27610   0.48627   0.74385
 Alpha virt. eigenvalues --    0.77232   0.85272   0.87311   0.94757   1.09786
 Alpha virt. eigenvalues --    1.15609   1.22860   1.26669   1.36351   2.59779

 Mulliken charges:
               1
     1  O   -0.748112
     2  H    0.396481
     3  H    0.335117
     4  O   -0.812264
     5  H    0.446612
     6  H    0.382166
 Sum of Mulliken charges =   0.00000

 Dipole moment (field-independent basis, Debye):
    X=             -3.4504    Y=              4.4197    Z=              0.0000  Tot=              5.6070
 Quadrupole moment (field-independent basis, Debye-Ang):
   XX=            -10.5191   YY=             -9.2942   ZZ=            -14.9986
   XY=              3.1015   XZ=              0.0000   YZ=              0.0000

 4DQ=-33.8917435\MP4SDQ=-33.8939894\CCSD=-33.8948951\CCSD(T)=-33.897763
 Normal termination of Gaussian 16 at Sun Dec 10 06:32:15 2023.
