 Gaussian 16, Revision A.03,
 Gaussian 16:  ES64L-G16RevA.03 25-Dec-2016

 ------------------
 #p CCSD(T)/CEP-31G
 ------------------

 -----------
 H2O_H2O_835
 -----------
 Symbolic Z-matrix:
 Charge =  0 Multiplicity = 1

                         Standard orientation:
 ---------------------------------------------------------------------
 Center     Atomic      Atomic             Coordinates (Angstroms)
 Number     Number       Type             X           Y           Z
 ---------------------------------------------------------------------
      1          8           0        0.063303    1.439105    0.000000
      2          1           0        0.061437    0.456505    0.000000
      3          1           0       -0.865583    1.759536    0.000000
      4          8           0        0.063303   -1.263694   -0.000000
      5          1           0        0.659992   -2.044378   -0.000000
      6          1           0       -0.868698   -1.574948   -0.000000
 ---------------------------------------------------------------------

 SCF Done:  E(RHF) =  -33.6598628978     A.U. after   11 cycles
 E2 =    -0.2291125337D+00 EUMP2 =    -0.33888975431538D+02
 CCSD(T)
 CCSD(T)= -0.33905293745D+02

 The electronic state is 1-A'.
 Alpha  occ. eigenvalues --   -1.39586  -1.30888  -0.75252  -0.68818  -0.59202
 Alpha  occ. eigenvalues --   -0.54254  -0.50227  -0.45446
 Alpha virt. eigenvalues --    0.17246   0.26752   0.27554   0.47927   0.74872
 Alpha virt. eigenvalues --    0.76544   0.85219   0.87253   0.95768   1.04521
 Alpha virt. eigenvalues --    1.15614   1.18404   1.22558   1.36466   2.57094

 Mulliken charges:
               1
     1  O   -0.774554
     2  H    0.430780
     3  H    0.338937
     4  O   -0.819287
     5  H    0.430642
     6  H    0.393481
 Sum of Mulliken charges =   0.00000

 Dipole moment (field-independent basis, Debye):
    X=             -2.7283    Y=             -4.7278    Z=             -0.0000  Tot=              5.4586
 Quadrupole moment (field-independent basis, Debye-Ang):
   XX=             -9.7533   YY=             -9.0720   ZZ=            -15.0134
   XY=             -3.7624   XZ=             -0.0000   YZ=              0.0000

 39\MP4DQ=-33.8993744\MP4SDQ=-33.901536\CCSD=-33.9024415\CCSD(T)=-33.90
 Normal termination of Gaussian 16 at Sun Dec 10 06:34:13 2023.
