 Gaussian 16, Revision A.03,
 Gaussian 16:  ES64L-G16RevA.03 25-Dec-2016

 ------------------
 #p CCSD(T)/CEP-31G
 ------------------

 ------------
 H2O_H2O_1518
 ------------
 Symbolic Z-matrix:
 Charge =  0 Multiplicity = 1

                         Standard orientation:
 ---------------------------------------------------------------------
 Center     Atomic      Atomic             Coordinates (Angstroms)
 Number     Number       Type             X           Y           Z
 ---------------------------------------------------------------------
      1          8           0        0.033870    1.709465    0.000000
      2          1           0        0.030772    0.726869    0.000000
      3          1           0       -0.894614    2.031061    0.000000
      4          8           0        0.033870   -1.532003   -0.000000
      5          1           0        0.940486   -1.910888   -0.000000
      6          1           0       -0.618561   -2.266741   -0.000000
 ---------------------------------------------------------------------

 SCF Done:  E(RHF) =  -33.6614535600     A.U. after   11 cycles
 E2 =    -0.2287862875D+00 EUMP2 =    -0.33890239847410D+02
 CCSD(T)
 CCSD(T)= -0.33907009175D+02

 The electronic state is 1-A'.
 Alpha  occ. eigenvalues --   -1.37914  -1.32357  -0.73565  -0.68228  -0.58426
 Alpha  occ. eigenvalues --   -0.52617  -0.52162  -0.47038
 Alpha virt. eigenvalues --    0.17945   0.25185   0.28642   0.38923   0.77180
 Alpha virt. eigenvalues --    0.80492   0.84265   0.86383   0.90338   0.98235
 Alpha virt. eigenvalues --    1.15306   1.19212   1.21476   1.34463   2.49936

 Mulliken charges:
               1
     1  O   -0.781459
     2  H    0.420706
     3  H    0.358758
     4  O   -0.781701
     5  H    0.391139
     6  H    0.392557
 Sum of Mulliken charges =  -0.00000

 Dipole moment (field-independent basis, Debye):
    X=             -1.5145    Y=             -4.4761    Z=             -0.0000  Tot=              4.7253
 Quadrupole moment (field-independent basis, Debye-Ang):
   XX=             -9.4064   YY=             -8.0869   ZZ=            -15.0092
   XY=             -5.1642   XZ=             -0.0000   YZ=              0.0000

 518\MP4DQ=-33.9012421\MP4SDQ=-33.9033319\CCSD=-33.9043351\CCSD(T)=-33.
 Normal termination of Gaussian 16 at Sun Dec 10 06:47:26 2023.
