 Gaussian 16, Revision A.03,
 Gaussian 16:  ES64L-G16RevA.03 25-Dec-2016

 ------------------
 #p CCSD(T)/CEP-31G
 ------------------

 -----------
 H2O_H2O_393
 -----------
 Symbolic Z-matrix:
 Charge =  0 Multiplicity = 1

                         Standard orientation:
 ---------------------------------------------------------------------
 Center     Atomic      Atomic             Coordinates (Angstroms)
 Number     Number       Type             X           Y           Z
 ---------------------------------------------------------------------
      1          8           0        0.033977    1.260691    0.000000
      2          1           0        0.029693    0.278099    0.000000
      3          1           0       -0.894118    1.583407   -0.000000
      4          8           0        0.033977   -1.083310    0.000000
      5          1           0        0.940135   -1.463290    0.000000
      6          1           0       -0.619340   -1.817260   -0.000000
 ---------------------------------------------------------------------

 SCF Done:  E(RHF) =  -33.6459935776     A.U. after   11 cycles
 E2 =    -0.2284087095D+00 EUMP2 =    -0.33874402287105D+02
 CCSD(T)
 CCSD(T)= -0.33889702680D+02

 The electronic state is 1-A'.
 Alpha  occ. eigenvalues --   -1.42067  -1.28536  -0.77363  -0.72823  -0.57588
 Alpha  occ. eigenvalues --   -0.56421  -0.46928  -0.42918
 Alpha virt. eigenvalues --    0.16985   0.26341   0.28901   0.57458   0.73714
 Alpha virt. eigenvalues --    0.74055   0.86560   0.90073   0.94419   1.00822
 Alpha virt. eigenvalues --    1.15263   1.18420   1.26185   1.36514   2.76232

 Mulliken charges:
               1
     1  O   -0.769448
     2  H    0.395669
     3  H    0.330391
     4  O   -0.833728
     5  H    0.430272
     6  H    0.446843
 Sum of Mulliken charges =   0.00000

 Dipole moment (field-independent basis, Debye):
    X=             -1.4562    Y=             -5.1950    Z=             -0.0000  Tot=              5.3952
 Quadrupole moment (field-independent basis, Debye-Ang):
   XX=             -9.3264   YY=             -9.9668   ZZ=            -14.9969
   XY=             -3.7742   XZ=              0.0000   YZ=             -0.0000

 607\MP4DQ=-33.8836911\MP4SDQ=-33.8858997\CCSD=-33.8866403\CCSD(T)=-33.
 Normal termination of Gaussian 16 at Sun Dec 10 06:25:48 2023.
