 Gaussian 16, Revision A.03,
 Gaussian 16:  ES64L-G16RevA.03 25-Dec-2016

 ------------------
 #p CCSD(T)/CEP-31G
 ------------------

 -----------
 H2O_H2O_197
 -----------
 Symbolic Z-matrix:
 Charge =  0 Multiplicity = 1

                         Standard orientation:
 ---------------------------------------------------------------------
 Center     Atomic      Atomic             Coordinates (Angstroms)
 Number     Number       Type             X           Y           Z
 ---------------------------------------------------------------------
      1          8           0        0.020111   -1.175274    0.000000
      2          1           0        0.014430   -0.192689    0.000000
      3          1           0       -0.907524   -1.499308    0.000000
      4          8           0        0.020111    1.008290    0.000000
      5          1           0        0.993549    1.142175    0.000000
      6          1           0       -0.422233    1.885694    0.000000
 ---------------------------------------------------------------------

 SCF Done:  E(RHF) =  -33.6187197484     A.U. after   11 cycles
 E2 =    -0.2273338226D+00 EUMP2 =    -0.33846053570975D+02
 CCSD(T)
 CCSD(T)= -0.33861006232D+02

 The electronic state is 1-A'.
 Alpha  occ. eigenvalues --   -1.44356  -1.27678  -0.81108  -0.73407  -0.57838
 Alpha  occ. eigenvalues --   -0.56648  -0.45269  -0.41911
 Alpha virt. eigenvalues --    0.16896   0.25138   0.29764   0.60698   0.73427
 Alpha virt. eigenvalues --    0.74578   0.89186   0.91045   0.93221   1.02646
 Alpha virt. eigenvalues --    1.13777   1.20212   1.29812   1.40047   2.91218

 Mulliken charges:
               1
     1  O   -0.748100
     2  H    0.314943
     3  H    0.330351
     4  O   -0.813870
     5  H    0.433386
     6  H    0.483291
 Sum of Mulliken charges =  -0.00000

 Dipole moment (field-independent basis, Debye):
    X=             -0.8704    Y=              5.2549    Z=              0.0000  Tot=              5.3265
 Quadrupole moment (field-independent basis, Debye-Ang):
   XX=             -9.5382   YY=            -10.2793   ZZ=            -14.9548
   XY=              3.7576   XZ=              0.0000   YZ=              0.0000

 665\MP4DQ=-33.8548965\MP4SDQ=-33.8571905\CCSD=-33.8578733\CCSD(T)=-33.
 Normal termination of Gaussian 16 at Sun Dec 10 06:21:56 2023.
