 Gaussian 16, Revision A.03,
 Gaussian 16:  ES64L-G16RevA.03 25-Dec-2016

 ------------------
 #p CCSD(T)/CEP-31G
 ------------------

 ------------
 H2O_H2O_2448
 ------------
 Symbolic Z-matrix:
 Charge =  0 Multiplicity = 1

                         Standard orientation:
 ---------------------------------------------------------------------
 Center     Atomic      Atomic             Coordinates (Angstroms)
 Number     Number       Type             X           Y           Z
 ---------------------------------------------------------------------
      1          8           0       -0.016659    2.070776    0.000000
      2          1           0       -0.013403    1.088180    0.000000
      3          1           0        0.911773    2.392521    0.000000
      4          8           0       -0.016659   -1.907400    0.000000
      5          1           0       -0.996939   -1.974913    0.000000
      6          1           0        0.365119   -2.812801    0.000000
 ---------------------------------------------------------------------

 SCF Done:  E(RHF) =  -33.6567410253     A.U. after   11 cycles
 E2 =    -0.2284020928D+00 EUMP2 =    -0.33885143118096D+02
 CCSD(T)
 CCSD(T)= -0.33902045003D+02

 The electronic state is 1-A'.
 Alpha  occ. eigenvalues --   -1.37003  -1.33866  -0.72669  -0.69518  -0.57041
 Alpha  occ. eigenvalues --   -0.53731  -0.51640  -0.48515
 Alpha virt. eigenvalues --    0.18056   0.23075   0.29279   0.33157   0.78859
 Alpha virt. eigenvalues --    0.82032   0.83010   0.84943   0.87346   0.87933
 Alpha virt. eigenvalues --    1.15992   1.19725   1.20558   1.30736   2.54909

 Mulliken charges:
               1
     1  O   -0.761756
     2  H    0.391980
     3  H    0.368137
     4  O   -0.758031
     5  H    0.378928
     6  H    0.380742
 Sum of Mulliken charges =  -0.00000

 Dipole moment (field-independent basis, Debye):
    X=              0.7531    Y=             -3.9525    Z=              0.0000  Tot=              4.0236
 Quadrupole moment (field-independent basis, Debye-Ang):
   XX=             -9.7613   YY=             -7.7923   ZZ=            -14.9979
   XY=              7.2375   XZ=              0.0000   YZ=              0.0000

 6\MP4DQ=-33.8963709\MP4SDQ=-33.8984295\CCSD=-33.8994595\CCSD(T)=-33.90
 Normal termination of Gaussian 16 at Sun Dec 10 07:06:31 2023.
