 Gaussian 16, Revision A.03,
 Gaussian 16:  ES64L-G16RevA.03 25-Dec-2016

 ------------------
 #p CCSD(T)/CEP-31G
 ------------------

 -----------
 H2O_H2O_219
 -----------
 Symbolic Z-matrix:
 Charge =  0 Multiplicity = 1

                         Standard orientation:
 ---------------------------------------------------------------------
 Center     Atomic      Atomic             Coordinates (Angstroms)
 Number     Number       Type             X           Y           Z
 ---------------------------------------------------------------------
      1          8           0        0.030410    1.189843    0.000000
      2          1           0        0.025577    0.207254    0.000000
      3          1           0       -0.897504    1.513078    0.000000
      4          8           0        0.030410   -1.014389    0.000000
      5          1           0        0.959301   -1.334808    0.000000
      6          1           0       -0.573938   -1.789159    0.000000
 ---------------------------------------------------------------------

 SCF Done:  E(RHF) =  -33.6257191213     A.U. after   11 cycles
 E2 =    -0.2277733937D+00 EUMP2 =    -0.33853492515032D+02
 CCSD(T)
 CCSD(T)= -0.33868357689D+02

 The electronic state is 1-A'.
 Alpha  occ. eigenvalues --   -1.43926  -1.27521  -0.79520  -0.74861  -0.57727
 Alpha  occ. eigenvalues --   -0.56247  -0.45178  -0.41719
 Alpha virt. eigenvalues --    0.16738   0.25544   0.29712   0.60630   0.73442
 Alpha virt. eigenvalues --    0.73901   0.87526   0.91127   0.92939   1.01865
 Alpha virt. eigenvalues --    1.14347   1.19054   1.28587   1.36445   2.87075

 Mulliken charges:
               1
     1  O   -0.758186
     2  H    0.347684
     3  H    0.322920
     4  O   -0.814940
     5  H    0.437874
     6  H    0.464647
 Sum of Mulliken charges =   0.00000

 Dipole moment (field-independent basis, Debye):
    X=             -1.2900    Y=             -5.4167    Z=              0.0000  Tot=              5.5682
 Quadrupole moment (field-independent basis, Debye-Ang):
   XX=             -9.3362   YY=            -10.3412   ZZ=            -14.9653
   XY=             -3.5892   XZ=              0.0000   YZ=              0.0000

 16\MP4DQ=-33.8622712\MP4SDQ=-33.8645371\CCSD=-33.8652027\CCSD(T)=-33.8
 Normal termination of Gaussian 16 at Sun Dec 10 06:22:22 2023.
