 Gaussian 16, Revision A.03,
 Gaussian 16:  ES64L-G16RevA.03 25-Dec-2016

 ------------------
 #p CCSD(T)/CEP-31G
 ------------------

 ------------
 H2O_H2O_2801
 ------------
 Symbolic Z-matrix:
 Charge =  0 Multiplicity = 1

                         Standard orientation:
 ---------------------------------------------------------------------
 Center     Atomic      Atomic             Coordinates (Angstroms)
 Number     Number       Type             X           Y           Z
 ---------------------------------------------------------------------
      1          8           0        0.090685   -2.206944    0.000000
      2          1           0        0.090595   -1.224343    0.000000
      3          1           0       -0.838779   -2.525696    0.000000
      4          8           0        0.090685    2.068237    0.000000
      5          1           0        0.154861    3.048740    0.000000
      6          1           0       -0.857636    1.810957    0.000000
 ---------------------------------------------------------------------

 SCF Done:  E(RHF) =  -33.6527221233     A.U. after   11 cycles
 E2 =    -0.2284674256D+00 EUMP2 =    -0.33881189548894D+02
 CCSD(T)
 CCSD(T)= -0.33898180976D+02

 The electronic state is 1-A'.
 Alpha  occ. eigenvalues --   -1.36892  -1.34749  -0.72576  -0.70333  -0.56695
 Alpha  occ. eigenvalues --   -0.54480  -0.51468  -0.49319
 Alpha virt. eigenvalues --    0.17439   0.22262   0.29197   0.31788   0.79102
 Alpha virt. eigenvalues --    0.81240   0.82636   0.84213   0.85824   0.87732
 Alpha virt. eigenvalues --    1.15667   1.18726   1.20548   1.27502   2.56089

 Mulliken charges:
               1
     1  O   -0.745339
     2  H    0.381438
     3  H    0.363264
     4  O   -0.745591
     5  H    0.379918
     6  H    0.366310
 Sum of Mulliken charges =  -0.00000

 Dipole moment (field-independent basis, Debye):
    X=             -4.1426    Y=              3.3289    Z=              0.0000  Tot=              5.3144
 Quadrupole moment (field-independent basis, Debye-Ang):
   XX=            -11.1422   YY=             -9.1763   ZZ=            -14.9888
   XY=              2.5626   XZ=              0.0000   YZ=              0.0000

 7708\MP4DQ=-33.8925111\MP4SDQ=-33.8945588\CCSD=-33.8956008\CCSD(T)=-33
 Normal termination of Gaussian 16 at Sun Dec 10 06:23:25 2023.
