 Gaussian 16, Revision A.03,
 Gaussian 16:  ES64L-G16RevA.03 25-Dec-2016

 ------------------
 #p CCSD(T)/CEP-31G
 ------------------

 ------------
 H2O_H2O_2829
 ------------
 Symbolic Z-matrix:
 Charge =  0 Multiplicity = 1

                         Standard orientation:
 ---------------------------------------------------------------------
 Center     Atomic      Atomic             Coordinates (Angstroms)
 Number     Number       Type             X           Y           Z
 ---------------------------------------------------------------------
      1          8           0        0.082805   -2.225502    0.000000
      2          1           0        0.082404   -1.242901    0.000000
      3          1           0       -0.846558   -2.544548    0.000000
      4          8           0        0.082805    2.070988    0.000000
      5          1           0        0.336734    3.020212    0.000000
      6          1           0       -0.897465    2.003350    0.000000
 ---------------------------------------------------------------------

 SCF Done:  E(RHF) =  -33.6536151380     A.U. after   11 cycles
 E2 =    -0.2284270436D+00 EUMP2 =    -0.33882042181642D+02
 CCSD(T)
 CCSD(T)= -0.33899005475D+02

 The electronic state is 1-A'.
 Alpha  occ. eigenvalues --   -1.36856  -1.34441  -0.72527  -0.70033  -0.56705
 Alpha  occ. eigenvalues --   -0.54199  -0.51447  -0.49027
 Alpha virt. eigenvalues --    0.18005   0.22230   0.29235   0.32034   0.79124
 Alpha virt. eigenvalues --    0.81504   0.82713   0.84522   0.85578   0.87943
 Alpha virt. eigenvalues --    1.15940   1.18989   1.20553   1.27160   2.56045

 Mulliken charges:
               1
     1  O   -0.748727
     2  H    0.384891
     3  H    0.363048
     4  O   -0.748272
     5  H    0.380092
     6  H    0.368968
 Sum of Mulliken charges =  -0.00000

 Dipole moment (field-independent basis, Debye):
    X=             -3.7803    Y=              3.7080    Z=              0.0000  Tot=              5.2953
 Quadrupole moment (field-independent basis, Debye-Ang):
   XX=            -10.6494   YY=             -8.1387   ZZ=            -14.9913
   XY=              3.3684   XZ=              0.0000   YZ=              0.0000

 5978\MP4DQ=-33.8933428\MP4SDQ=-33.8953885\CCSD=-33.8964291\CCSD(T)=-33
 Normal termination of Gaussian 16 at Sun Dec 10 06:23:55 2023.
