 Gaussian 16, Revision A.03,
 Gaussian 16:  ES64L-G16RevA.03 25-Dec-2016

 ------------------
 #p CCSD(T)/CEP-31G
 ------------------

 -----------
 H2O_H2O_682
 -----------
 Symbolic Z-matrix:
 Charge =  0 Multiplicity = 1

                         Standard orientation:
 ---------------------------------------------------------------------
 Center     Atomic      Atomic             Coordinates (Angstroms)
 Number     Number       Type             X           Y           Z
 ---------------------------------------------------------------------
      1          8           0        0.073582    1.374626    0.000000
      2          1           0        0.072306    0.392025    0.000000
      3          1           0       -0.855496    1.694499    0.000000
      4          8           0        0.073582   -1.207766   -0.000000
      5          1           0        0.507032   -2.089598   -0.000000
      6          1           0       -0.901159   -1.331802   -0.000000
 ---------------------------------------------------------------------

 SCF Done:  E(RHF) =  -33.6539924508     A.U. after   11 cycles
 E2 =    -0.2289539076D+00 EUMP2 =    -0.33882946358327D+02
 CCSD(T)
 CCSD(T)= -0.33899202903D+02

 The electronic state is 1-A'.
 Alpha  occ. eigenvalues --   -1.40332  -1.30821  -0.76391  -0.69287  -0.59023
 Alpha  occ. eigenvalues --   -0.54834  -0.49966  -0.45291
 Alpha virt. eigenvalues --    0.16897   0.26255   0.27676   0.50101   0.74310
 Alpha virt. eigenvalues --    0.76433   0.85338   0.87828   0.95741   1.07997
 Alpha virt. eigenvalues --    1.16075   1.21689   1.23304   1.36336   2.62580

 Mulliken charges:
               1
     1  O   -0.756611
     2  H    0.409930
     3  H    0.333074
     4  O   -0.823990
     5  H    0.448368
     6  H    0.389228
 Sum of Mulliken charges =  -0.00000

 Dipole moment (field-independent basis, Debye):
    X=             -3.1484    Y=             -4.6447    Z=             -0.0000  Tot=              5.6112
 Quadrupole moment (field-independent basis, Debye-Ang):
   XX=            -10.1795   YY=             -9.3215   ZZ=            -15.0033
   XY=             -3.3637   XZ=              0.0000   YZ=              0.0000

 511\MP4DQ=-33.8932001\MP4SDQ=-33.8954254\CCSD=-33.8963068\CCSD(T)=-33.
 Normal termination of Gaussian 16 at Sun Dec 10 06:31:21 2023.
