 Gaussian 16, Revision A.03,
 Gaussian 16:  ES64L-G16RevA.03 25-Dec-2016

 ------------------
 #p CCSD(T)/CEP-31G
 ------------------

 ------------
 H2O_H2O_2608
 ------------
 Symbolic Z-matrix:
 Charge =  0 Multiplicity = 1

                         Standard orientation:
 ---------------------------------------------------------------------
 Center     Atomic      Atomic             Coordinates (Angstroms)
 Number     Number       Type             X           Y           Z
 ---------------------------------------------------------------------
      1          8           0        0.070206    2.144294   -0.000000
      2          1           0        0.069268    1.161693   -0.000000
      3          1           0       -0.858983    2.463847   -0.000000
      4          8           0        0.070206   -1.974061    0.000000
      5          1           0        0.560694   -2.825487    0.000000
      6          1           0       -0.894272   -2.161914    0.000000
 ---------------------------------------------------------------------

 SCF Done:  E(RHF) =  -33.6551000980     A.U. after   11 cycles
 E2 =    -0.2284398891D+00 EUMP2 =    -0.33883539987122D+02
 CCSD(T)
 CCSD(T)= -0.33900470099D+02

 The electronic state is 1-A'.
 Alpha  occ. eigenvalues --   -1.36961  -1.33967  -0.72625  -0.69565  -0.56902
 Alpha  occ. eigenvalues --   -0.53761  -0.51575  -0.48575
 Alpha virt. eigenvalues --    0.18226   0.22655   0.29193   0.32776   0.78975
 Alpha virt. eigenvalues --    0.81949   0.83345   0.84940   0.85663   0.88267
 Alpha virt. eigenvalues --    1.16007   1.19469   1.20494   1.28704   2.55070

 Mulliken charges:
               1
     1  O   -0.754789
     2  H    0.391252
     3  H    0.362173
     4  O   -0.752418
     5  H    0.381572
     6  H    0.372210
 Sum of Mulliken charges =  -0.00000

 Dipole moment (field-independent basis, Debye):
    X=             -3.1954    Y=             -4.1104    Z=              0.0000  Tot=              5.2063
 Quadrupole moment (field-independent basis, Debye-Ang):
   XX=            -10.0306   YY=             -7.3536   ZZ=            -14.9947
   XY=             -4.2899   XZ=              0.0000   YZ=             -0.0000

 16\MP4DQ=-33.8948009\MP4SDQ=-33.8968546\CCSD=-33.8978891\CCSD(T)=-33.9
 Normal termination of Gaussian 16 at Sun Dec 10 06:19:57 2023.
