 Gaussian 16, Revision A.03,
 Gaussian 16:  ES64L-G16RevA.03 25-Dec-2016

 ------------------
 #p CCSD(T)/CEP-31G
 ------------------

 -----------
 H2O_H2O_591
 -----------
 Symbolic Z-matrix:
 Charge =  0 Multiplicity = 1

                         Standard orientation:
 ---------------------------------------------------------------------
 Center     Atomic      Atomic             Coordinates (Angstroms)
 Number     Number       Type             X           Y           Z
 ---------------------------------------------------------------------
      1          8           0        0.041284    1.341773    0.000000
      2          1           0        0.037772    0.359177    0.000000
      3          1           0       -0.887063    1.663760   -0.000000
      4          8           0        0.041284   -1.161980    0.000000
      5          1           0        0.890481   -1.656320    0.000000
      6          1           0       -0.701739   -1.804960   -0.000000
 ---------------------------------------------------------------------

 SCF Done:  E(RHF) =  -33.6572569613     A.U. after   11 cycles
 E2 =    -0.2289077846D+00 EUMP2 =    -0.33886164745868D+02
 CCSD(T)
 CCSD(T)= -0.33901912720D+02

 The electronic state is 1-A'.
 Alpha  occ. eigenvalues --   -1.40657  -1.29515  -0.75925  -0.70743  -0.58612
 Alpha  occ. eigenvalues --   -0.55293  -0.48457  -0.44024
 Alpha virt. eigenvalues --    0.17198   0.27033   0.28061   0.53380   0.74170
 Alpha virt. eigenvalues --    0.74551   0.85601   0.88891   0.96299   0.99769
 Alpha virt. eigenvalues --    1.15016   1.17989   1.24494   1.37067   2.65878

 Mulliken charges:
               1
     1  O   -0.778597
     2  H    0.425263
     3  H    0.335808
     4  O   -0.833025
     5  H    0.425518
     6  H    0.425033
 Sum of Mulliken charges =   0.00000

 Dipole moment (field-independent basis, Debye):
    X=             -1.7735    Y=             -5.0209    Z=             -0.0000  Tot=              5.3249
 Quadrupole moment (field-independent basis, Debye-Ang):
   XX=             -9.3274   YY=             -9.5679   ZZ=            -15.0143
   XY=             -3.9252   XZ=              0.0000   YZ=             -0.0000

 4\MP4DQ=-33.895964\MP4SDQ=-33.8981306\CCSD=-33.8989449\CCSD(T)=-33.901
 Normal termination of Gaussian 16 at Sun Dec 10 06:29:39 2023.
