 Gaussian 16, Revision A.03,
 Gaussian 16:  ES64L-G16RevA.03 25-Dec-2016

 ------------------
 #p CCSD(T)/CEP-31G
 ------------------

 ------------
 H2O_H2O_1867
 ------------
 Symbolic Z-matrix:
 Charge =  0 Multiplicity = 1

                         Standard orientation:
 ---------------------------------------------------------------------
 Center     Atomic      Atomic             Coordinates (Angstroms)
 Number     Number       Type             X           Y           Z
 ---------------------------------------------------------------------
      1          8           0        0.037500    1.849862   -0.000000
      2          1           0        0.034824    0.867264   -0.000000
      3          1           0       -0.891121    2.171058   -0.000000
      4          8           0        0.037500   -1.670943    0.000000
      5          1           0        0.917583   -2.107935    0.000000
      6          1           0       -0.661292   -2.361737    0.000000
 ---------------------------------------------------------------------

 SCF Done:  E(RHF) =  -33.6594925171     A.U. after   11 cycles
 E2 =    -0.2286300073D+00 EUMP2 =    -0.33888122524482D+02
 CCSD(T)
 CCSD(T)= -0.33904967971D+02

 The electronic state is 1-A'.
 Alpha  occ. eigenvalues --   -1.37495  -1.32898  -0.73144  -0.68593  -0.57806
 Alpha  occ. eigenvalues --   -0.52747  -0.52172  -0.47566
 Alpha virt. eigenvalues --    0.18109   0.24324   0.28940   0.36099   0.78032
 Alpha virt. eigenvalues --    0.82220   0.83270   0.86310   0.88885   0.92362
 Alpha virt. eigenvalues --    1.15626   1.19893   1.20775   1.33340   2.51067

 Mulliken charges:
               1
     1  O   -0.773676
     2  H    0.410323
     3  H    0.361062
     4  O   -0.768345
     5  H    0.386540
     6  H    0.384096
 Sum of Mulliken charges =   0.00000

 Dipole moment (field-independent basis, Debye):
    X=             -1.6856    Y=             -4.4299    Z=              0.0000  Tot=              4.7398
 Quadrupole moment (field-independent basis, Debye-Ang):
   XX=             -9.3968   YY=             -7.6474   ZZ=            -15.0041
   XY=             -5.4132   XZ=              0.0000   YZ=             -0.0000

 5026\MP4DQ=-33.899244\MP4SDQ=-33.9013215\CCSD=-33.9023405\CCSD(T)=-33.
 Normal termination of Gaussian 16 at Sun Dec 10 06:54:08 2023.
