 Gaussian 16, Revision A.03,
 Gaussian 16:  ES64L-G16RevA.03 25-Dec-2016

 ------------------
 #p CCSD(T)/CEP-31G
 ------------------

 ------------
 H2O_H2O_2340
 ------------
 Symbolic Z-matrix:
 Charge =  0 Multiplicity = 1

                         Standard orientation:
 ---------------------------------------------------------------------
 Center     Atomic      Atomic             Coordinates (Angstroms)
 Number     Number       Type             X           Y           Z
 ---------------------------------------------------------------------
      1          8           0        0.044885    2.040115   -0.000000
      2          1           0        0.042791    1.057516   -0.000000
      3          1           0       -0.883927    2.360761   -0.000000
      4          8           0        0.044885   -1.859742    0.000000
      5          1           0        0.860723   -2.407385    0.000000
      6          1           0       -0.737744   -2.453880    0.000000
 ---------------------------------------------------------------------

 SCF Done:  E(RHF) =  -33.6572350743     A.U. after   11 cycles
 E2 =    -0.2284609430D+00 EUMP2 =    -0.33885696017292D+02
 CCSD(T)
 CCSD(T)= -0.33902579810D+02

 The electronic state is 1-A'.
 Alpha  occ. eigenvalues --   -1.37105  -1.33449  -0.72753  -0.69077  -0.57198
 Alpha  occ. eigenvalues --   -0.53296  -0.51752  -0.48092
 Alpha virt. eigenvalues --    0.18353   0.23312   0.29210   0.33781   0.78738
 Alpha virt. eigenvalues --    0.82455   0.83848   0.85808   0.85901   0.88593
 Alpha virt. eigenvalues --    1.15989   1.19997   1.20450   1.30187   2.53538

 Mulliken charges:
               1
     1  O   -0.763655
     2  H    0.398760
     3  H    0.362876
     4  O   -0.758248
     5  H    0.382504
     6  H    0.377764
 Sum of Mulliken charges =  -0.00000

 Dipole moment (field-independent basis, Debye):
    X=             -2.0319    Y=             -4.3879    Z=              0.0000  Tot=              4.8355
 Quadrupole moment (field-independent basis, Debye-Ang):
   XX=             -9.4201   YY=             -7.0966   ZZ=            -14.9994
   XY=             -5.5419   XZ=              0.0000   YZ=             -0.0000

 485\MP4DQ=-33.896901\MP4SDQ=-33.8989617\CCSD=-33.89999\CCSD(T)=-33.902
 Normal termination of Gaussian 16 at Sun Dec 10 07:04:30 2023.
