 Gaussian 16, Revision A.03,
 Gaussian 16:  ES64L-G16RevA.03 25-Dec-2016

 ------------------
 #p CCSD(T)/CEP-31G
 ------------------

 ------------
 H2O_H2O_4341
 ------------
 Symbolic Z-matrix:
 Charge =  0 Multiplicity = 1

                         Standard orientation:
 ---------------------------------------------------------------------
 Center     Atomic      Atomic             Coordinates (Angstroms)
 Number     Number       Type             X           Y           Z
 ---------------------------------------------------------------------
      1          8           0        0.041109    2.837638    0.000000
      2          1           0        0.039509    1.855038    0.000000
      3          1           0       -0.887863    3.157818    0.000000
      4          8           0        0.041109   -2.657685    0.000000
      5          1           0        0.891266   -3.150372    0.000000
      6          1           0       -0.700661   -3.302110    0.000000
 ---------------------------------------------------------------------

 SCF Done:  E(RHF) =  -33.6535023867     A.U. after   11 cycles
 E2 =    -0.2282930190D+00 EUMP2 =    -0.33881795405726D+02
 CCSD(T)
 CCSD(T)= -0.33898747235D+02

 The electronic state is 1-A'.
 Alpha  occ. eigenvalues --   -1.36285  -1.34608  -0.71925  -0.70239  -0.56119
 Alpha  occ. eigenvalues --   -0.54398  -0.50882  -0.49207
 Alpha virt. eigenvalues --    0.19558   0.21315   0.29829   0.31595   0.79671
 Alpha virt. eigenvalues --    0.81306   0.82496   0.84299   0.85707   0.87409
 Alpha virt. eigenvalues --    1.16690   1.18373   1.21131   1.22898   2.56652

 Mulliken charges:
               1
     1  O   -0.747805
     2  H    0.379518
     3  H    0.368266
     4  O   -0.747156
     5  H    0.374533
     6  H    0.372645
 Sum of Mulliken charges =   0.00000

 Dipole moment (field-independent basis, Debye):
    X=             -1.8868    Y=             -4.2247    Z=              0.0000  Tot=              4.6268
 Quadrupole moment (field-independent basis, Debye-Ang):
   XX=             -9.4130   YY=             -5.2871   ZZ=            -14.9921
   XY=             -7.6539   XZ=              0.0000   YZ=              0.0000

 \MP4DQ=-33.893115\MP4SDQ=-33.8951386\CCSD=-33.8961902\CCSD(T)=-33.8987
 Normal termination of Gaussian 16 at Sun Dec 10 06:51:08 2023.
