 Gaussian 16, Revision A.03,
 Gaussian 16:  ES64L-G16RevA.03 25-Dec-2016

 ------------------
 #p CCSD(T)/CEP-31G
 ------------------

 -----------
 H2O_H2O_108
 -----------
 Symbolic Z-matrix:
 Charge =  0 Multiplicity = 1

                         Standard orientation:
 ---------------------------------------------------------------------
 Center     Atomic      Atomic             Coordinates (Angstroms)
 Number     Number       Type             X           Y           Z
 ---------------------------------------------------------------------
      1          8           0        0.070282    1.147039    0.000000
      2          1           0        0.068464    0.164439    0.000000
      3          1           0       -0.858620    1.467424    0.000000
      4          8           0        0.070282   -0.976932    0.000000
      5          1           0        0.560008   -1.828797    0.000000
      6          1           0       -0.894363   -1.163920    0.000000
 ---------------------------------------------------------------------

 SCF Done:  E(RHF) =  -33.6004185367     A.U. after   11 cycles
 E2 =    -0.2279703589D+00 EUMP2 =    -0.33828388895537D+02
 CCSD(T)
 CCSD(T)= -0.33843225779D+02

 The electronic state is 1-A'.
 Alpha  occ. eigenvalues --   -1.45731  -1.27618  -0.82141  -0.75469  -0.58748
 Alpha  occ. eigenvalues --   -0.55061  -0.44921  -0.41587
 Alpha virt. eigenvalues --    0.16044   0.24252   0.30151   0.61393   0.73187
 Alpha virt. eigenvalues --    0.74089   0.88513   0.91326   0.94412   1.07897
 Alpha virt. eigenvalues --    1.10976   1.20469   1.27919   1.36552   3.01973

 Mulliken charges:
               1
     1  O   -0.721254
     2  H    0.302354
     3  H    0.300261
     4  O   -0.788078
     5  H    0.490548
     6  H    0.416169
 Sum of Mulliken charges =  -0.00000

 Dipole moment (field-independent basis, Debye):
    X=             -2.8235    Y=             -5.4598    Z=              0.0000  Tot=              6.1467
 Quadrupole moment (field-independent basis, Debye-Ang):
   XX=             -9.9620   YY=            -10.5347   ZZ=            -14.9217
   XY=             -3.1138   XZ=              0.0000   YZ=              0.0000

 \MP4DQ=-33.8369372\MP4SDQ=-33.8393694\CCSD=-33.8399965\CCSD(T)=-33.843
 Normal termination of Gaussian 16 at Sun Dec 10 06:20:10 2023.
