 Gaussian 16, Revision A.03,
 Gaussian 16:  ES64L-G16RevA.03 25-Dec-2016

 ------------------
 #p CCSD(T)/CEP-31G
 ------------------

 ------------
 H2O_H2O_1123
 ------------
 Symbolic Z-matrix:
 Charge =  0 Multiplicity = 1

                         Standard orientation:
 ---------------------------------------------------------------------
 Center     Atomic      Atomic             Coordinates (Angstroms)
 Number     Number       Type             X           Y           Z
 ---------------------------------------------------------------------
      1          8           0       -0.016757    1.542248    0.000000
      2          1           0       -0.012323    0.559656    0.000000
      3          1           0        0.911288    1.865105    0.000000
      4          8           0       -0.016757   -1.378911    0.000000
      5          1           0       -0.996955   -1.447600    0.000000
      6          1           0        0.366107   -2.283854    0.000000
 ---------------------------------------------------------------------

 SCF Done:  E(RHF) =  -33.6616769291     A.U. after   11 cycles
 E2 =    -0.2286972197D+00 EUMP2 =    -0.33890374148731D+02
 CCSD(T)
 CCSD(T)= -0.33907048994D+02

 The electronic state is 1-A'.
 Alpha  occ. eigenvalues --   -1.38658  -1.31910  -0.74548  -0.68156  -0.59187
 Alpha  occ. eigenvalues --   -0.53332  -0.51565  -0.46594
 Alpha virt. eigenvalues --    0.17643   0.26139   0.28077   0.43024   0.75832
 Alpha virt. eigenvalues --    0.78746   0.85637   0.86396   0.90659   1.09443
 Alpha virt. eigenvalues --    1.16541   1.18389   1.22843   1.36866   2.52329

 Mulliken charges:
               1
     1  O   -0.782161
     2  H    0.414772
     3  H    0.360715
     4  O   -0.803473
     5  H    0.394078
     6  H    0.416068
 Sum of Mulliken charges =  -0.00000

 Dipole moment (field-independent basis, Debye):
    X=              0.7508    Y=             -4.2784    Z=              0.0000  Tot=              4.3438
 Quadrupole moment (field-independent basis, Debye-Ang):
   XX=             -9.7351   YY=             -8.7804   ZZ=            -15.0124
   XY=              5.3025   XZ=              0.0000   YZ=              0.0000

 4949\MP4DQ=-33.9011996\MP4SDQ=-33.903337\CCSD=-33.9043098\CCSD(T)=-33.
 Normal termination of Gaussian 16 at Sun Dec 10 06:39:38 2023.
