 Gaussian 16, Revision A.03,
 Gaussian 16:  ES64L-G16RevA.03 25-Dec-2016

 ------------------
 #p CCSD(T)/CEP-31G
 ------------------

 ------------
 H2O_H2O_1765
 ------------
 Symbolic Z-matrix:
 Charge =  0 Multiplicity = 1

                         Standard orientation:
 ---------------------------------------------------------------------
 Center     Atomic      Atomic             Coordinates (Angstroms)
 Number     Number       Type             X           Y           Z
 ---------------------------------------------------------------------
      1          8           0        0.044910    1.810749    0.000000
      2          1           0        0.042538    0.828150    0.000000
      3          1           0       -0.883810    2.131659    0.000000
      4          8           0        0.044910   -1.630401   -0.000000
      5          1           0        0.860593   -2.178276   -0.000000
      6          1           0       -0.737888   -2.224316   -0.000000
 ---------------------------------------------------------------------

 SCF Done:  E(RHF) =  -33.6598533978     A.U. after   11 cycles
 E2 =    -0.2287019941D+00 EUMP2 =    -0.33888555391934D+02
 CCSD(T)
 CCSD(T)= -0.33905384585D+02

 The electronic state is 1-A'.
 Alpha  occ. eigenvalues --   -1.37614  -1.32734  -0.73258  -0.68452  -0.57973
 Alpha  occ. eigenvalues --   -0.52563  -0.52296  -0.47398
 Alpha virt. eigenvalues --    0.18065   0.24547   0.28839   0.36841   0.77816
 Alpha virt. eigenvalues --    0.81881   0.83542   0.86156   0.89749   0.93257
 Alpha virt. eigenvalues --    1.15500   1.19932   1.20780   1.33424   2.50447

 Mulliken charges:
               1
     1  O   -0.775077
     2  H    0.414205
     3  H    0.358785
     4  O   -0.770745
     5  H    0.389331
     6  H    0.383501
 Sum of Mulliken charges =  -0.00000

 Dipole moment (field-independent basis, Debye):
    X=             -2.0143    Y=             -4.4870    Z=             -0.0000  Tot=              4.9184
 Quadrupole moment (field-independent basis, Debye-Ang):
   XX=             -9.4102   YY=             -7.7253   ZZ=            -15.0051
   XY=             -5.0191   XZ=             -0.0000   YZ=              0.0000

 132\MP4DQ=-33.8996487\MP4SDQ=-33.9017287\CCSD=-33.9027445\CCSD(T)=-33.
 Normal termination of Gaussian 16 at Sun Dec 10 06:52:12 2023.
