 Gaussian 16, Revision A.03,
 Gaussian 16:  ES64L-G16RevA.03 25-Dec-2016

 ------------------
 #p CCSD(T)/CEP-31G
 ------------------

 ------------
 H2O_H2O_4968
 ------------
 Symbolic Z-matrix:
 Charge =  0 Multiplicity = 1

                         Standard orientation:
 ---------------------------------------------------------------------
 Center     Atomic      Atomic             Coordinates (Angstroms)
 Number     Number       Type             X           Y           Z
 ---------------------------------------------------------------------
      1          8           0        0.033741    3.085637    0.000000
      2          1           0        0.032066    2.103037    0.000000
      3          1           0       -0.895207    3.405888   -0.000000
      4          8           0        0.033741   -2.908077    0.000000
      5          1           0        0.940905   -3.285649    0.000000
      6          1           0       -0.617626   -3.643759   -0.000000
 ---------------------------------------------------------------------

 SCF Done:  E(RHF) =  -33.6531204891     A.U. after   11 cycles
 E2 =    -0.2283053809D+00 EUMP2 =    -0.33881425869999D+02
 CCSD(T)
 CCSD(T)= -0.33898388776D+02

 The electronic state is 1-A'.
 Alpha  occ. eigenvalues --   -1.36171  -1.34798  -0.71810  -0.70432  -0.55981
 Alpha  occ. eigenvalues --   -0.54579  -0.50763  -0.49392
 Alpha virt. eigenvalues --    0.19672   0.21078   0.29922   0.31354   0.79787
 Alpha virt. eigenvalues --    0.81131   0.82677   0.84120   0.85844   0.87224
 Alpha virt. eigenvalues --    1.16788   1.18162   1.21234   1.22643   2.56768

 Mulliken charges:
               1
     1  O   -0.746293
     2  H    0.377117
     3  H    0.369175
     4  O   -0.745858
     5  H    0.373447
     6  H    0.372413
 Sum of Mulliken charges =  -0.00000

 Dipole moment (field-independent basis, Debye):
    X=             -1.5513    Y=             -4.1530    Z=             -0.0000  Tot=              4.4333
 Quadrupole moment (field-independent basis, Debye-Ang):
   XX=             -9.4382   YY=             -4.9521   ZZ=            -14.9913
   XY=             -8.9844   XZ=              0.0000   YZ=             -0.0000

 0077\MP4DQ=-33.8927543\MP4SDQ=-33.8947784\CCSD=-33.8958314\CCSD(T)=-33
 Normal termination of Gaussian 16 at Sun Dec 10 07:03:42 2023.
