 Gaussian 16, Revision A.03,
 Gaussian 16:  ES64L-G16RevA.03 25-Dec-2016

 ------------------
 #p CCSD(T)/CEP-31G
 ------------------

 ------------
 H2O_H2O_1493
 ------------
 Symbolic Z-matrix:
 Charge =  0 Multiplicity = 1

                         Standard orientation:
 ---------------------------------------------------------------------
 Center     Atomic      Atomic             Coordinates (Angstroms)
 Number     Number       Type             X           Y           Z
 ---------------------------------------------------------------------
      1          8           0        0.033872    1.699493   -0.000000
      2          1           0        0.030754    0.716896   -0.000000
      3          1           0       -0.894606    2.021107   -0.000000
      4          8           0        0.033872   -1.522032    0.000000
      5          1           0        0.940479   -1.900935    0.000000
      6          1           0       -0.618575   -2.256757    0.000000
 ---------------------------------------------------------------------

 SCF Done:  E(RHF) =  -33.6615948107     A.U. after   11 cycles
 E2 =    -0.2287983176D+00 EUMP2 =    -0.33890393128316D+02
 CCSD(T)
 CCSD(T)= -0.33907153553D+02

 The electronic state is 1-A'.
 Alpha  occ. eigenvalues --   -1.37951  -1.32309  -0.73601  -0.68203  -0.58476
 Alpha  occ. eigenvalues --   -0.52656  -0.52108  -0.46991
 Alpha virt. eigenvalues --    0.17934   0.25250   0.28616   0.39174   0.77107
 Alpha virt. eigenvalues --    0.80353   0.84354   0.86375   0.90482   0.98612
 Alpha virt. eigenvalues --    1.15286   1.19159   1.21533   1.34494   2.49909

 Mulliken charges:
               1
     1  O   -0.781959
     2  H    0.421507
     3  H    0.358487
     4  O   -0.782876
     5  H    0.391599
     6  H    0.393244
 Sum of Mulliken charges =  -0.00000

 Dipole moment (field-independent basis, Debye):
    X=             -1.5139    Y=             -4.4831    Z=              0.0000  Tot=              4.7318
 Quadrupole moment (field-independent basis, Debye-Ang):
   XX=             -9.4055   YY=             -8.1173   ZZ=            -15.0096
   XY=             -5.1350   XZ=              0.0000   YZ=             -0.0000

 6608\MP4DQ=-33.9013831\MP4SDQ=-33.9034739\CCSD=-33.9044753\CCSD(T)=-33
 Normal termination of Gaussian 16 at Sun Dec 10 06:46:56 2023.
