 Gaussian 16, Revision A.03,
 Gaussian 16:  ES64L-G16RevA.03 25-Dec-2016

 ------------------
 #p CCSD(T)/CEP-31G
 ------------------

 ------------
 H2O_H2O_4369
 ------------
 Symbolic Z-matrix:
 Charge =  0 Multiplicity = 1

                         Standard orientation:
 ---------------------------------------------------------------------
 Center     Atomic      Atomic             Coordinates (Angstroms)
 Number     Number       Type             X           Y           Z
 ---------------------------------------------------------------------
      1          8           0        0.030151    2.845266    0.000000
      2          1           0        0.028219    1.862666    0.000000
      3          1           0       -0.898714    3.165759    0.000000
      4          8           0        0.030151   -2.669632   -0.000000
      5          1           0        0.959984   -2.987308   -0.000000
      6          1           0       -0.571907   -3.446183   -0.000000
 ---------------------------------------------------------------------

 SCF Done:  E(RHF) =  -33.6535417733     A.U. after   11 cycles
 E2 =    -0.2282884678D+00 EUMP2 =    -0.33881830241102D+02
 CCSD(T)
 CCSD(T)= -0.33898781465D+02

 The electronic state is 1-A'.
 Alpha  occ. eigenvalues --   -1.36276  -1.34654  -0.71915  -0.70289  -0.56110
 Alpha  occ. eigenvalues --   -0.54448  -0.50873  -0.49255
 Alpha virt. eigenvalues --    0.19570   0.21267   0.29839   0.31548   0.79679
 Alpha virt. eigenvalues --    0.81259   0.82506   0.84246   0.85710   0.87348
 Alpha virt. eigenvalues --    1.16702   1.18330   1.21137   1.22853   2.56660

 Mulliken charges:
               1
     1  O   -0.747954
     2  H    0.378985
     3  H    0.368950
     4  O   -0.747335
     5  H    0.374129
     6  H    0.373224
 Sum of Mulliken charges =  -0.00000

 Dipole moment (field-independent basis, Debye):
    X=             -1.3837    Y=             -4.1212    Z=             -0.0000  Tot=              4.3473
 Quadrupole moment (field-independent basis, Debye-Ang):
   XX=             -9.4750   YY=             -5.6232   ZZ=            -14.9921
   XY=             -8.6514   XZ=             -0.0000   YZ=              0.0000

 11\MP4DQ=-33.8931494\MP4SDQ=-33.8951729\CCSD=-33.8962246\CCSD(T)=-33.8
 Normal termination of Gaussian 16 at Sun Dec 10 06:51:38 2023.
