 Gaussian 16, Revision A.03,
 Gaussian 16:  ES64L-G16RevA.03 25-Dec-2016

 ------------------
 #p CCSD(T)/CEP-31G
 ------------------

 -----------
 H2O_H2O_431
 -----------
 Symbolic Z-matrix:
 Charge =  0 Multiplicity = 1

                         Standard orientation:
 ---------------------------------------------------------------------
 Center     Atomic      Atomic             Coordinates (Angstroms)
 Number     Number       Type             X           Y           Z
 ---------------------------------------------------------------------
      1          8           0        0.076804   -1.272877    0.000000
      2          1           0        0.075650   -0.290276    0.000000
      3          1           0       -0.852315   -1.592634    0.000000
      4          8           0        0.076804    1.109754    0.000000
      5          1           0        0.451764    2.018000    0.000000
      6          1           0       -0.903956    1.169895    0.000000
 ---------------------------------------------------------------------

 SCF Done:  E(RHF) =  -33.6404670229     A.U. after   11 cycles
 E2 =    -0.2286609601D+00 EUMP2 =    -0.33869127982976D+02
 CCSD(T)
 CCSD(T)= -0.33884965623D+02

 The electronic state is 1-A'.
 Alpha  occ. eigenvalues --   -1.42022  -1.29954  -0.78581  -0.70773  -0.58109
 Alpha  occ. eigenvalues --   -0.56134  -0.48631  -0.44274
 Alpha virt. eigenvalues --    0.16533   0.25347   0.28496   0.55060   0.73624
 Alpha virt. eigenvalues --    0.75629   0.86188   0.89144   0.96652   1.07754
 Alpha virt. eigenvalues --    1.14773   1.23572   1.25038   1.36387   2.77073

 Mulliken charges:
               1
     1  O   -0.734419
     2  H    0.375098
     3  H    0.322092
     4  O   -0.827626
     5  H    0.471064
     6  H    0.393792
 Sum of Mulliken charges =   0.00000

 Dipole moment (field-independent basis, Debye):
    X=             -3.2219    Y=              4.8063    Z=              0.0000  Tot=              5.7863
 Quadrupole moment (field-independent basis, Debye-Ang):
   XX=            -10.3336   YY=             -9.7558   ZZ=            -14.9819
   XY=              3.1296   XZ=              0.0000   YZ=              0.0000

 \MP4DQ=-33.8788411\MP4SDQ=-33.8811527\CCSD=-33.8819526\CCSD(T)=-33.884
 Normal termination of Gaussian 16 at Sun Dec 10 06:26:32 2023.
