 Gaussian 16, Revision A.03,
 Gaussian 16:  ES64L-G16RevA.03 25-Dec-2016

 ------------------
 #p CCSD(T)/CEP-31G
 ------------------

 ------------
 H2O_H2O_1430
 ------------
 Symbolic Z-matrix:
 Charge =  0 Multiplicity = 1

                         Standard orientation:
 ---------------------------------------------------------------------
 Center     Atomic      Atomic             Coordinates (Angstroms)
 Number     Number       Type             X           Y           Z
 ---------------------------------------------------------------------
      1          8           0        0.079869   -1.669527    0.000000
      2          1           0        0.079170   -0.686926    0.000000
      3          1           0       -0.849397   -1.988854    0.000000
      4          8           0        0.079869    1.510499    0.000000
      5          1           0        0.395053    2.441180    0.000000
      6          1           0       -0.902726    1.506821    0.000000
 ---------------------------------------------------------------------

 SCF Done:  E(RHF) =  -33.6569404880     A.U. after   11 cycles
 E2 =    -0.2289477008D+00 EUMP2 =    -0.33885888188785D+02
 CCSD(T)
 CCSD(T)= -0.33902829184D+02

 The electronic state is 1-A'.
 Alpha  occ. eigenvalues --   -1.38178  -1.33068  -0.74009  -0.68747  -0.58341
 Alpha  occ. eigenvalues --   -0.52784  -0.52739  -0.47653
 Alpha virt. eigenvalues --    0.17221   0.24852   0.28192   0.38651   0.76816
 Alpha virt. eigenvalues --    0.80695   0.84012   0.85171   0.90475   1.05457
 Alpha virt. eigenvalues --    1.15079   1.17906   1.21486   1.38331   2.50334

 Mulliken charges:
               1
     1  O   -0.764155
     2  H    0.409272
     3  H    0.351252
     4  O   -0.773989
     5  H    0.404457
     6  H    0.373164
 Sum of Mulliken charges =  -0.00000

 Dipole moment (field-independent basis, Debye):
    X=             -3.5691    Y=              4.0632    Z=              0.0000  Tot=              5.4082
 Quadrupole moment (field-independent basis, Debye-Ang):
   XX=            -10.5075   YY=             -8.6406   ZZ=            -14.9984
   XY=              3.2825   XZ=              0.0000   YZ=              0.0000

 2798\MP4DQ=-33.8969909\MP4SDQ=-33.8991318\CCSD=-33.9001383\CCSD(T)=-33
 Normal termination of Gaussian 16 at Sun Dec 10 06:45:41 2023.
