 Gaussian 16, Revision A.03,
 Gaussian 16:  ES64L-G16RevA.03 25-Dec-2016

 ------------------
 #p CCSD(T)/CEP-31G
 ------------------

 ------------
 H2O_H2O_4032
 ------------
 Symbolic Z-matrix:
 Charge =  0 Multiplicity = 1

                         Standard orientation:
 ---------------------------------------------------------------------
 Center     Atomic      Atomic             Coordinates (Angstroms)
 Number     Number       Type             X           Y           Z
 ---------------------------------------------------------------------
      1          8           0        0.073527    2.710913    0.000000
      2          1           0        0.072900    1.728312    0.000000
      3          1           0       -0.855762    3.030173   -0.000000
      4          8           0        0.073527   -2.543957    0.000000
      5          1           0        0.507559   -3.425502    0.000000
      6          1           0       -0.901133   -2.668635   -0.000000
 ---------------------------------------------------------------------

 SCF Done:  E(RHF) =  -33.6530327021     A.U. after   11 cycles
 E2 =    -0.2283204043D+00 EUMP2 =    -0.33881353106325D+02
 CCSD(T)
 CCSD(T)= -0.33898318362D+02

 The electronic state is 1-A'.
 Alpha  occ. eigenvalues --   -1.36382  -1.34696  -0.72029  -0.70314  -0.56192
 Alpha  occ. eigenvalues --   -0.54462  -0.50971  -0.49283
 Alpha virt. eigenvalues --    0.19369   0.21250   0.29690   0.31499   0.79591
 Alpha virt. eigenvalues --    0.81237   0.82434   0.84250   0.85588   0.87434
 Alpha virt. eigenvalues --    1.16571   1.18279   1.20993   1.22928   2.56531

 Mulliken charges:
               1
     1  O   -0.746024
     2  H    0.379426
     3  H    0.366550
     4  O   -0.745909
     5  H    0.375681
     6  H    0.370276
 Sum of Mulliken charges =  -0.00000

 Dipole moment (field-independent basis, Debye):
    X=             -3.3746    Y=             -3.9321    Z=             -0.0000  Tot=              5.1817
 Quadrupole moment (field-independent basis, Debye-Ang):
   XX=            -10.1674   YY=             -6.6148   ZZ=            -14.9909
   XY=             -4.5766   XZ=              0.0000   YZ=             -0.0000

 357\MP4DQ=-33.8926814\MP4SDQ=-33.894707\CCSD=-33.8957588\CCSD(T)=-33.8
 Normal termination of Gaussian 16 at Sun Dec 10 06:45:34 2023.
