 Gaussian 16, Revision A.03,
 Gaussian 16:  ES64L-G16RevA.03 25-Dec-2016

 ------------------
 #p CCSD(T)/CEP-31G
 ------------------

 ------------
 H2O_H2O_4747
 ------------
 Symbolic Z-matrix:
 Charge =  0 Multiplicity = 1

                         Standard orientation:
 ---------------------------------------------------------------------
 Center     Atomic      Atomic             Coordinates (Angstroms)
 Number     Number       Type             X           Y           Z
 ---------------------------------------------------------------------
      1          8           0       -0.019810    2.990226    0.000000
      2          1           0       -0.017676    2.007627    0.000000
      3          1           0        0.908989    3.310910    0.000000
      4          8           0       -0.019810   -2.823098    0.000000
      5          1           0       -0.993724   -2.953469    0.000000
      6          1           0        0.419364   -3.702094    0.000000
 ---------------------------------------------------------------------

 SCF Done:  E(RHF) =  -33.6532506108     A.U. after   11 cycles
 E2 =    -0.2282964479D+00 EUMP2 =    -0.33881547058694D+02
 CCSD(T)
 CCSD(T)= -0.33898507061D+02

 The electronic state is 1-A'.
 Alpha  occ. eigenvalues --   -1.36205  -1.34834  -0.71845  -0.70472  -0.56021
 Alpha  occ. eigenvalues --   -0.54621  -0.50798  -0.49431
 Alpha virt. eigenvalues --    0.19640   0.21050   0.29897   0.31325   0.79752
 Alpha virt. eigenvalues --    0.81090   0.82628   0.84076   0.85790   0.87169
 Alpha virt. eigenvalues --    1.16761   1.18135   1.21203   1.22618   2.56731

 Mulliken charges:
               1
     1  O   -0.746803
     2  H    0.376941
     3  H    0.369858
     4  O   -0.746420
     5  H    0.373192
     6  H    0.373232
 Sum of Mulliken charges =  -0.00000

 Dipole moment (field-independent basis, Debye):
    X=              0.9102    Y=             -3.9117    Z=              0.0000  Tot=              4.0162
 Quadrupole moment (field-independent basis, Debye-Ang):
   XX=             -9.6811   YY=             -6.1118   ZZ=            -14.9915
   XY=             10.1358   XZ=              0.0000   YZ=              0.0000

 126\MP4DQ=-33.8928731\MP4SDQ=-33.894897\CCSD=-33.8959497\CCSD(T)=-33.8
 Normal termination of Gaussian 16 at Sun Dec 10 06:58:27 2023.
