 Gaussian 16, Revision A.03,
 Gaussian 16:  ES64L-G16RevA.03 25-Dec-2016

 ------------------
 #p CCSD(T)/CEP-31G
 ------------------

 ------------
 H2O_H2O_1003
 ------------
 Symbolic Z-matrix:
 Charge =  0 Multiplicity = 1

                         Standard orientation:
 ---------------------------------------------------------------------
 Center     Atomic      Atomic             Coordinates (Angstroms)
 Number     Number       Type             X           Y           Z
 ---------------------------------------------------------------------
      1          8           0        0.085613   -1.494865    0.000000
      2          1           0        0.085174   -0.512264    0.000000
      3          1           0       -0.843737   -1.813947    0.000000
      4          8           0        0.085613    1.345297    0.000000
      5          1           0        0.276879    2.309104    0.000000
      6          1           0       -0.888129    1.213654    0.000000
 ---------------------------------------------------------------------

 SCF Done:  E(RHF) =  -33.6537692249     A.U. after   11 cycles
 E2 =    -0.2290957942D+00 EUMP2 =    -0.33882865019045D+02
 CCSD(T)
 CCSD(T)= -0.33899727224D+02

 The electronic state is 1-A'.
 Alpha  occ. eigenvalues --   -1.39214  -1.32671  -0.75480  -0.68568  -0.59040
 Alpha  occ. eigenvalues --   -0.53713  -0.52148  -0.47179
 Alpha virt. eigenvalues --    0.16799   0.25477   0.27612   0.43482   0.75239
 Alpha virt. eigenvalues --    0.79044   0.84972   0.85602   0.92090   1.11664
 Alpha virt. eigenvalues --    1.15548   1.22656   1.24438   1.37721   2.51893

 Mulliken charges:
               1
     1  O   -0.750747
     2  H    0.395143
     3  H    0.343649
     4  O   -0.785337
     5  H    0.425004
     6  H    0.372287
 Sum of Mulliken charges =  -0.00000

 Dipole moment (field-independent basis, Debye):
    X=             -3.7771    Y=              4.0068    Z=              0.0000  Tot=              5.5064
 Quadrupole moment (field-independent basis, Debye-Ang):
   XX=            -10.8633   YY=             -9.1828   ZZ=            -14.9957
   XY=              2.8203   XZ=              0.0000   YZ=              0.0000

 6\MP4DQ=-33.8937614\MP4SDQ=-33.8959818\CCSD=-33.8969445\CCSD(T)=-33.89
 Normal termination of Gaussian 16 at Sun Dec 10 06:37:22 2023.
