 Gaussian 16, Revision A.03,
 Gaussian 16:  ES64L-G16RevA.03 25-Dec-2016

 ------------------
 #p CCSD(T)/CEP-31G
 ------------------

 -----------
 H2O_H2O_689
 -----------
 Symbolic Z-matrix:
 Charge =  0 Multiplicity = 1

                         Standard orientation:
 ---------------------------------------------------------------------
 Center     Atomic      Atomic             Coordinates (Angstroms)
 Number     Number       Type             X           Y           Z
 ---------------------------------------------------------------------
      1          8           0        0.048697    1.381914    0.000000
      2          1           0        0.045782    0.399317    0.000000
      3          1           0       -0.879846    1.703337    0.000000
      4          8           0        0.048697   -1.201649   -0.000000
      5          1           0        0.826470   -1.802129   -0.000000
      6          1           0       -0.771566   -1.742643   -0.000000
 ---------------------------------------------------------------------

 SCF Done:  E(RHF) =  -33.6596983537     A.U. after   11 cycles
 E2 =    -0.2290793121D+00 EUMP2 =    -0.33888777665858D+02
 CCSD(T)
 CCSD(T)= -0.33904735202D+02

 The electronic state is 1-A'.
 Alpha  occ. eigenvalues --   -1.40153  -1.29995  -0.75509  -0.69877  -0.58929
 Alpha  occ. eigenvalues --   -0.54841  -0.49127  -0.44536
 Alpha virt. eigenvalues --    0.17258   0.27224   0.27679   0.51300   0.74443
 Alpha virt. eigenvalues --    0.75073   0.85296   0.88283   0.97360   0.99432
 Alpha virt. eigenvalues --    1.14705   1.18312   1.23661   1.36898   2.61858

 Mulliken charges:
               1
     1  O   -0.779946
     2  H    0.432922
     3  H    0.337008
     4  O   -0.828589
     5  H    0.426644
     6  H    0.411961
 Sum of Mulliken charges =   0.00000

 Dipole moment (field-independent basis, Debye):
    X=             -2.0884    Y=             -4.9427    Z=             -0.0000  Tot=              5.3658
 Quadrupole moment (field-independent basis, Debye-Ang):
   XX=             -9.3939   YY=             -9.3709   ZZ=            -15.0169
   XY=             -3.9301   XZ=             -0.0000   YZ=              0.0000

 597\MP4DQ=-33.8988062\MP4SDQ=-33.9009624\CCSD=-33.9018106\CCSD(T)=-33.
 Normal termination of Gaussian 16 at Sun Dec 10 06:31:29 2023.
