 Gaussian 16, Revision A.03,
 Gaussian 16:  ES64L-G16RevA.03 25-Dec-2016

 ------------------
 #p CCSD(T)/CEP-31G
 ------------------

 -----------
 H2O_H2O_718
 -----------
 Symbolic Z-matrix:
 Charge =  0 Multiplicity = 1

                         Standard orientation:
 ---------------------------------------------------------------------
 Center     Atomic      Atomic             Coordinates (Angstroms)
 Number     Number       Type             X           Y           Z
 ---------------------------------------------------------------------
      1          8           0        0.033938    1.390339   -0.000000
      2          1           0        0.030081    0.407746   -0.000000
      3          1           0       -0.894296    1.712653   -0.000000
      4          8           0        0.033938   -1.212929    0.000000
      5          1           0        0.940261   -1.592516    0.000000
      6          1           0       -0.619061   -1.947163    0.000000
 ---------------------------------------------------------------------

 SCF Done:  E(RHF) =  -33.6605799693     A.U. after   11 cycles
 E2 =    -0.2288765449D+00 EUMP2 =    -0.33889456514287D+02
 CCSD(T)
 CCSD(T)= -0.33905482814D+02

 The electronic state is 1-A'.
 Alpha  occ. eigenvalues --   -1.39998  -1.30108  -0.75528  -0.69424  -0.59158
 Alpha  occ. eigenvalues --   -0.54688  -0.49301  -0.44692
 Alpha virt. eigenvalues --    0.17395   0.27323   0.27610   0.50660   0.74535
 Alpha virt. eigenvalues --    0.75499   0.85929   0.88110   0.95625   1.00652
 Alpha virt. eigenvalues --    1.15769   1.18430   1.24143   1.37244   2.60764

 Mulliken charges:
               1
     1  O   -0.782469
     2  H    0.427571
     3  H    0.343541
     4  O   -0.829440
     5  H    0.414406
     6  H    0.426391
 Sum of Mulliken charges =  -0.00000

 Dipole moment (field-independent basis, Debye):
    X=             -1.4853    Y=             -4.8573    Z=              0.0000  Tot=              5.0793
 Quadrupole moment (field-independent basis, Debye-Ang):
   XX=             -9.3619   YY=             -9.2903   ZZ=            -15.0184
   XY=             -4.1909   XZ=              0.0000   YZ=             -0.0000

 3\MP4DQ=-33.8995741\MP4SDQ=-33.9017198\CCSD=-33.9025849\CCSD(T)=-33.90
 Normal termination of Gaussian 16 at Sun Dec 10 06:32:01 2023.
