 Gaussian 16, Revision A.03,
 Gaussian 16:  ES64L-G16RevA.03 25-Dec-2016

 ------------------
 #p CCSD(T)/CEP-31G
 ------------------

 ------------
 H2O_H2O_4514
 ------------
 Symbolic Z-matrix:
 Charge =  0 Multiplicity = 1

                         Standard orientation:
 ---------------------------------------------------------------------
 Center     Atomic      Atomic             Coordinates (Angstroms)
 Number     Number       Type             X           Y           Z
 ---------------------------------------------------------------------
      1          8           0        0.048553    2.907695    0.000000
      2          1           0        0.047216    1.925095    0.000000
      3          1           0       -0.880506    3.227626    0.000000
      4          8           0        0.048553   -2.727274   -0.000000
      5          1           0        0.827289   -3.326504   -0.000000
      6          1           0       -0.770840   -3.269584   -0.000000
 ---------------------------------------------------------------------

 SCF Done:  E(RHF) =  -33.6532847994     A.U. after   11 cycles
 E2 =    -0.2283017105D+00 EUMP2 =    -0.33881586509866D+02
 CCSD(T)
 CCSD(T)= -0.33898544356D+02

 The electronic state is 1-A'.
 Alpha  occ. eigenvalues --   -1.36255  -1.34663  -0.71894  -0.70292  -0.56075
 Alpha  occ. eigenvalues --   -0.54445  -0.50848  -0.49258
 Alpha virt. eigenvalues --    0.19586   0.21241   0.29847   0.31521   0.79705
 Alpha virt. eigenvalues --    0.81260   0.82559   0.84253   0.85748   0.87371
 Alpha virt. eigenvalues --    1.16712   1.18305   1.21155   1.22813   2.56682

 Mulliken charges:
               1
     1  O   -0.746960
     2  H    0.378854
     3  H    0.368095
     4  O   -0.746434
     5  H    0.374413
     6  H    0.372033
 Sum of Mulliken charges =   0.00000

 Dipole moment (field-independent basis, Debye):
    X=             -2.2301    Y=             -4.2315    Z=             -0.0000  Tot=              4.7832
 Quadrupole moment (field-independent basis, Debye-Ang):
   XX=             -9.4625   YY=             -5.0944   ZZ=            -14.9916
   XY=             -7.1508   XZ=             -0.0000   YZ=              0.0000

 637\MP4DQ=-33.8929108\MP4SDQ=-33.8949348\CCSD=-33.895987\CCSD(T)=-33.8
 Normal termination of Gaussian 16 at Sun Dec 10 06:54:15 2023.
