 Gaussian 16, Revision A.03,
 Gaussian 16:  ES64L-G16RevA.03 25-Dec-2016

 ------------------
 #p CCSD(T)/CEP-31G
 ------------------

 ------------
 H2O_H2O_1776
 ------------
 Symbolic Z-matrix:
 Charge =  0 Multiplicity = 1

                         Standard orientation:
 ---------------------------------------------------------------------
 Center     Atomic      Atomic             Coordinates (Angstroms)
 Number     Number       Type             X           Y           Z
 ---------------------------------------------------------------------
      1          8           0        0.090686   -1.798093    0.000000
      2          1           0        0.090575   -0.815491    0.000000
      3          1           0       -0.838770   -2.116864    0.000000
      4          8           0        0.090686    1.659389    0.000000
      5          1           0        0.154841    2.639894    0.000000
      6          1           0       -0.857629    1.402089    0.000000
 ---------------------------------------------------------------------

 SCF Done:  E(RHF) =  -33.6535819301     A.U. after   11 cycles
 E2 =    -0.2289231465D+00 EUMP2 =    -0.33882505076542D+02
 CCSD(T)
 CCSD(T)= -0.33899556016D+02

 The electronic state is 1-A'.
 Alpha  occ. eigenvalues --   -1.37744  -1.34201  -0.73590  -0.69697  -0.57646
 Alpha  occ. eigenvalues --   -0.53886  -0.52308  -0.48757
 Alpha virt. eigenvalues --    0.16696   0.23916   0.28477   0.35230   0.77694
 Alpha virt. eigenvalues --    0.82092   0.82472   0.84625   0.88347   0.98240
 Alpha virt. eigenvalues --    1.15325   1.17961   1.21160   1.38682   2.52907

 Mulliken charges:
               1
     1  O   -0.751779
     2  H    0.392068
     3  H    0.356581
     4  O   -0.753256
     5  H    0.391388
     6  H    0.364998
 Sum of Mulliken charges =  -0.00000

 Dipole moment (field-independent basis, Debye):
    X=             -4.0972    Y=              3.4624    Z=              0.0000  Tot=              5.3643
 Quadrupole moment (field-independent basis, Debye-Ang):
   XX=            -11.1668   YY=             -9.2806   ZZ=            -14.9890
   XY=              2.5003   XZ=              0.0000   YZ=              0.0000

 67\MP4DQ=-33.8937574\MP4SDQ=-33.8958841\CCSD=-33.8969024\CCSD(T)=-33.8
 Normal termination of Gaussian 16 at Sun Dec 10 06:52:25 2023.
