 Gaussian 16, Revision A.03,
 Gaussian 16:  ES64L-G16RevA.03 25-Dec-2016

 ------------------
 #p CCSD(T)/CEP-31G
 ------------------

 ------------
 H2O_H2O_2235
 ------------
 Symbolic Z-matrix:
 Charge =  0 Multiplicity = 1

                         Standard orientation:
 ---------------------------------------------------------------------
 Center     Atomic      Atomic             Coordinates (Angstroms)
 Number     Number       Type             X           Y           Z
 ---------------------------------------------------------------------
      1          8           0        0.063255    1.997567   -0.000000
      2          1           0        0.061934    1.014967   -0.000000
      3          1           0       -0.865809    2.317483    0.000000
      4          8           0        0.063255   -1.822086   -0.000000
      5          1           0        0.660377   -2.602440   -0.000000
      6          1           0       -0.868574   -2.133858    0.000000
 ---------------------------------------------------------------------

 SCF Done:  E(RHF) =  -33.6566617624     A.U. after   11 cycles
 E2 =    -0.2285333249D+00 EUMP2 =    -0.33885195087296D+02
 CCSD(T)
 CCSD(T)= -0.33902105110D+02

 The electronic state is 1-A'.
 Alpha  occ. eigenvalues --   -1.37208  -1.33513  -0.72871  -0.69120  -0.57274
 Alpha  occ. eigenvalues --   -0.53324  -0.51843  -0.48138
 Alpha virt. eigenvalues --    0.18103   0.23374   0.29061   0.33971   0.78609
 Alpha virt. eigenvalues --    0.82469   0.83494   0.85340   0.87783   0.88726
 Alpha virt. eigenvalues --    1.15815   1.19949   1.20343   1.31567   2.53216

 Mulliken charges:
               1
     1  O   -0.761726
     2  H    0.399334
     3  H    0.360336
     4  O   -0.757561
     5  H    0.384784
     6  H    0.374832
 Sum of Mulliken charges =  -0.00000

 Dipole moment (field-independent basis, Debye):
    X=             -2.8645    Y=             -4.2875    Z=              0.0000  Tot=              5.1564
 Quadrupole moment (field-independent basis, Debye-Ang):
   XX=             -9.7778   YY=             -7.4094   ZZ=            -14.9979
   XY=             -4.5312   XZ=             -0.0000   YZ=              0.0000

 6614\MP4DQ=-33.8964087\MP4SDQ=-33.8984779\CCSD=-33.899506\CCSD(T)=-33.
 Normal termination of Gaussian 16 at Sun Dec 10 07:01:39 2023.
