 Gaussian 16, Revision A.03,
 Gaussian 16:  ES64L-G16RevA.03 25-Dec-2016

 ------------------
 #p CCSD(T)/CEP-31G
 ------------------

 ------------
 H2O_H2O_4141
 ------------
 Symbolic Z-matrix:
 Charge =  0 Multiplicity = 1

                         Standard orientation:
 ---------------------------------------------------------------------
 Center     Atomic      Atomic             Coordinates (Angstroms)
 Number     Number       Type             X           Y           Z
 ---------------------------------------------------------------------
      1          8           0        0.041114    2.757861    0.000000
      2          1           0        0.039465    1.775261    0.000000
      3          1           0       -0.887843    3.078086    0.000000
      4          8           0        0.041114   -2.577912   -0.000000
      5          1           0        0.891246   -3.070639   -0.000000
      6          1           0       -0.700688   -3.222300   -0.000000
 ---------------------------------------------------------------------

 SCF Done:  E(RHF) =  -33.6536811174     A.U. after   11 cycles
 E2 =    -0.2282886007D+00 EUMP2 =    -0.33881969718092D+02
 CCSD(T)
 CCSD(T)= -0.33898916425D+02

 The electronic state is 1-A'.
 Alpha  occ. eigenvalues --   -1.36329  -1.34542  -0.71969  -0.70172  -0.56173
 Alpha  occ. eigenvalues --   -0.54336  -0.50929  -0.49143
 Alpha virt. eigenvalues --    0.19506   0.21406   0.29794   0.31681   0.79626
 Alpha virt. eigenvalues --    0.81366   0.82421   0.84364   0.85653   0.87474
 Alpha virt. eigenvalues --    1.16654   1.18455   1.21092   1.23018   2.56610

 Mulliken charges:
               1
     1  O   -0.748502
     2  H    0.380426
     3  H    0.368033
     4  O   -0.747753
     5  H    0.374907
     6  H    0.372888
 Sum of Mulliken charges =  -0.00000

 Dipole moment (field-independent basis, Debye):
    X=             -1.8855    Y=             -4.2310    Z=             -0.0000  Tot=              4.6321
 Quadrupole moment (field-independent basis, Debye-Ang):
   XX=             -9.4125   YY=             -5.4668   ZZ=            -14.9924
   XY=             -7.4617   XZ=             -0.0000   YZ=              0.0000

 361\MP4DQ=-33.8932849\MP4SDQ=-33.8953086\CCSD=-33.8963594\CCSD(T)=-33.
 Normal termination of Gaussian 16 at Sun Dec 10 06:47:32 2023.
