 Gaussian 16, Revision A.03,
 Gaussian 16:  ES64L-G16RevA.03 25-Dec-2016

 ------------------
 #p CCSD(T)/CEP-31G
 ------------------

 ------------
 H2O_H2O_2455
 ------------
 Symbolic Z-matrix:
 Charge =  0 Multiplicity = 1

                         Standard orientation:
 ---------------------------------------------------------------------
 Center     Atomic      Atomic             Coordinates (Angstroms)
 Number     Number       Type             X           Y           Z
 ---------------------------------------------------------------------
      1          8           0        0.079857    2.078388   -0.000000
      2          1           0        0.079301    1.095786   -0.000000
      3          1           0       -0.849455    2.397580   -0.000000
      4          8           0        0.079857   -1.919337    0.000000
      5          1           0        0.395178   -2.849970    0.000000
      6          1           0       -0.902738   -1.915801    0.000000
 ---------------------------------------------------------------------

 SCF Done:  E(RHF) =  -33.6545135162     A.U. after   11 cycles
 E2 =    -0.2285135471D+00 EUMP2 =    -0.33883027063308D+02
 CCSD(T)
 CCSD(T)= -0.33899986864D+02

 The electronic state is 1-A'.
 Alpha  occ. eigenvalues --   -1.37079  -1.34126  -0.72762  -0.69710  -0.56991
 Alpha  occ. eigenvalues --   -0.53892  -0.51680  -0.48720
 Alpha virt. eigenvalues --    0.17731   0.22810   0.29069   0.32805   0.78839
 Alpha virt. eigenvalues --    0.81860   0.83138   0.84816   0.86985   0.88270
 Alpha virt. eigenvalues --    1.15752   1.19354   1.20436   1.30675   2.54977

 Mulliken charges:
               1
     1  O   -0.752934
     2  H    0.390328
     3  H    0.361146
     4  O   -0.751378
     5  H    0.382768
     6  H    0.370070
 Sum of Mulliken charges =  -0.00000

 Dipole moment (field-independent basis, Debye):
    X=             -3.6336    Y=             -3.8574    Z=              0.0000  Tot=              5.2993
 Quadrupole moment (field-independent basis, Debye-Ang):
   XX=            -10.4897   YY=             -8.0446   ZZ=            -14.9929
   XY=             -3.5356   XZ=              0.0000   YZ=             -0.0000

 44\MP4DQ=-33.8942988\MP4SDQ=-33.8963624\CCSD=-33.8973959\CCSD(T)=-33.8
 Normal termination of Gaussian 16 at Sun Dec 10 07:06:39 2023.
