 Gaussian 16, Revision A.03,
 Gaussian 16:  ES64L-G16RevA.03 25-Dec-2016

 ------------------
 #p CCSD(T)/CEP-31G
 ------------------

 ------------
 H2O_H2O_4865
 ------------
 Symbolic Z-matrix:
 Charge =  0 Multiplicity = 1

                         Standard orientation:
 ---------------------------------------------------------------------
 Center     Atomic      Atomic             Coordinates (Angstroms)
 Number     Number       Type             X           Y           Z
 ---------------------------------------------------------------------
      1          8           0        0.044819    3.047312    0.000000
      2          1           0        0.043439    2.064711    0.000000
      3          1           0       -0.884225    3.367284    0.000000
      4          8           0        0.044819   -2.866873   -0.000000
      5          1           0        0.861055   -3.413925   -0.000000
      6          1           0       -0.737377   -3.461578   -0.000000
 ---------------------------------------------------------------------

 SCF Done:  E(RHF) =  -33.6531040786     A.U. after   10 cycles
 E2 =    -0.2283077128D+00 EUMP2 =    -0.33881411791440D+02
 CCSD(T)
 CCSD(T)= -0.33898374867D+02

 The electronic state is 1-A'.
 Alpha  occ. eigenvalues --   -1.36191  -1.34754  -0.71830  -0.70385  -0.56001
 Alpha  occ. eigenvalues --   -0.54532  -0.50783  -0.49347
 Alpha virt. eigenvalues --    0.19649   0.21126   0.29901   0.31403   0.79768
 Alpha virt. eigenvalues --    0.81175   0.82655   0.84166   0.85825   0.87280
 Alpha virt. eigenvalues --    1.16767   1.18204   1.21213   1.22691   2.56747

 Mulliken charges:
               1
     1  O   -0.746241
     2  H    0.377637
     3  H    0.368601
     4  O   -0.745797
     5  H    0.373826
     6  H    0.371974
 Sum of Mulliken charges =   0.00000

 Dipole moment (field-independent basis, Debye):
    X=             -2.0605    Y=             -4.2234    Z=             -0.0000  Tot=              4.6992
 Quadrupole moment (field-independent basis, Debye-Ang):
   XX=             -9.4291   YY=             -4.7737   ZZ=            -14.9913
   XY=             -7.7988   XZ=             -0.0000   YZ=              0.0000

 938\MP4DQ=-33.8927403\MP4SDQ=-33.8947645\CCSD=-33.8958174\CCSD(T)=-33.
 Normal termination of Gaussian 16 at Sun Dec 10 07:00:49 2023.
