 Gaussian 16, Revision A.03,
 Gaussian 16:  ES64L-G16RevA.03 25-Dec-2016

 ------------------
 #p CCSD(T)/CEP-31G
 ------------------

 -----------
 H2O_H2O_201
 -----------
 Symbolic Z-matrix:
 Charge =  0 Multiplicity = 1

                         Standard orientation:
 ---------------------------------------------------------------------
 Center     Atomic      Atomic             Coordinates (Angstroms)
 Number     Number       Type             X           Y           Z
 ---------------------------------------------------------------------
      1          8           0        0.090691   -1.169855    0.000000
      2          1           0        0.090516   -0.187254    0.000000
      3          1           0       -0.838745   -1.488687    0.000000
      4          8           0        0.090691    1.031163    0.000000
      5          1           0        0.154782    2.011672    0.000000
      6          1           0       -0.857608    0.773803    0.000000
 ---------------------------------------------------------------------

 SCF Done:  E(RHF) =  -33.5962102219     A.U. after   11 cycles
 E2 =    -0.2286454762D+00 EUMP2 =    -0.33824855698072D+02
 CCSD(T)
 CCSD(T)= -0.33840551591D+02

 The electronic state is 1-A'.
 Alpha  occ. eigenvalues --   -1.45290  -1.30179  -0.83574  -0.70390  -0.57793
 Alpha  occ. eigenvalues --   -0.57521  -0.48423  -0.44300
 Alpha virt. eigenvalues --    0.16082   0.23344   0.29416   0.58226   0.73002
 Alpha virt. eigenvalues --    0.76265   0.88484   0.89570   0.95892   1.10674
 Alpha virt. eigenvalues --    1.12050   1.22846   1.26231   1.48437   2.87835

 Mulliken charges:
               1
     1  O   -0.669173
     2  H    0.238047
     3  H    0.311785
     4  O   -0.743110
     5  H    0.483973
     6  H    0.378479
 Sum of Mulliken charges =  -0.00000

 Dipole moment (field-independent basis, Debye):
    X=             -3.7973    Y=              4.5149    Z=              0.0000  Tot=              5.8995
 Quadrupole moment (field-independent basis, Debye-Ang):
   XX=            -11.1875   YY=            -10.3288   ZZ=            -14.9132
   XY=              2.2684   XZ=              0.0000   YZ=              0.0000

 56\MP4DQ=-33.8341282\MP4SDQ=-33.8366716\CCSD=-33.8373557\CCSD(T)=-33.8
 Normal termination of Gaussian 16 at Sun Dec 10 06:22:00 2023.
