 Gaussian 16, Revision A.03,
 Gaussian 16:  ES64L-G16RevA.03 25-Dec-2016

 ------------------
 #p CCSD(T)/CEP-31G
 ------------------

 -----------
 H2O_H2O_593
 -----------
 Symbolic Z-matrix:
 Charge =  0 Multiplicity = 1

                         Standard orientation:
 ---------------------------------------------------------------------
 Center     Atomic      Atomic             Coordinates (Angstroms)
 Number     Number       Type             X           Y           Z
 ---------------------------------------------------------------------
      1          8           0        0.033952    1.340475    0.000000
      2          1           0        0.029941    0.357882    0.000000
      3          1           0       -0.894232    1.662933    0.000000
      4          8           0        0.033952   -1.163075   -0.000000
      5          1           0        0.940216   -1.542803   -0.000000
      6          1           0       -0.619161   -1.897207   -0.000000
 ---------------------------------------------------------------------

 SCF Done:  E(RHF) =  -33.6571460031     A.U. after   11 cycles
 E2 =    -0.2287554517D+00 EUMP2 =    -0.33885901454877D+02
 CCSD(T)
 CCSD(T)= -0.33901681039D+02

 The electronic state is 1-A'.
 Alpha  occ. eigenvalues --   -1.40643  -1.29564  -0.76101  -0.70462  -0.58742
 Alpha  occ. eigenvalues --   -0.55260  -0.48515  -0.44090
 Alpha virt. eigenvalues --    0.17257   0.26998   0.28069   0.53225   0.74176
 Alpha virt. eigenvalues --    0.74843   0.86027   0.88850   0.95692   1.00275
 Alpha virt. eigenvalues --    1.15700   1.18456   1.24773   1.37274   2.65913

 Mulliken charges:
               1
     1  O   -0.778380
     2  H    0.419947
     3  H    0.339199
     4  O   -0.834658
     5  H    0.420015
     6  H    0.433877
 Sum of Mulliken charges =   0.00000

 Dipole moment (field-independent basis, Debye):
    X=             -1.4763    Y=             -4.9671    Z=             -0.0000  Tot=              5.1818
 Quadrupole moment (field-independent basis, Debye-Ang):
   XX=             -9.3502   YY=             -9.5360   ZZ=            -15.0141
   XY=             -4.0318   XZ=             -0.0000   YZ=              0.0000

 \MP4DQ=-33.8957378\MP4SDQ=-33.8979031\CCSD=-33.8987256\CCSD(T)=-33.901
 Normal termination of Gaussian 16 at Sun Dec 10 06:29:41 2023.
