 Gaussian 16, Revision A.03,
 Gaussian 16:  ES64L-G16RevA.03 25-Dec-2016

 ------------------
 #p CCSD(T)/CEP-31G
 ------------------

 ------------
 H2O_H2O_4721
 ------------
 Symbolic Z-matrix:
 Charge =  0 Multiplicity = 1

                         Standard orientation:
 ---------------------------------------------------------------------
 Center     Atomic      Atomic             Coordinates (Angstroms)
 Number     Number       Type             X           Y           Z
 ---------------------------------------------------------------------
      1          8           0       -0.023160    2.982038    0.000000
      2          1           0       -0.021117    1.999439    0.000000
      3          1           0        0.905669    3.302637    0.000000
      4          8           0       -0.023160   -2.811625    0.000000
      5          1           0       -0.986481   -3.005323    0.000000
      6          1           0        0.472484   -3.660060    0.000000
 ---------------------------------------------------------------------

 SCF Done:  E(RHF) =  -33.6532799495     A.U. after   11 cycles
 E2 =    -0.2282961474D+00 EUMP2 =    -0.33881576096873D+02
 CCSD(T)
 CCSD(T)= -0.33898535054D+02

 The electronic state is 1-A'.
 Alpha  occ. eigenvalues --   -1.36209  -1.34798  -0.71849  -0.70435  -0.56027
 Alpha  occ. eigenvalues --   -0.54586  -0.50803  -0.49396
 Alpha virt. eigenvalues --    0.19637   0.21089   0.29894   0.31367   0.79747
 Alpha virt. eigenvalues --    0.81125   0.82618   0.84110   0.85787   0.87206
 Alpha virt. eigenvalues --    1.16757   1.18171   1.21199   1.22658   2.56728

 Mulliken charges:
               1
     1  O   -0.746920
     2  H    0.377288
     3  H    0.369627
     4  O   -0.746487
     5  H    0.373372
     6  H    0.373119
 Sum of Mulliken charges =   0.00000

 Dipole moment (field-independent basis, Debye):
    X=              1.0640    Y=             -3.9895    Z=              0.0000  Tot=              4.1290
 Quadrupole moment (field-independent basis, Debye-Ang):
   XX=             -9.5989   YY=             -5.8199   ZZ=            -14.9916
   XY=              9.7543   XZ=              0.0000   YZ=              0.0000

 1541\MP4DQ=-33.8929014\MP4SDQ=-33.8949252\CCSD=-33.8959778\CCSD(T)=-33
 Normal termination of Gaussian 16 at Sun Dec 10 06:57:59 2023.
