 Gaussian 16, Revision A.03,
 Gaussian 16:  ES64L-G16RevA.03 25-Dec-2016

 ------------------
 #p CCSD(T)/CEP-31G
 ------------------

 ------------
 H2O_H2O_2835
 ------------
 Symbolic Z-matrix:
 Charge =  0 Multiplicity = 1

                         Standard orientation:
 ---------------------------------------------------------------------
 Center     Atomic      Atomic             Coordinates (Angstroms)
 Number     Number       Type             X           Y           Z
 ---------------------------------------------------------------------
      1          8           0        0.063241    2.236903    0.000000
      2          1           0        0.062068    1.254302    0.000000
      3          1           0       -0.865870    2.556680    0.000000
      4          8           0        0.063241   -2.061403   -0.000000
      5          1           0        0.660480   -2.841667   -0.000000
      6          1           0       -0.868541   -2.373315   -0.000000
 ---------------------------------------------------------------------

 SCF Done:  E(RHF) =  -33.6550493445     A.U. after   11 cycles
 E2 =    -0.2283776805D+00 EUMP2 =    -0.33883427025066D+02
 CCSD(T)
 CCSD(T)= -0.33900346449D+02

 The electronic state is 1-A'.
 Alpha  occ. eigenvalues --   -1.36821  -1.34005  -0.72475  -0.69611  -0.56752
 Alpha  occ. eigenvalues --   -0.53810  -0.51437  -0.48616
 Alpha virt. eigenvalues --    0.18579   0.22402   0.29337   0.32523   0.79131
 Alpha virt. eigenvalues --    0.81879   0.82967   0.84866   0.85184   0.88150
 Alpha virt. eigenvalues --    1.16195   1.19338   1.20616   1.26749   2.55614

 Mulliken charges:
               1
     1  O   -0.754186
     2  H    0.389585
     3  H    0.363555
     4  O   -0.751929
     5  H    0.380016
     6  H    0.372959
 Sum of Mulliken charges =  -0.00000

 Dipole moment (field-independent basis, Debye):
    X=             -2.8820    Y=             -4.2120    Z=             -0.0000  Tot=              5.1036
 Quadrupole moment (field-independent basis, Debye-Ang):
   XX=             -9.7773   YY=             -6.8899   ZZ=            -14.9949
   XY=             -4.8641   XZ=             -0.0000   YZ=              0.0000

 21\MP4DQ=-33.8946939\MP4SDQ=-33.8967374\CCSD=-33.8977748\CCSD(T)=-33.9
 Normal termination of Gaussian 16 at Sun Dec 10 06:24:01 2023.
