 Gaussian 16, Revision A.03,
 Gaussian 16:  ES64L-G16RevA.03 25-Dec-2016

 ------------------
 #p CCSD(T)/CEP-31G
 ------------------

 ------------
 H2O_H2O_1806
 ------------
 Symbolic Z-matrix:
 Charge =  0 Multiplicity = 1

                         Standard orientation:
 ---------------------------------------------------------------------
 Center     Atomic      Atomic             Coordinates (Angstroms)
 Number     Number       Type             X           Y           Z
 ---------------------------------------------------------------------
      1          8           0        0.076773    1.821361    0.000000
      2          1           0        0.075984    0.838760    0.000000
      3          1           0       -0.852463    2.140775    0.000000
      4          8           0        0.076773   -1.658182    0.000000
      5          1           0        0.452069   -2.566289    0.000000
      6          1           0       -0.903963   -1.718685    0.000000
 ---------------------------------------------------------------------

 SCF Done:  E(RHF) =  -33.6565721409     A.U. after   11 cycles
 E2 =    -0.2287628035D+00 EUMP2 =    -0.33885334944395D+02
 CCSD(T)
 CCSD(T)= -0.33902290016D+02

 The electronic state is 1-A'.
 Alpha  occ. eigenvalues --   -1.37642  -1.33429  -0.73367  -0.69032  -0.57746
 Alpha  occ. eigenvalues --   -0.53177  -0.52260  -0.48033
 Alpha virt. eigenvalues --    0.17487   0.24082   0.28651   0.35719   0.77857
 Alpha virt. eigenvalues --    0.82117   0.82979   0.85225   0.89279   0.95896
 Alpha virt. eigenvalues --    1.15254   1.19139   1.20768   1.36478   2.51625

 Mulliken charges:
               1
     1  O   -0.762676
     2  H    0.404200
     3  H    0.355998
     4  O   -0.762849
     5  H    0.392641
     6  H    0.372686
 Sum of Mulliken charges =  -0.00000

 Dipole moment (field-independent basis, Debye):
    X=             -3.4597    Y=             -4.0655    Z=              0.0000  Tot=              5.3383
 Quadrupole moment (field-independent basis, Debye-Ang):
   XX=            -10.3372   YY=             -8.2439   ZZ=            -14.9970
   XY=             -3.5748   XZ=              0.0000   YZ=              0.0000

 7936\MP4DQ=-33.8965246\MP4SDQ=-33.8986284\CCSD=-33.89965\CCSD(T)=-33.9
 Normal termination of Gaussian 16 at Sun Dec 10 06:52:58 2023.
