 Gaussian 16, Revision A.03,
 Gaussian 16:  ES64L-G16RevA.03 25-Dec-2016

 ------------------
 #p CCSD(T)/CEP-31G
 ------------------

 ------------
 H2O_H2O_1923
 ------------
 Symbolic Z-matrix:
 Charge =  0 Multiplicity = 1

                         Standard orientation:
 ---------------------------------------------------------------------
 Center     Atomic      Atomic             Coordinates (Angstroms)
 Number     Number       Type             X           Y           Z
 ---------------------------------------------------------------------
      1          8           0       -0.016691    1.861360    0.000000
      2          1           0       -0.013052    0.878766    0.000000
      3          1           0        0.911615    2.183467    0.000000
      4          8           0       -0.016691   -1.697997    0.000000
      5          1           0       -0.996945   -1.765892    0.000000
      6          1           0        0.365440   -2.603249    0.000000
 ---------------------------------------------------------------------

 SCF Done:  E(RHF) =  -33.6586990961     A.U. after   11 cycles
 E2 =    -0.2285612483D+00 EUMP2 =    -0.33887260344418D+02
 CCSD(T)
 CCSD(T)= -0.33904153921D+02

 The electronic state is 1-A'.
 Alpha  occ. eigenvalues --   -1.37422  -1.33342  -0.73118  -0.69028  -0.57644
 Alpha  occ. eigenvalues --   -0.53208  -0.52079  -0.48014
 Alpha virt. eigenvalues --    0.17814   0.24137   0.28995   0.35315   0.78123
 Alpha virt. eigenvalues --    0.82092   0.82839   0.85930   0.87993   0.94198
 Alpha virt. eigenvalues --    1.15706   1.19600   1.20772   1.35564   2.52615

 Mulliken charges:
               1
     1  O   -0.771140
     2  H    0.401959
     3  H    0.366563
     4  O   -0.767425
     5  H    0.382549
     6  H    0.387494
 Sum of Mulliken charges =   0.00000

 Dipole moment (field-independent basis, Debye):
    X=              0.7500    Y=             -4.0333    Z=              0.0000  Tot=              4.1025
 Quadrupole moment (field-independent basis, Debye-Ang):
   XX=             -9.7543   YY=             -8.1318   ZZ=            -15.0017
   XY=              6.4875   XZ=              0.0000   YZ=              0.0000

 781\MP4DQ=-33.8984241\MP4SDQ=-33.9005113\CCSD=-33.9015322\CCSD(T)=-33.
 Normal termination of Gaussian 16 at Sun Dec 10 06:55:11 2023.
