 Gaussian 16, Revision A.03,
 Gaussian 16:  ES64L-G16RevA.03 25-Dec-2016

 ------------------
 #p CCSD(T)/CEP-31G
 ------------------

 ------------
 H2O_H2O_1823
 ------------
 Symbolic Z-matrix:
 Charge =  0 Multiplicity = 1

                         Standard orientation:
 ---------------------------------------------------------------------
 Center     Atomic      Atomic             Coordinates (Angstroms)
 Number     Number       Type             X           Y           Z
 ---------------------------------------------------------------------
      1          8           0       -0.016698    1.821472    0.000000
      2          1           0       -0.012976    0.838877    0.000000
      3          1           0        0.911581    2.143657    0.000000
      4          8           0       -0.016698   -1.658111    0.000000
      5          1           0       -0.996945   -1.726089    0.000000
      6          1           0        0.365510   -2.563330    0.000000
 ---------------------------------------------------------------------

 SCF Done:  E(RHF) =  -33.6591453290     A.U. after   11 cycles
 E2 =    -0.2285947033D+00 EUMP2 =    -0.33887740032336D+02
 CCSD(T)
 CCSD(T)= -0.33904627396D+02

 The electronic state is 1-A'.
 Alpha  occ. eigenvalues --   -1.37524  -1.33215  -0.73231  -0.68917  -0.57794
 Alpha  occ. eigenvalues --   -0.53075  -0.52186  -0.47892
 Alpha virt. eigenvalues --    0.17792   0.24364   0.28917   0.35944   0.77916
 Alpha virt. eigenvalues --    0.81788   0.83071   0.86073   0.88131   0.96117
 Alpha virt. eigenvalues --    1.15663   1.19402   1.20918   1.36190   2.52157

 Mulliken charges:
               1
     1  O   -0.773166
     2  H    0.404234
     3  H    0.366132
     4  O   -0.770250
     5  H    0.383476
     6  H    0.389573
 Sum of Mulliken charges =  -0.00000

 Dipole moment (field-independent basis, Debye):
    X=              0.7496    Y=             -4.0536    Z=              0.0000  Tot=              4.1223
 Quadrupole moment (field-independent basis, Debye-Ang):
   XX=             -9.7525   YY=             -8.2013   ZZ=            -15.0027
   XY=              6.3428   XZ=              0.0000   YZ=              0.0000

 17\MP4DQ=-33.8988846\MP4SDQ=-33.9009775\CCSD=-33.901996\CCSD(T)=-33.90
 Normal termination of Gaussian 16 at Sun Dec 10 06:53:18 2023.
