 Gaussian 16, Revision A.03,
 Gaussian 16:  ES64L-G16RevA.03 25-Dec-2016

 ------------------
 #p CCSD(T)/CEP-31G
 ------------------

 -----------
 H2O_H2O_541
 -----------
 Symbolic Z-matrix:
 Charge =  0 Multiplicity = 1

                         Standard orientation:
 ---------------------------------------------------------------------
 Center     Atomic      Atomic             Coordinates (Angstroms)
 Number     Number       Type             X           Y           Z
 ---------------------------------------------------------------------
      1          8           0        0.041290    1.321827    0.000000
      2          1           0        0.037720    0.339232    0.000000
      3          1           0       -0.887040    1.643868   -0.000000
      4          8           0        0.041290   -1.142039    0.000000
      5          1           0        0.890457   -1.636428    0.000000
      6          1           0       -0.701771   -1.784975   -0.000000
 ---------------------------------------------------------------------

 SCF Done:  E(RHF) =  -33.6552694381     A.U. after   11 cycles
 E2 =    -0.2288467174D+00 EUMP2 =    -0.33884116155540D+02
 CCSD(T)
 CCSD(T)= -0.33899752308D+02

 The electronic state is 1-A'.
 Alpha  occ. eigenvalues --   -1.40960  -1.29278  -0.76158  -0.71305  -0.58367
 Alpha  occ. eigenvalues --   -0.55553  -0.48102  -0.43756
 Alpha virt. eigenvalues --    0.17131   0.26888   0.28261   0.54438   0.74039
 Alpha virt. eigenvalues --    0.74307   0.85665   0.89192   0.95841   1.00222
 Alpha virt. eigenvalues --    1.14936   1.17856   1.24782   1.36941   2.68231

 Mulliken charges:
               1
     1  O   -0.776664
     2  H    0.421082
     3  H    0.333720
     4  O   -0.834051
     5  H    0.428103
     6  H    0.427810
 Sum of Mulliken charges =  -0.00000

 Dipole moment (field-independent basis, Debye):
    X=             -1.7672    Y=             -5.0711    Z=             -0.0000  Tot=              5.3702
 Quadrupole moment (field-independent basis, Debye-Ang):
   XX=             -9.3223   YY=             -9.6747   ZZ=            -15.0114
   XY=             -3.8684   XZ=              0.0000   YZ=             -0.0000

 07\MP4DQ=-33.8937874\MP4SDQ=-33.8959638\CCSD=-33.8967588\CCSD(T)=-33.8
 Normal termination of Gaussian 16 at Sun Dec 10 06:28:42 2023.
