 Gaussian 16, Revision A.03,
 Gaussian 16:  ES64L-G16RevA.03 25-Dec-2016

 ------------------
 #p CCSD(T)/CEP-31G
 ------------------

 -----------
 H2O_H2O_754
 -----------
 Symbolic Z-matrix:
 Charge =  0 Multiplicity = 1

                         Standard orientation:
 ---------------------------------------------------------------------
 Center     Atomic      Atomic             Coordinates (Angstroms)
 Number     Number       Type             X           Y           Z
 ---------------------------------------------------------------------
      1          8           0        0.082825   -1.397810    0.000000
      2          1           0        0.082173   -0.415209    0.000000
      3          1           0       -0.846456   -1.717093    0.000000
      4          8           0        0.082825    1.243339    0.000000
      5          1           0        0.336511    2.192627    0.000000
      6          1           0       -0.897428    1.175450    0.000000
 ---------------------------------------------------------------------

 SCF Done:  E(RHF) =  -33.6513054175     A.U. after   11 cycles
 E2 =    -0.2289708445D+00 EUMP2 =    -0.33880276262039D+02
 CCSD(T)
 CCSD(T)= -0.33896854841D+02

 The electronic state is 1-A'.
 Alpha  occ. eigenvalues --   -1.40118  -1.31745  -0.76580  -0.68683  -0.59231
 Alpha  occ. eigenvalues --   -0.54528  -0.51011  -0.46202
 Alpha virt. eigenvalues --    0.16733   0.25741   0.27600   0.47901   0.74416
 Alpha virt. eigenvalues --    0.77626   0.85212   0.87041   0.94171   1.10448
 Alpha virt. eigenvalues --    1.15270   1.22997   1.28891   1.36358   2.58261

 Mulliken charges:
               1
     1  O   -0.743636
     2  H    0.388820
     3  H    0.336273
     4  O   -0.804371
     5  H    0.444235
     6  H    0.378678
 Sum of Mulliken charges =  -0.00000

 Dipole moment (field-independent basis, Debye):
    X=             -3.5946    Y=              4.2900    Z=              0.0000  Tot=              5.5969
 Quadrupole moment (field-independent basis, Debye-Ang):
   XX=            -10.6947   YY=             -9.3177   ZZ=            -14.9958
   XY=              2.9458   XZ=              0.0000   YZ=              0.0000

 7\MP4DQ=-33.8908251\MP4SDQ=-33.8930822\CCSD=-33.8939964\CCSD(T)=-33.89
 Normal termination of Gaussian 16 at Sun Dec 10 06:32:42 2023.
