 Gaussian 16, Revision A.03,
 Gaussian 16:  ES64L-G16RevA.03 25-Dec-2016

 ------------------
 #p CCSD(T)/CEP-31G
 ------------------

 ------------
 H2O_H2O_3102
 ------------
 Symbolic Z-matrix:
 Charge =  0 Multiplicity = 1

                         Standard orientation:
 ---------------------------------------------------------------------
 Center     Atomic      Atomic             Coordinates (Angstroms)
 Number     Number       Type             X           Y           Z
 ---------------------------------------------------------------------
      1          8           0        0.088232   -2.329655    0.000000
      2          1           0        0.088054   -1.347054    0.000000
      3          1           0       -0.841204   -2.648490    0.000000
      4          8           0        0.088232    2.185336    0.000000
      5          1           0        0.216311    3.159555    0.000000
      6          1           0       -0.874869    1.990545    0.000000
 ---------------------------------------------------------------------

 SCF Done:  E(RHF) =  -33.6527971451     A.U. after   11 cycles
 E2 =    -0.2284006163D+00 EUMP2 =    -0.33881197761345D+02
 CCSD(T)
 CCSD(T)= -0.33898177297D+02

 The electronic state is 1-A'.
 Alpha  occ. eigenvalues --   -1.36732  -1.34746  -0.72400  -0.70342  -0.56534
 Alpha  occ. eigenvalues --   -0.54488  -0.51312  -0.49321
 Alpha virt. eigenvalues --    0.18090   0.21859   0.29347   0.31557   0.79268
 Alpha virt. eigenvalues --    0.81212   0.82397   0.84197   0.85412   0.87678
 Alpha virt. eigenvalues --    1.15960   1.18607   1.20665   1.25193   2.56112

 Mulliken charges:
               1
     1  O   -0.745305
     2  H    0.380681
     3  H    0.364235
     4  O   -0.745670
     5  H    0.378582
     6  H    0.367478
 Sum of Mulliken charges =  -0.00000

 Dipole moment (field-independent basis, Debye):
    X=             -4.0369    Y=              3.4421    Z=              0.0000  Tot=              5.3051
 Quadrupole moment (field-independent basis, Debye-Ang):
   XX=            -10.9766   YY=             -8.7454   ZZ=            -14.9895
   XY=              2.8613   XZ=              0.0000   YZ=              0.0000

 7803\MP4DQ=-33.8925229\MP4SDQ=-33.8945602\CCSD=-33.8956063\CCSD(T)=-33
 Normal termination of Gaussian 16 at Sun Dec 10 06:28:53 2023.
