 Gaussian 16, Revision A.03,
 Gaussian 16:  ES64L-G16RevA.03 25-Dec-2016

 ------------------
 #p CCSD(T)/CEP-31G
 ------------------

 ------------
 H2O_H2O_4840
 ------------
 Symbolic Z-matrix:
 Charge =  0 Multiplicity = 1

                         Standard orientation:
 ---------------------------------------------------------------------
 Center     Atomic      Atomic             Coordinates (Angstroms)
 Number     Number       Type             X           Y           Z
 ---------------------------------------------------------------------
      1          8           0        0.044820    3.037339    0.000000
      2          1           0        0.043434    2.054739    0.000000
      3          1           0       -0.884223    3.357316    0.000000
      4          8           0        0.044820   -2.856901   -0.000000
      5          1           0        0.861053   -3.403956   -0.000000
      6          1           0       -0.737380   -3.451603   -0.000000
 ---------------------------------------------------------------------

 SCF Done:  E(RHF) =  -33.6531185139     A.U. after   10 cycles
 E2 =    -0.2283071484D+00 EUMP2 =    -0.33881425662286D+02
 CCSD(T)
 CCSD(T)= -0.33898388327D+02

 The electronic state is 1-A'.
 Alpha  occ. eigenvalues --   -1.36195  -1.34748  -0.71834  -0.70379  -0.56006
 Alpha  occ. eigenvalues --   -0.54527  -0.50787  -0.49341
 Alpha virt. eigenvalues --    0.19645   0.21134   0.29897   0.31411   0.79764
 Alpha virt. eigenvalues --    0.81181   0.82649   0.84171   0.85820   0.87286
 Alpha virt. eigenvalues --    1.16764   1.18211   1.21210   1.22699   2.56743

 Mulliken charges:
               1
     1  O   -0.746298
     2  H    0.377716
     3  H    0.368579
     4  O   -0.745847
     5  H    0.373859
     6  H    0.371992
 Sum of Mulliken charges =   0.00000

 Dipole moment (field-independent basis, Debye):
    X=             -2.0604    Y=             -4.2239    Z=             -0.0000  Tot=              4.6996
 Quadrupole moment (field-independent basis, Debye-Ang):
   XX=             -9.4291   YY=             -4.7963   ZZ=            -14.9913
   XY=             -7.7765   XZ=             -0.0000   YZ=              0.0000

 0073\MP4DQ=-33.8927539\MP4SDQ=-33.894778\CCSD=-33.8958309\CCSD(T)=-33.
 Normal termination of Gaussian 16 at Sun Dec 10 07:00:12 2023.
