 Gaussian 16, Revision A.03,
 Gaussian 16:  ES64L-G16RevA.03 25-Dec-2016

 ------------------
 #p CCSD(T)/CEP-31G
 ------------------

 -----------
 H2O_H2O_483
 -----------
 Symbolic Z-matrix:
 Charge =  0 Multiplicity = 1

                         Standard orientation:
 ---------------------------------------------------------------------
 Center     Atomic      Atomic             Coordinates (Angstroms)
 Number     Number       Type             X           Y           Z
 ---------------------------------------------------------------------
      1          8           0        0.070263    1.296634   -0.000000
      2          1           0        0.068669    0.314034   -0.000000
      3          1           0       -0.858712    1.616807    0.000000
      4          8           0        0.070263   -1.126495   -0.000000
      5          1           0        0.560183   -1.978248   -0.000000
      6          1           0       -0.894341   -1.313703    0.000000
 ---------------------------------------------------------------------

 SCF Done:  E(RHF) =  -33.6471707072     A.U. after   11 cycles
 E2 =    -0.2288131484D+00 EUMP2 =    -0.33875983855647D+02
 CCSD(T)
 CCSD(T)= -0.33891772105D+02

 The electronic state is 1-A'.
 Alpha  occ. eigenvalues --   -1.41506  -1.29780  -0.77515  -0.70963  -0.58195
 Alpha  occ. eigenvalues --   -0.55843  -0.48531  -0.44154
 Alpha virt. eigenvalues --    0.16715   0.25934   0.28321   0.54481   0.73801
 Alpha virt. eigenvalues --    0.75235   0.85808   0.89089   0.96553   1.06440
 Alpha virt. eigenvalues --    1.15174   1.20990   1.23820   1.35651   2.73492

 Mulliken charges:
               1
     1  O   -0.750764
     2  H    0.400056
     3  H    0.324514
     4  O   -0.834053
     5  H    0.461337
     6  H    0.398909
 Sum of Mulliken charges =   0.00000

 Dipole moment (field-independent basis, Debye):
    X=             -2.9459    Y=             -4.9100    Z=              0.0000  Tot=              5.7260
 Quadrupole moment (field-independent basis, Debye-Ang):
   XX=            -10.0102   YY=             -9.6893   ZZ=            -14.9940
   XY=             -3.3752   XZ=             -0.0000   YZ=              0.0000

 769\MP4DQ=-33.8857074\MP4SDQ=-33.8879686\CCSD=-33.8887726\CCSD(T)=-33.
 Normal termination of Gaussian 16 at Sun Dec 10 06:27:36 2023.
