 Gaussian 16, Revision A.03,
 Gaussian 16:  ES64L-G16RevA.03 25-Dec-2016

 ------------------
 #p CCSD(T)/CEP-31G
 ------------------

 -----------
 H2O_H2O_509
 -----------
 Symbolic Z-matrix:
 Charge =  0 Multiplicity = 1

                         Standard orientation:
 ---------------------------------------------------------------------
 Center     Atomic      Atomic             Coordinates (Angstroms)
 Number     Number       Type             X           Y           Z
 ---------------------------------------------------------------------
      1          8           0        0.066834    1.308155   -0.000000
      2          1           0        0.065015    0.325555   -0.000000
      3          1           0       -0.862067    1.628542   -0.000000
      4          8           0        0.066834   -1.135165    0.000000
      5          1           0        0.611224   -1.953178    0.000000
      6          1           0       -0.883517   -1.384843    0.000000
 ---------------------------------------------------------------------

 SCF Done:  E(RHF) =  -33.6498559265     A.U. after   11 cycles
 E2 =    -0.2288861167D+00 EUMP2 =    -0.33878742043198D+02
 CCSD(T)
 CCSD(T)= -0.33894518487D+02

 The electronic state is 1-A'.
 Alpha  occ. eigenvalues --   -1.41283  -1.29726  -0.77063  -0.70986  -0.58261
 Alpha  occ. eigenvalues --   -0.55706  -0.48520  -0.44125
 Alpha virt. eigenvalues --    0.16804   0.26198   0.28239   0.54181   0.73886
 Alpha virt. eigenvalues --    0.75057   0.85633   0.89039   0.96474   1.05622
 Alpha virt. eigenvalues --    1.15138   1.19522   1.23766   1.35823   2.71666

 Mulliken charges:
               1
     1  O   -0.757474
     2  H    0.409128
     3  H    0.325942
     4  O   -0.834818
     5  H    0.455851
     6  H    0.401370
 Sum of Mulliken charges =  -0.00000

 Dipole moment (field-independent basis, Debye):
    X=             -2.8049    Y=             -4.9470    Z=              0.0000  Tot=              5.6869
 Quadrupole moment (field-independent basis, Debye-Ang):
   XX=             -9.8653   YY=             -9.6608   ZZ=            -14.9991
   XY=             -3.4790   XZ=              0.0000   YZ=             -0.0000

 3\MP4DQ=-33.8884793\MP4SDQ=-33.8907191\CCSD=-33.8915249\CCSD(T)=-33.89
 Normal termination of Gaussian 16 at Sun Dec 10 06:28:06 2023.
