 Gaussian 16, Revision A.03,
 Gaussian 16:  ES64L-G16RevA.03 25-Dec-2016

 ------------------
 #p CCSD(T)/CEP-31G
 ------------------

 ------------
 H2O_H2O_3751
 ------------
 Symbolic Z-matrix:
 Charge =  0 Multiplicity = 1

                         Standard orientation:
 ---------------------------------------------------------------------
 Center     Atomic      Atomic             Coordinates (Angstroms)
 Number     Number       Type             X           Y           Z
 ---------------------------------------------------------------------
      1          8           0        0.090684   -2.585879    0.000000
      2          1           0        0.090607   -1.603277    0.000000
      3          1           0       -0.838784   -2.904617    0.000000
      4          8           0        0.090684    2.447169    0.000000
      5          1           0        0.154874    3.427671    0.000000
      6          1           0       -0.857641    2.189902    0.000000
 ---------------------------------------------------------------------

 SCF Done:  E(RHF) =  -33.6522539343     A.U. after   11 cycles
 E2 =    -0.2283632847D+00 EUMP2 =    -0.33880617218979D+02
 CCSD(T)
 CCSD(T)= -0.33897607224D+02

 The electronic state is 1-A'.
 Alpha  occ. eigenvalues --   -1.36492  -1.35003  -0.72149  -0.70612  -0.56263
 Alpha  occ. eigenvalues --   -0.54739  -0.51067  -0.49575
 Alpha virt. eigenvalues --    0.18859   0.21166   0.29552   0.31144   0.79506
 Alpha virt. eigenvalues --    0.80962   0.82403   0.83971   0.85464   0.87293
 Alpha virt. eigenvalues --    1.16303   1.18062   1.20881   1.22876   2.55934

 Mulliken charges:
               1
     1  O   -0.743032
     2  H    0.376900
     3  H    0.366065
     4  O   -0.743563
     5  H    0.376197
     6  H    0.367433
 Sum of Mulliken charges =  -0.00000

 Dipole moment (field-independent basis, Debye):
    X=             -4.1622    Y=              3.2768    Z=              0.0000  Tot=              5.2973
 Quadrupole moment (field-independent basis, Debye-Ang):
   XX=            -11.1313   YY=             -9.1026   ZZ=            -14.9887
   XY=              2.6119   XZ=              0.0000   YZ=              0.0000

 205\MP4DQ=-33.891962\MP4SDQ=-33.8939908\CCSD=-33.8950434\CCSD(T)=-33.8
 Normal termination of Gaussian 16 at Sun Dec 10 06:40:30 2023.
