 Gaussian 16, Revision A.03,
 Gaussian 16:  ES64L-G16RevA.03 25-Dec-2016

 ------------------
 #p CCSD(T)/CEP-31G
 ------------------

 ------------
 H2O_H2O_1645
 ------------
 Symbolic Z-matrix:
 Charge =  0 Multiplicity = 1

                         Standard orientation:
 ---------------------------------------------------------------------
 Center     Atomic      Atomic             Coordinates (Angstroms)
 Number     Number       Type             X           Y           Z
 ---------------------------------------------------------------------
      1          8           0        0.026735    1.756998   -0.000000
      2          1           0        0.023366    0.774403   -0.000000
      3          1           0       -0.901661    2.078849   -0.000000
      4          8           0        0.026735   -1.583821    0.000000
      5          1           0        0.974978   -1.841389    0.000000
      6          1           0       -0.524436   -2.397281    0.000000
 ---------------------------------------------------------------------

 SCF Done:  E(RHF) =  -33.6605912846     A.U. after   11 cycles
 E2 =    -0.2286905270D+00 EUMP2 =    -0.33889281811626D+02
 CCSD(T)
 CCSD(T)= -0.33906106839D+02

 The electronic state is 1-A'.
 Alpha  occ. eigenvalues --   -1.37736  -1.32688  -0.73410  -0.68465  -0.58157
 Alpha  occ. eigenvalues --   -0.52525  -0.52423  -0.47371
 Alpha virt. eigenvalues --    0.17939   0.24843   0.28769   0.37606   0.77515
 Alpha virt. eigenvalues --    0.81118   0.83766   0.86450   0.89179   0.97625
 Alpha virt. eigenvalues --    1.15467   1.19211   1.21284   1.35143   2.50606

 Mulliken charges:
               1
     1  O   -0.778534
     2  H    0.414112
     3  H    0.361944
     4  O   -0.776744
     5  H    0.387513
     6  H    0.391709
 Sum of Mulliken charges =  -0.00000

 Dipole moment (field-independent basis, Debye):
    X=             -1.1990    Y=             -4.3380    Z=              0.0000  Tot=              4.5007
 Quadrupole moment (field-independent basis, Debye-Ang):
   XX=             -9.5026   YY=             -8.0450   ZZ=            -15.0066
   XY=             -5.6003   XZ=              0.0000   YZ=             -0.0000

 175\MP4DQ=-33.9003511\MP4SDQ=-33.9024422\CCSD=-33.9034538\CCSD(T)=-33.
 Normal termination of Gaussian 16 at Sun Dec 10 06:49:57 2023.
