 Gaussian 16, Revision A.03,
 Gaussian 16:  ES64L-G16RevA.03 25-Dec-2016

 ------------------
 #p CCSD(T)/CEP-31G
 ------------------

 ----------
 H2O_H2O_82
 ----------
 Symbolic Z-matrix:
 Charge =  0 Multiplicity = 1

                         Standard orientation:
 ---------------------------------------------------------------------
 Center     Atomic      Atomic             Coordinates (Angstroms)
 Number     Number       Type             X           Y           Z
 ---------------------------------------------------------------------
      1          8           0        0.073607   -1.135278    0.000000
      2          1           0        0.072041   -0.152678    0.000000
      3          1           0       -0.855377   -1.455426    0.000000
      4          8           0        0.073607    0.968462    0.000000
      5          1           0        0.506796    1.850422    0.000000
      6          1           0       -0.901172    1.092209    0.000000
 ---------------------------------------------------------------------

 SCF Done:  E(RHF) =  -33.5921084315     A.U. after   11 cycles
 E2 =    -0.2278664601D+00 EUMP2 =    -0.33819974891564D+02
 CCSD(T)
 CCSD(T)= -0.33834832378D+02

 The electronic state is 1-A'.
 Alpha  occ. eigenvalues --   -1.46277  -1.27662  -0.83058  -0.75230  -0.58995
 Alpha  occ. eigenvalues --   -0.54929  -0.44884  -0.41599
 Alpha virt. eigenvalues --    0.15958   0.23872   0.30274   0.61535   0.73139
 Alpha virt. eigenvalues --    0.74206   0.89099   0.91340   0.94975   1.08006
 Alpha virt. eigenvalues --    1.10504   1.20817   1.28253   1.38710   3.05491

 Mulliken charges:
               1
     1  O   -0.711007
     2  H    0.278804
     3  H    0.298263
     4  O   -0.776241
     5  H    0.496943
     6  H    0.413238
 Sum of Mulliken charges =  -0.00000

 Dipole moment (field-independent basis, Debye):
    X=             -2.9554    Y=              5.4289    Z=              0.0000  Tot=              6.1812
 Quadrupole moment (field-independent basis, Debye-Ang):
   XX=            -10.1156   YY=            -10.5596   ZZ=            -14.9093
   XY=              3.0156   XZ=              0.0000   YZ=              0.0000

 2\MP4DQ=-33.8284999\MP4SDQ=-33.8309701\CCSD=-33.831593\CCSD(T)=-33.834
 Normal termination of Gaussian 16 at Sun Dec 10 06:19:39 2023.
