 Gaussian 16, Revision A.03,
 Gaussian 16:  ES64L-G16RevA.03 25-Dec-2016

 ------------------
 #p CCSD(T)/CEP-31G
 ------------------

 -----------
 H2O_H2O_519
 -----------
 Symbolic Z-matrix:
 Charge =  0 Multiplicity = 1

                         Standard orientation:
 ---------------------------------------------------------------------
 Center     Atomic      Atomic             Coordinates (Angstroms)
 Number     Number       Type             X           Y           Z
 ---------------------------------------------------------------------
      1          8           0        0.030368    1.309520    0.000000
      2          1           0        0.026008    0.326928    0.000000
      3          1           0       -0.897702    1.632307    0.000000
      4          8           0        0.030368   -1.134036   -0.000000
      5          1           0        0.959413   -1.454008   -0.000000
      6          1           0       -0.573607   -1.909097   -0.000000
 ---------------------------------------------------------------------

 SCF Done:  E(RHF) =  -33.6536683558     A.U. after   11 cycles
 E2 =    -0.2285509466D+00 EUMP2 =    -0.33882219302440D+02
 CCSD(T)
 CCSD(T)= -0.33897861524D+02

 The electronic state is 1-A'.
 Alpha  occ. eigenvalues --   -1.41111  -1.29262  -0.76690  -0.70996  -0.58484
 Alpha  occ. eigenvalues --   -0.55634  -0.48039  -0.43753
 Alpha virt. eigenvalues --    0.17196   0.26723   0.28363   0.54685   0.73986
 Alpha virt. eigenvalues --    0.74742   0.86433   0.89263   0.95131   1.00753
 Alpha virt. eigenvalues --    1.15719   1.19195   1.25405   1.37209   2.69685

 Mulliken charges:
               1
     1  O   -0.774292
     2  H    0.408696
     3  H    0.338235
     4  O   -0.837203
     5  H    0.421228
     6  H    0.443336
 Sum of Mulliken charges =  -0.00000

 Dipole moment (field-independent basis, Debye):
    X=             -1.3236    Y=             -5.0009    Z=             -0.0000  Tot=              5.1731
 Quadrupole moment (field-independent basis, Debye-Ang):
   XX=             -9.3817   YY=             -9.6675   ZZ=            -15.0089
   XY=             -3.9960   XZ=             -0.0000   YZ=              0.0000

 26\MP4DQ=-33.8918952\MP4SDQ=-33.8940768\CCSD=-33.894877\CCSD(T)=-33.89
 Normal termination of Gaussian 16 at Sun Dec 10 06:28:17 2023.
