 Gaussian 16, Revision A.03,
 Gaussian 16:  ES64L-G16RevA.03 25-Dec-2016

 ------------------
 #p CCSD(T)/CEP-31G
 ------------------

 ------------
 H2O_H2O_1089
 ------------
 Symbolic Z-matrix:
 Charge =  0 Multiplicity = 1

                         Standard orientation:
 ---------------------------------------------------------------------
 Center     Atomic      Atomic             Coordinates (Angstroms)
 Number     Number       Type             X           Y           Z
 ---------------------------------------------------------------------
      1          8           0        0.048668    1.541481   -0.000000
      2          1           0        0.046073    0.558883   -0.000000
      3          1           0       -0.879980    1.862601   -0.000000
      4          8           0        0.048668   -1.361184    0.000000
      5          1           0        0.826635   -1.961410    0.000000
      6          1           0       -0.771419   -1.902445    0.000000
 ---------------------------------------------------------------------

 SCF Done:  E(RHF) =  -33.6628723617     A.U. after   11 cycles
 E2 =    -0.2290846185D+00 EUMP2 =    -0.33891956980150D+02
 CCSD(T)
 CCSD(T)= -0.33908464713D+02

 The electronic state is 1-A'.
 Alpha  occ. eigenvalues --   -1.38756  -1.31355  -0.74336  -0.68124  -0.59192
 Alpha  occ. eigenvalues --   -0.53492  -0.50948  -0.45998
 Alpha virt. eigenvalues --    0.17648   0.26313   0.28065   0.44254   0.75791
 Alpha virt. eigenvalues --    0.77772   0.85654   0.86107   0.94766   0.99929
 Alpha virt. eigenvalues --    1.14919   1.19205   1.22165   1.35067   2.51683

 Mulliken charges:
               1
     1  O   -0.785097
     2  H    0.435496
     3  H    0.348274
     4  O   -0.804028
     5  H    0.408540
     6  H    0.396815
 Sum of Mulliken charges =  -0.00000

 Dipole moment (field-independent basis, Debye):
    X=             -2.1359    Y=             -4.6975    Z=              0.0000  Tot=              5.1603
 Quadrupole moment (field-independent basis, Debye-Ang):
   XX=             -9.4205   YY=             -8.6514   ZZ=            -15.0163
   XY=             -4.2963   XZ=              0.0000   YZ=             -0.0000

 44\MP4DQ=-33.9026289\MP4SDQ=-33.9047388\CCSD=-33.905689\CCSD(T)=-33.90
 Normal termination of Gaussian 16 at Sun Dec 10 06:39:00 2023.
