 Gaussian 16, Revision A.03,
 Gaussian 16:  ES64L-G16RevA.03 25-Dec-2016

 ------------------
 #p CCSD(T)/CEP-31G
 ------------------

 ------------
 H2O_H2O_4696
 ------------
 Symbolic Z-matrix:
 Charge =  0 Multiplicity = 1

                         Standard orientation:
 ---------------------------------------------------------------------
 Center     Atomic      Atomic             Coordinates (Angstroms)
 Number     Number       Type             X           Y           Z
 ---------------------------------------------------------------------
      1          8           0       -0.023160    2.972066    0.000000
      2          1           0       -0.021110    1.989467    0.000000
      3          1           0        0.905666    3.292671    0.000000
      4          8           0       -0.023160   -2.801653    0.000000
      5          1           0       -0.986480   -2.995359    0.000000
      6          1           0        0.472490   -3.650085    0.000000
 ---------------------------------------------------------------------

 SCF Done:  E(RHF) =  -33.6532962542     A.U. after   11 cycles
 E2 =    -0.2282955058D+00 EUMP2 =    -0.33881591760072D+02
 CCSD(T)
 CCSD(T)= -0.33898550268D+02

 The electronic state is 1-A'.
 Alpha  occ. eigenvalues --   -1.36214  -1.34792  -0.71853  -0.70429  -0.56032
 Alpha  occ. eigenvalues --   -0.54580  -0.50808  -0.49390
 Alpha virt. eigenvalues --    0.19633   0.21097   0.29890   0.31375   0.79743
 Alpha virt. eigenvalues --    0.81130   0.82612   0.84116   0.85782   0.87212
 Alpha virt. eigenvalues --    1.16754   1.18178   1.21195   1.22667   2.56723

 Mulliken charges:
               1
     1  O   -0.746984
     2  H    0.377365
     3  H    0.369615
     4  O   -0.746545
     5  H    0.373401
     6  H    0.373149
 Sum of Mulliken charges =  -0.00000

 Dipole moment (field-independent basis, Debye):
    X=              1.0640    Y=             -3.9900    Z=              0.0000  Tot=              4.1295
 Quadrupole moment (field-independent basis, Debye-Ang):
   XX=             -9.5989   YY=             -5.8377   ZZ=            -14.9916
   XY=              9.7220   XZ=              0.0000   YZ=              0.0000

 94\MP4DQ=-33.8929167\MP4SDQ=-33.8949405\CCSD=-33.8959931\CCSD(T)=-33.8
 Normal termination of Gaussian 16 at Sun Dec 10 06:57:32 2023.
