 Gaussian 16, Revision A.03,
 Gaussian 16:  ES64L-G16RevA.03 25-Dec-2016

 ------------------
 #p CCSD(T)/CEP-31G
 ------------------

 ------------
 H2O_H2O_3728
 ------------
 Symbolic Z-matrix:
 Charge =  0 Multiplicity = 1

                         Standard orientation:
 ---------------------------------------------------------------------
 Center     Atomic      Atomic             Coordinates (Angstroms)
 Number     Number       Type             X           Y           Z
 ---------------------------------------------------------------------
      1          8           0        0.085599   -2.581822    0.000000
      2          1           0        0.085350   -1.599221    0.000000
      3          1           0       -0.843813   -2.900724    0.000000
      4          8           0        0.085599    2.432221    0.000000
      5          1           0        0.277050    3.395991    0.000000
      6          1           0       -0.888170    2.300766    0.000000
 ---------------------------------------------------------------------

 SCF Done:  E(RHF) =  -33.6526225758     A.U. after   11 cycles
 E2 =    -0.2283479235D+00 EUMP2 =    -0.33880970499323D+02
 CCSD(T)
 CCSD(T)= -0.33897949008D+02

 The electronic state is 1-A'.
 Alpha  occ. eigenvalues --   -1.36488  -1.34846  -0.72142  -0.70456  -0.56277
 Alpha  occ. eigenvalues --   -0.54594  -0.51068  -0.49424
 Alpha virt. eigenvalues --    0.19004   0.21251   0.29570   0.31322   0.79502
 Alpha virt. eigenvalues --    0.81104   0.82369   0.84117   0.85464   0.87413
 Alpha virt. eigenvalues --    1.16388   1.18200   1.20886   1.23046   2.56246

 Mulliken charges:
               1
     1  O   -0.744461
     2  H    0.378494
     3  H    0.365878
     4  O   -0.744806
     5  H    0.376405
     6  H    0.368490
 Sum of Mulliken charges =   0.00000

 Dipole moment (field-independent basis, Debye):
    X=             -3.9270    Y=              3.5349    Z=              0.0000  Tot=              5.2836
 Quadrupole moment (field-independent basis, Debye-Ang):
   XX=            -10.8062   YY=             -8.1879   ZZ=            -14.9897
   XY=              3.2328   XZ=              0.0000   YZ=              0.0000

 5632\MP4DQ=-33.8923066\MP4SDQ=-33.8943347\CCSD=-33.8953863\CCSD(T)=-33
 Normal termination of Gaussian 16 at Sun Dec 10 06:40:05 2023.
