 Gaussian 16, Revision A.03,
 Gaussian 16:  ES64L-G16RevA.03 25-Dec-2016

 ------------------
 #p CCSD(T)/CEP-31G
 ------------------

 ------------
 H2O_H2O_2367
 ------------
 Symbolic Z-matrix:
 Charge =  0 Multiplicity = 1

                         Standard orientation:
 ---------------------------------------------------------------------
 Center     Atomic      Atomic             Coordinates (Angstroms)
 Number     Number       Type             X           Y           Z
 ---------------------------------------------------------------------
      1          8           0        0.037476    2.049310   -0.000000
      2          1           0        0.035072    1.066711   -0.000000
      3          1           0       -0.891235    2.370249   -0.000000
      4          8           0        0.037476   -1.870370    0.000000
      5          1           0        0.917679   -2.307119    0.000000
      6          1           0       -0.661124   -2.561358    0.000000
 ---------------------------------------------------------------------

 SCF Done:  E(RHF) =  -33.6572894253     A.U. after   11 cycles
 E2 =    -0.2284419595D+00 EUMP2 =    -0.33885731384726D+02
 CCSD(T)
 CCSD(T)= -0.33902613732D+02

 The electronic state is 1-A'.
 Alpha  occ. eigenvalues --   -1.37077  -1.33489  -0.72726  -0.69124  -0.57169
 Alpha  occ. eigenvalues --   -0.53345  -0.51726  -0.48137
 Alpha virt. eigenvalues --    0.18358   0.23272   0.29241   0.33686   0.78769
 Alpha virt. eigenvalues --    0.82403   0.83687   0.85575   0.86184   0.88490
 Alpha virt. eigenvalues --    1.16015   1.19980   1.20482   1.30144   2.53747

 Mulliken charges:
               1
     1  O   -0.763848
     2  H    0.397826
     3  H    0.364048
     4  O   -0.758467
     5  H    0.381688
     6  H    0.378753
 Sum of Mulliken charges =  -0.00000

 Dipole moment (field-independent basis, Debye):
    X=             -1.6961    Y=             -4.3478    Z=              0.0000  Tot=              4.6669
 Quadrupole moment (field-independent basis, Debye-Ang):
   XX=             -9.4053   YY=             -7.1291   ZZ=            -14.9994
   XY=             -5.9393   XZ=              0.0000   YZ=             -0.0000

 84\MP4DQ=-33.8969377\MP4SDQ=-33.8989973\CCSD=-33.9000257\CCSD(T)=-33.9
 Normal termination of Gaussian 16 at Sun Dec 10 07:05:00 2023.
