 Gaussian 16, Revision A.03,
 Gaussian 16:  ES64L-G16RevA.03 25-Dec-2016

 ------------------
 #p CCSD(T)/CEP-31G
 ------------------

 -----------
 H2O_H2O_659
 -----------
 Symbolic Z-matrix:
 Charge =  0 Multiplicity = 1

                         Standard orientation:
 ---------------------------------------------------------------------
 Center     Atomic      Atomic             Coordinates (Angstroms)
 Number     Number       Type             X           Y           Z
 ---------------------------------------------------------------------
      1          8           0        0.066827    1.367992    0.000000
      2          1           0        0.065092    0.385393    0.000000
      3          1           0       -0.862103    1.688299   -0.000000
      4          8           0        0.066827   -1.194990    0.000000
      5          1           0        0.611289   -2.012956    0.000000
      6          1           0       -0.883503   -1.444751   -0.000000
 ---------------------------------------------------------------------

 SCF Done:  E(RHF) =  -33.6556917328     A.U. after   11 cycles
 E2 =    -0.2290178189D+00 EUMP2 =    -0.33884709551709D+02
 CCSD(T)
 CCSD(T)= -0.33900794197D+02

 The electronic state is 1-A'.
 Alpha  occ. eigenvalues --   -1.40386  -1.30379  -0.76151  -0.69718  -0.58884
 Alpha  occ. eigenvalues --   -0.54951  -0.49471  -0.44861
 Alpha virt. eigenvalues --    0.16998   0.26583   0.27734   0.51069   0.74293
 Alpha virt. eigenvalues --    0.75771   0.85303   0.88164   0.96308   1.05663
 Alpha virt. eigenvalues --    1.15861   1.19053   1.23119   1.36427   2.63770

 Mulliken charges:
               1
     1  O   -0.764966
     2  H    0.420757
     3  H    0.332443
     4  O   -0.829207
     5  H    0.444998
     6  H    0.395975
 Sum of Mulliken charges =  -0.00000

 Dipole moment (field-independent basis, Debye):
    X=             -2.8432    Y=             -4.8046    Z=             -0.0000  Tot=              5.5828
 Quadrupole moment (field-independent basis, Debye-Ang):
   XX=             -9.8755   YY=             -9.3723   ZZ=            -15.0078
   XY=             -3.5682   XZ=              0.0000   YZ=             -0.0000

 9\MP4DQ=-33.8948111\MP4SDQ=-33.8970146\CCSD=-33.8978747\CCSD(T)=-33.90
 Normal termination of Gaussian 16 at Sun Dec 10 06:30:55 2023.
