 Gaussian 16, Revision A.03,
 Gaussian 16:  ES64L-G16RevA.03 25-Dec-2016

 ------------------
 #p CCSD(T)/CEP-31G
 ------------------

 -----------
 H2O_H2O_282
 -----------
 Symbolic Z-matrix:
 Charge =  0 Multiplicity = 1

                         Standard orientation:
 ---------------------------------------------------------------------
 Center     Atomic      Atomic             Coordinates (Angstroms)
 Number     Number       Type             X           Y           Z
 ---------------------------------------------------------------------
      1          8           0        0.073598   -1.215062    0.000000
      2          1           0        0.072142   -0.232461    0.000000
      3          1           0       -0.855422   -1.535105    0.000000
      4          8           0        0.073598    1.048229    0.000000
      5          1           0        0.506886    1.930141    0.000000
      6          1           0       -0.901167    1.172086    0.000000
 ---------------------------------------------------------------------

 SCF Done:  E(RHF) =  -33.6279699179     A.U. after   11 cycles
 E2 =    -0.2284408922D+00 EUMP2 =    -0.33856410810068D+02
 CCSD(T)
 CCSD(T)= -0.33871784979D+02

 The electronic state is 1-A'.
 Alpha  occ. eigenvalues --   -1.43408  -1.28926  -0.79916  -0.72708  -0.57186
 Alpha  occ. eigenvalues --   -0.56908  -0.47107  -0.43123
 Alpha virt. eigenvalues --    0.16354   0.24929   0.29190   0.58400   0.73387
 Alpha virt. eigenvalues --    0.74809   0.87155   0.90150   0.96442   1.07127
 Alpha virt. eigenvalues --    1.13438   1.22608   1.24816   1.35831   2.88429

 Mulliken charges:
               1
     1  O   -0.729932
     2  H    0.356160
     3  H    0.313140
     4  O   -0.824000
     5  H    0.481183
     6  H    0.403449
 Sum of Mulliken charges =   0.00000

 Dipole moment (field-independent basis, Debye):
    X=             -3.0278    Y=              5.0909    Z=              0.0000  Tot=              5.9233
 Quadrupole moment (field-independent basis, Debye-Ang):
   XX=            -10.1490   YY=            -10.0848   ZZ=            -14.9624
   XY=              3.1594   XZ=              0.0000   YZ=              0.0000

 3\MP4DQ=-33.8655992\MP4SDQ=-33.8679508\CCSD=-33.8686757\CCSD(T)=-33.87
 Normal termination of Gaussian 16 at Sun Dec 10 06:23:36 2023.
