 Gaussian 16, Revision A.03,
 Gaussian 16:  ES64L-G16RevA.03 25-Dec-2016

 ------------------
 #p CCSD(T)/CEP-31G
 ------------------

 -----------
 H2O_H2O_920
 -----------
 Symbolic Z-matrix:
 Charge =  0 Multiplicity = 1

                         Standard orientation:
 ---------------------------------------------------------------------
 Center     Atomic      Atomic             Coordinates (Angstroms)
 Number     Number       Type             X           Y           Z
 ---------------------------------------------------------------------
      1          8           0        0.026797    1.467795    0.000000
      2          1           0        0.022723    0.485202    0.000000
      3          1           0       -0.901367    1.790313    0.000000
      4          8           0        0.026797   -1.294657   -0.000000
      5          1           0        0.974854   -1.552905   -0.000000
      6          1           0       -0.524959   -2.107720   -0.000000
 ---------------------------------------------------------------------

 SCF Done:  E(RHF) =  -33.6624969135     A.U. after   11 cycles
 E2 =    -0.2288190954D+00 EUMP2 =    -0.33891316008926D+02
 CCSD(T)
 CCSD(T)= -0.33907698751D+02

 The electronic state is 1-A'.
 Alpha  occ. eigenvalues --   -1.39217  -1.30979  -0.74943  -0.68337  -0.59434
 Alpha  occ. eigenvalues --   -0.53926  -0.50453  -0.45631
 Alpha virt. eigenvalues --    0.17588   0.26860   0.27758   0.46672   0.75179
 Alpha virt. eigenvalues --    0.77045   0.86261   0.86891   0.93315   1.04557
 Alpha virt. eigenvalues --    1.16184   1.18555   1.23509   1.36691   2.55055

 Mulliken charges:
               1
     1  O   -0.784842
     2  H    0.425978
     3  H    0.352233
     4  O   -0.818261
     5  H    0.403195
     6  H    0.421696
 Sum of Mulliken charges =  -0.00000

 Dipole moment (field-independent basis, Debye):
    X=             -1.1916    Y=             -4.6208    Z=             -0.0000  Tot=              4.7720
 Quadrupole moment (field-independent basis, Debye-Ang):
   XX=             -9.4728   YY=             -8.9370   ZZ=            -15.0181
   XY=             -4.6293   XZ=             -0.0000   YZ=              0.0000

 4\MP4DQ=-33.9018309\MP4SDQ=-33.9039621\CCSD=-33.9048897\CCSD(T)=-33.90
 Normal termination of Gaussian 16 at Sun Dec 10 06:35:49 2023.
