 Gaussian 16, Revision A.03,
 Gaussian 16:  ES64L-G16RevA.03 25-Dec-2016

 ------------------
 #p CCSD(T)/CEP-31G
 ------------------

 -----------
 H2O_H2O_306
 -----------
 Symbolic Z-matrix:
 Charge =  0 Multiplicity = 1

                         Standard orientation:
 ---------------------------------------------------------------------
 Center     Atomic      Atomic             Coordinates (Angstroms)
 Number     Number       Type             X           Y           Z
 ---------------------------------------------------------------------
      1          8           0        0.076808   -1.223013    0.000000
      2          1           0        0.075604   -0.240413    0.000000
      3          1           0       -0.852294   -1.542818    0.000000
      4          8           0        0.076808    1.059898    0.000000
      5          1           0        0.451721    1.968163    0.000000
      6          1           0       -0.903955    1.119989    0.000000
 ---------------------------------------------------------------------

 SCF Done:  E(RHF) =  -33.6287724584     A.U. after   11 cycles
 E2 =    -0.2284542742D+00 EUMP2 =    -0.33857226732521D+02
 CCSD(T)
 CCSD(T)= -0.33872757388D+02

 The electronic state is 1-A'.
 Alpha  occ. eigenvalues --   -1.43220  -1.29297  -0.79993  -0.71967  -0.57254
 Alpha  occ. eigenvalues --   -0.56989  -0.47611  -0.43514
 Alpha virt. eigenvalues --    0.16350   0.24823   0.29049   0.57683   0.73394
 Alpha virt. eigenvalues --    0.75172   0.87053   0.89870   0.96805   1.07558
 Alpha virt. eigenvalues --    1.13740   1.23813   1.24571   1.37000   2.86751

 Mulliken charges:
               1
     1  O   -0.724408
     2  H    0.351092
     3  H    0.314945
     4  O   -0.822215
     5  H    0.482077
     6  H    0.398509
 Sum of Mulliken charges =   0.00000

 Dipole moment (field-independent basis, Debye):
    X=             -3.1795    Y=              4.9684    Z=              0.0000  Tot=              5.8987
 Quadrupole moment (field-independent basis, Debye-Ang):
   XX=            -10.3210   YY=            -10.0067   ZZ=            -14.9631
   XY=              3.0666   XZ=              0.0000   YZ=              0.0000

 04\MP4DQ=-33.8665651\MP4SDQ=-33.8689253\CCSD=-33.8696704\CCSD(T)=-33.8
 Normal termination of Gaussian 16 at Sun Dec 10 06:24:05 2023.
