 Gaussian 16, Revision A.03,
 Gaussian 16:  ES64L-G16RevA.03 25-Dec-2016

 ------------------
 #p CCSD(T)/CEP-31G
 ------------------

 -----------
 H2O_H2O_450
 -----------
 Symbolic Z-matrix:
 Charge =  0 Multiplicity = 1

                         Standard orientation:
 ---------------------------------------------------------------------
 Center     Atomic      Atomic             Coordinates (Angstroms)
 Number     Number       Type             X           Y           Z
 ---------------------------------------------------------------------
      1          8           0        0.092949   -1.266366    0.000000
      2          1           0        0.092949   -0.283765    0.000000
      3          1           0       -0.836544   -1.585033    0.000000
      4          8           0        0.092949    1.133579    0.000000
      5          1           0        0.092950    2.116182    0.000000
      6          1           0       -0.836544    0.814913    0.000000
 ---------------------------------------------------------------------

 SCF Done:  E(RHF) =  -33.6252772037     A.U. after   11 cycles
 E2 =    -0.2292112070D+00 EUMP2 =    -0.33854488410649D+02
 CCSD(T)
 CCSD(T)= -0.33870834878D+02

 The electronic state is 1-A'.
 Alpha  occ. eigenvalues --   -1.42465  -1.31827  -0.80505  -0.68561  -0.59176
 Alpha  occ. eigenvalues --   -0.55997  -0.50733  -0.46096
 Alpha virt. eigenvalues --    0.16301   0.24332   0.28420   0.52782   0.73305
 Alpha virt. eigenvalues --    0.77518   0.86254   0.88025   0.93853   1.11418
 Alpha virt. eigenvalues --    1.12740   1.24424   1.29824   1.44719   2.67274

 Mulliken charges:
               1
     1  O   -0.688948
     2  H    0.296144
     3  H    0.327083
     4  O   -0.756933
     5  H    0.455443
     6  H    0.367212
 Sum of Mulliken charges =   0.00000

 Dipole moment (field-independent basis, Debye):
    X=             -3.9952    Y=              4.0120    Z=              0.0000  Tot=              5.6620
 Quadrupole moment (field-independent basis, Debye-Ang):
   XX=            -11.3756   YY=            -10.0546   ZZ=            -14.9553
   XY=              2.1503   XZ=              0.0000   YZ=              0.0000

 631\MP4DQ=-33.8645548\MP4SDQ=-33.8669947\CCSD=-33.8677854\CCSD(T)=-33.
 Normal termination of Gaussian 16 at Sun Dec 10 06:26:58 2023.
