 Gaussian 16, Revision A.03,
 Gaussian 16:  ES64L-G16RevA.03 25-Dec-2016

 ------------------
 #p CCSD(T)/CEP-31G
 ------------------

 ------------
 H2O_H2O_3440
 ------------
 Symbolic Z-matrix:
 Charge =  0 Multiplicity = 1

                         Standard orientation:
 ---------------------------------------------------------------------
 Center     Atomic      Atomic             Coordinates (Angstroms)
 Number     Number       Type             X           Y           Z
 ---------------------------------------------------------------------
      1          8           0        0.044849    2.478897    0.000000
      2          1           0        0.043140    1.496297    0.000000
      3          1           0       -0.884088    2.799180   -0.000000
      4          8           0        0.044849   -2.298489    0.000000
      5          1           0        0.860902   -2.845813    0.000000
      6          1           0       -0.737546   -2.892932   -0.000000
 ---------------------------------------------------------------------

 SCF Done:  E(RHF) =  -33.6545128665     A.U. after   11 cycles
 E2 =    -0.2282936356D+00 EUMP2 =    -0.33882806502051D+02
 CCSD(T)
 CCSD(T)= -0.33899730091D+02

 The electronic state is 1-A'.
 Alpha  occ. eigenvalues --   -1.36535  -1.34244  -0.72178  -0.69869  -0.56429
 Alpha  occ. eigenvalues --   -0.54056  -0.51146  -0.48856
 Alpha virt. eigenvalues --    0.19181   0.21865   0.29634   0.32056   0.79418
 Alpha virt. eigenvalues --    0.81635   0.82229   0.84653   0.85421   0.87792
 Alpha virt. eigenvalues --    1.16482   1.18891   1.20912   1.23990   2.56427

 Mulliken charges:
               1
     1  O   -0.751732
     2  H    0.384767
     3  H    0.366639
     4  O   -0.750316
     5  H    0.376853
     6  H    0.373790
 Sum of Mulliken charges =  -0.00000

 Dipole moment (field-independent basis, Debye):
    X=             -2.0501    Y=             -4.2762    Z=             -0.0000  Tot=              4.7422
 Quadrupole moment (field-independent basis, Debye-Ang):
   XX=             -9.4261   YY=             -6.0657   ZZ=            -14.9941
   XY=             -6.5276   XZ=              0.0000   YZ=             -0.0000

 455\MP4DQ=-33.8940975\MP4SDQ=-33.8961254\CCSD=-33.8971707\CCSD(T)=-33.
 Normal termination of Gaussian 16 at Sun Dec 10 06:34:56 2023.
