 Gaussian 16, Revision A.03,
 Gaussian 16:  ES64L-G16RevA.03 25-Dec-2016

 ------------------
 #p CCSD(T)/CEP-31G
 ------------------

 ------------
 H2O_H2O_3739
 ------------
 Symbolic Z-matrix:
 Charge =  0 Multiplicity = 1

                         Standard orientation:
 ---------------------------------------------------------------------
 Center     Atomic      Atomic             Coordinates (Angstroms)
 Number     Number       Type             X           Y           Z
 ---------------------------------------------------------------------
      1          8           0        0.048568    2.598557    0.000000
      2          1           0        0.047066    1.615957    0.000000
      3          1           0       -0.880437    2.918644    0.000000
      4          8           0        0.048568   -2.418152   -0.000000
      5          1           0        0.827203   -3.017513   -0.000000
      6          1           0       -0.770917   -2.960325   -0.000000
 ---------------------------------------------------------------------

 SCF Done:  E(RHF) =  -33.6540192142     A.U. after   11 cycles
 E2 =    -0.2282907925D+00 EUMP2 =    -0.33882310006720D+02
 CCSD(T)
 CCSD(T)= -0.33899246806D+02

 The electronic state is 1-A'.
 Alpha  occ. eigenvalues --   -1.36440  -1.34389  -0.72082  -0.70014  -0.56305
 Alpha  occ. eigenvalues --   -0.54189  -0.51044  -0.48994
 Alpha virt. eigenvalues --    0.19343   0.21631   0.29702   0.31871   0.79517
 Alpha virt. eigenvalues --    0.81507   0.82274   0.84530   0.85521   0.87652
 Alpha virt. eigenvalues --    1.16557   1.18660   1.20992   1.23411   2.56520

 Mulliken charges:
               1
     1  O   -0.749811
     2  H    0.382685
     3  H    0.366979
     4  O   -0.748842
     5  H    0.376071
     6  H    0.372918
 Sum of Mulliken charges =   0.00000

 Dipole moment (field-independent basis, Debye):
    X=             -2.2240    Y=             -4.2594    Z=             -0.0000  Tot=              4.8051
 Quadrupole moment (field-independent basis, Debye-Ang):
   XX=             -9.4613   YY=             -5.7973   ZZ=            -14.9931
   XY=             -6.5129   XZ=             -0.0000   YZ=              0.0000

 1\MP4DQ=-33.8936152\MP4SDQ=-33.8956404\CCSD=-33.8966888\CCSD(T)=-33.89
 Normal termination of Gaussian 16 at Sun Dec 10 06:40:17 2023.
