 Gaussian 16, Revision A.03,
 Gaussian 16:  ES64L-G16RevA.03 25-Dec-2016

 ------------------
 #p CCSD(T)/CEP-31G
 ------------------

 ------------
 H2O_H2O_1504
 ------------
 Symbolic Z-matrix:
 Charge =  0 Multiplicity = 1

                         Standard orientation:
 ---------------------------------------------------------------------
 Center     Atomic      Atomic             Coordinates (Angstroms)
 Number     Number       Type             X           Y           Z
 ---------------------------------------------------------------------
      1          8           0        0.082816   -1.696979    0.000000
      2          1           0        0.082284   -0.714377    0.000000
      3          1           0       -0.846505   -2.016148    0.000000
      4          8           0        0.082816    1.542486    0.000000
      5          1           0        0.336618    2.491744    0.000000
      6          1           0       -0.897446    1.474718    0.000000
 ---------------------------------------------------------------------

 SCF Done:  E(RHF) =  -33.6560546095     A.U. after   11 cycles
 E2 =    -0.2289434844D+00 EUMP2 =    -0.33884998093856D+02
 CCSD(T)
 CCSD(T)= -0.33901979413D+02

 The electronic state is 1-A'.
 Alpha  occ. eigenvalues --   -1.38074  -1.33352  -0.73918  -0.68958  -0.58170
 Alpha  occ. eigenvalues --   -0.53030  -0.52667  -0.47929
 Alpha virt. eigenvalues --    0.17118   0.24618   0.28251   0.37758   0.77020
 Alpha virt. eigenvalues --    0.81092   0.83635   0.85065   0.89881   1.04255
 Alpha virt. eigenvalues --    1.15109   1.17905   1.21430   1.38881   2.50673

 Mulliken charges:
               1
     1  O   -0.761077
     2  H    0.404795
     3  H    0.352470
     4  O   -0.768402
     5  H    0.401227
     6  H    0.370987
 Sum of Mulliken charges =  -0.00000

 Dipole moment (field-independent basis, Debye):
    X=             -3.7129    Y=              3.9274    Z=              0.0000  Tot=              5.4046
 Quadrupole moment (field-independent basis, Debye-Ang):
   XX=            -10.6743   YY=             -8.7377   ZZ=            -14.9959
   XY=              3.1060   XZ=              0.0000   YZ=              0.0000

 331\MP4DQ=-33.8961474\MP4SDQ=-33.898288\CCSD=-33.8992986\CCSD(T)=-33.9
 Normal termination of Gaussian 16 at Sun Dec 10 06:47:09 2023.
