 Gaussian 16, Revision A.03,
 Gaussian 16:  ES64L-G16RevA.03 25-Dec-2016

 ------------------
 #p CCSD(T)/CEP-31G
 ------------------

 ------------
 H2O_H2O_4115
 ------------
 Symbolic Z-matrix:
 Charge =  0 Multiplicity = 1

                         Standard orientation:
 ---------------------------------------------------------------------
 Center     Atomic      Atomic             Coordinates (Angstroms)
 Number     Number       Type             X           Y           Z
 ---------------------------------------------------------------------
      1          8           0        0.044834    2.748147    0.000000
      2          1           0        0.043298    1.765547    0.000000
      3          1           0       -0.884160    3.068266    0.000000
      4          8           0        0.044834   -2.567722    0.000000
      5          1           0        0.860983   -3.114903    0.000000
      6          1           0       -0.737458   -3.162304    0.000000
 ---------------------------------------------------------------------

 SCF Done:  E(RHF) =  -33.6536631089     A.U. after   11 cycles
 E2 =    -0.2282906774D+00 EUMP2 =    -0.33881953786286D+02
 CCSD(T)
 CCSD(T)= -0.33898900867D+02

 The electronic state is 1-A'.
 Alpha  occ. eigenvalues --   -1.36337  -1.34531  -0.71978  -0.70159  -0.56181
 Alpha  occ. eigenvalues --   -0.54324  -0.50936  -0.49132
 Alpha virt. eigenvalues --    0.19494   0.21420   0.29786   0.31693   0.79619
 Alpha virt. eigenvalues --    0.81378   0.82413   0.84379   0.85645   0.87493
 Alpha virt. eigenvalues --    1.16645   1.18466   1.21084   1.23035   2.56602

 Mulliken charges:
               1
     1  O   -0.748434
     2  H    0.380601
     3  H    0.367786
     4  O   -0.747695
     5  H    0.375065
     6  H    0.372676
 Sum of Mulliken charges =   0.00000

 Dipole moment (field-independent basis, Debye):
    X=             -2.0561    Y=             -4.2435    Z=              0.0000  Tot=              4.7154
 Quadrupole moment (field-independent basis, Debye-Ang):
   XX=             -9.4280   YY=             -5.4541   ZZ=            -14.9924
   XY=             -7.1301   XZ=              0.0000   YZ=              0.0000

 04\MP4DQ=-33.8932692\MP4SDQ=-33.895293\CCSD=-33.8963437\CCSD(T)=-33.89
 Normal termination of Gaussian 16 at Sun Dec 10 06:47:03 2023.
