 Gaussian 16, Revision A.03,
 Gaussian 16:  ES64L-G16RevA.03 25-Dec-2016

 ------------------
 #p CCSD(T)/CEP-31G
 ------------------

 ------------
 H2O_H2O_1848
 ------------
 Symbolic Z-matrix:
 Charge =  0 Multiplicity = 1

                         Standard orientation:
 ---------------------------------------------------------------------
 Center     Atomic      Atomic             Coordinates (Angstroms)
 Number     Number       Type             X           Y           Z
 ---------------------------------------------------------------------
      1          8           0       -0.016696    1.831444    0.000000
      2          1           0       -0.012995    0.848849    0.000000
      3          1           0        0.911590    2.153609    0.000000
      4          8           0       -0.016696   -1.668082    0.000000
      5          1           0       -0.996944   -1.736040    0.000000
      6          1           0        0.365493   -2.573310    0.000000
 ---------------------------------------------------------------------

 SCF Done:  E(RHF) =  -33.6590320909     A.U. after   11 cycles
 E2 =    -0.2285863462D+00 EUMP2 =    -0.33887618437075D+02
 CCSD(T)
 CCSD(T)= -0.33904507624D+02

 The electronic state is 1-A'.
 Alpha  occ. eigenvalues --   -1.37498  -1.33247  -0.73202  -0.68946  -0.57756
 Alpha  occ. eigenvalues --   -0.53110  -0.52158  -0.47924
 Alpha virt. eigenvalues --    0.17797   0.24307   0.28937   0.35779   0.77970
 Alpha virt. eigenvalues --    0.81868   0.83010   0.86039   0.88092   0.95620
 Alpha virt. eigenvalues --    1.15673   1.19456   1.20879   1.36047   2.52269

 Mulliken charges:
               1
     1  O   -0.772658
     2  H    0.403660
     3  H    0.366245
     4  O   -0.769504
     5  H    0.383235
     6  H    0.389022
 Sum of Mulliken charges =  -0.00000

 Dipole moment (field-independent basis, Debye):
    X=              0.7497    Y=             -4.0483    Z=              0.0000  Tot=              4.1172
 Quadrupole moment (field-independent basis, Debye-Ang):
   XX=             -9.7530   YY=             -8.1838   ZZ=            -15.0024
   XY=              6.3791   XZ=              0.0000   YZ=              0.0000

 244\MP4DQ=-33.8987681\MP4SDQ=-33.9008596\CCSD=-33.9018788\CCSD(T)=-33.
 Normal termination of Gaussian 16 at Sun Dec 10 06:53:46 2023.
