 Gaussian 16, Revision A.03,
 Gaussian 16:  ES64L-G16RevA.03 25-Dec-2016

 ------------------
 #p CCSD(T)/CEP-31G
 ------------------

 -----------
 H2O_H2O_414
 -----------
 Symbolic Z-matrix:
 Charge =  0 Multiplicity = 1

                         Standard orientation:
 ---------------------------------------------------------------------
 Center     Atomic      Atomic             Coordinates (Angstroms)
 Number     Number       Type             X           Y           Z
 ---------------------------------------------------------------------
      1          8           0        0.048722    1.272210    0.000000
      2          1           0        0.045537    0.289614    0.000000
      3          1           0       -0.879733    1.593888   -0.000000
      4          8           0        0.048722   -1.091972    0.000000
      5          1           0        0.826329   -1.692667    0.000000
      6          1           0       -0.771690   -1.632740   -0.000000
 ---------------------------------------------------------------------

 SCF Done:  E(RHF) =  -33.6476451964     A.U. after   11 cycles
 E2 =    -0.2287508082D+00 EUMP2 =    -0.33876396004561D+02
 CCSD(T)
 CCSD(T)= -0.33891733557D+02

 The electronic state is 1-A'.
 Alpha  occ. eigenvalues --   -1.41894  -1.28682  -0.76777  -0.73130  -0.57507
 Alpha  occ. eigenvalues --   -0.56317  -0.47152  -0.43046
 Alpha virt. eigenvalues --    0.16867   0.26433   0.28766   0.57041   0.73736
 Alpha virt. eigenvalues --    0.73754   0.85713   0.89938   0.94724   1.02704
 Alpha virt. eigenvalues --    1.13789   1.17368   1.25332   1.36080   2.75227

 Mulliken charges:
               1
     1  O   -0.768735
     2  H    0.408497
     3  H    0.324778
     4  O   -0.832365
     5  H    0.442163
     6  H    0.425662
 Sum of Mulliken charges =   0.00000

 Dipole moment (field-independent basis, Debye):
    X=             -2.0414    Y=             -5.2258    Z=             -0.0000  Tot=              5.6104
 Quadrupole moment (field-independent basis, Debye-Ang):
   XX=             -9.3669   YY=             -9.9655   ZZ=            -14.9987
   XY=             -3.6578   XZ=              0.0000   YZ=             -0.0000

 8\MP4DQ=-33.8857081\MP4SDQ=-33.8879253\CCSD=-33.8886648\CCSD(T)=-33.89
 Normal termination of Gaussian 16 at Sun Dec 10 06:26:12 2023.
