 Gaussian 16, Revision A.03,
 Gaussian 16:  ES64L-G16RevA.03 25-Dec-2016

 ------------------
 #p CCSD(T)/CEP-31G
 ------------------

 ------------
 H2O_H2O_2662
 ------------
 Symbolic Z-matrix:
 Charge =  0 Multiplicity = 1

                         Standard orientation:
 ---------------------------------------------------------------------
 Center     Atomic      Atomic             Coordinates (Angstroms)
 Number     Number       Type             X           Y           Z
 ---------------------------------------------------------------------
      1          8           0        0.056001    2.168944   -0.000000
      2          1           0        0.054492    1.186344   -0.000000
      3          1           0       -0.873002    2.489037   -0.000000
      4          8           0        0.056001   -1.990050    0.000000
      5          1           0        0.749738   -2.685921    0.000000
      6          1           0       -0.827244   -2.420614    0.000000
 ---------------------------------------------------------------------

 SCF Done:  E(RHF) =  -33.6558144714     A.U. after   11 cycles
 E2 =    -0.2283976353D+00 EUMP2 =    -0.33884212106637D+02
 CCSD(T)
 CCSD(T)= -0.33901116875D+02

 The electronic state is 1-A'.
 Alpha  occ. eigenvalues --   -1.36910  -1.33796  -0.72561  -0.69407  -0.56892
 Alpha  occ. eigenvalues --   -0.53619  -0.51537  -0.48419
 Alpha virt. eigenvalues --    0.18517   0.22710   0.29314   0.32880   0.79018
 Alpha virt. eigenvalues --    0.82078   0.83642   0.84672   0.85372   0.88280
 Alpha virt. eigenvalues --    1.16142   1.19599   1.20576   1.27819   2.55007

 Mulliken charges:
               1
     1  O   -0.757401
     2  H    0.392688
     3  H    0.363302
     4  O   -0.753952
     5  H    0.380817
     6  H    0.374546
 Sum of Mulliken charges =   0.00000

 Dipole moment (field-independent basis, Debye):
    X=             -2.5466    Y=             -4.3121    Z=              0.0000  Tot=              5.0080
 Quadrupole moment (field-independent basis, Debye-Ang):
   XX=             -9.5834   YY=             -6.8590   ZZ=            -14.9965
   XY=             -5.2031   XZ=              0.0000   YZ=             -0.0000

 046\MP4DQ=-33.8954577\MP4SDQ=-33.8975069\CCSD=-33.8985408\CCSD(T)=-33.
 Normal termination of Gaussian 16 at Sun Dec 10 06:20:55 2023.
