 Gaussian 16, Revision A.03,
 Gaussian 16:  ES64L-G16RevA.03 25-Dec-2016

 ------------------
 #p CCSD(T)/CEP-31G
 ------------------

 ------------
 H2O_H2O_1918
 ------------
 Symbolic Z-matrix:
 Charge =  0 Multiplicity = 1

                         Standard orientation:
 ---------------------------------------------------------------------
 Center     Atomic      Atomic             Coordinates (Angstroms)
 Number     Number       Type             X           Y           Z
 ---------------------------------------------------------------------
      1          8           0        0.033845    1.869025    0.000000
      2          1           0        0.031024    0.886428    0.000000
      3          1           0       -0.894730    2.190358    0.000000
      4          8           0        0.033845   -1.691544   -0.000000
      5          1           0        0.940568   -2.070173   -0.000000
      6          1           0       -0.618379   -2.426465   -0.000000
 ---------------------------------------------------------------------

 SCF Done:  E(RHF) =  -33.6592543894     A.U. after   11 cycles
 E2 =    -0.2285974005D+00 EUMP2 =    -0.33887851789913D+02
 CCSD(T)
 CCSD(T)= -0.33904706599D+02

 The electronic state is 1-A'.
 Alpha  occ. eigenvalues --   -1.37441  -1.32996  -0.73093  -0.68682  -0.57722
 Alpha  occ. eigenvalues --   -0.52852  -0.52113  -0.47664
 Alpha virt. eigenvalues --    0.18110   0.24205   0.28985   0.35737   0.78130
 Alpha virt. eigenvalues --    0.82351   0.83129   0.86319   0.88526   0.92017
 Alpha virt. eigenvalues --    1.15677   1.19891   1.20749   1.33373   2.51446

 Mulliken charges:
               1
     1  O   -0.772736
     2  H    0.408199
     3  H    0.362182
     4  O   -0.767236
     5  H    0.385362
     6  H    0.384229
 Sum of Mulliken charges =   0.00000

 Dipole moment (field-independent basis, Debye):
    X=             -1.5225    Y=             -4.3844    Z=             -0.0000  Tot=              4.6412
 Quadrupole moment (field-independent basis, Debye-Ang):
   XX=             -9.4179   YY=             -7.6365   ZZ=            -15.0035
   XY=             -5.6244   XZ=             -0.0000   YZ=              0.0000

 4\MP4DQ=-33.8989873\MP4SDQ=-33.9010643\CCSD=-33.9020847\CCSD(T)=-33.90
 Normal termination of Gaussian 16 at Sun Dec 10 06:55:05 2023.
