 Gaussian 16, Revision A.03,
 Gaussian 16:  ES64L-G16RevA.03 25-Dec-2016

 ------------------
 #p CCSD(T)/CEP-31G
 ------------------

 ------------
 H2O_H2O_3759
 ------------
 Symbolic Z-matrix:
 Charge =  0 Multiplicity = 1

                         Standard orientation:
 ---------------------------------------------------------------------
 Center     Atomic      Atomic             Coordinates (Angstroms)
 Number     Number       Type             X           Y           Z
 ---------------------------------------------------------------------
      1          8           0        0.066752    2.604569    0.000000
      2          1           0        0.065869    1.621968    0.000000
      3          1           0       -0.862455    2.924070    0.000000
      4          8           0        0.066752   -2.431452    0.000000
      5          1           0        0.611922   -3.248944    0.000000
      6          1           0       -0.883361   -2.682035    0.000000
 ---------------------------------------------------------------------

 SCF Done:  E(RHF) =  -33.6535086601     A.U. after   11 cycles
 E2 =    -0.2283110937D+00 EUMP2 =    -0.33881819753826D+02
 CCSD(T)
 CCSD(T)= -0.33898771187D+02

 The electronic state is 1-A'.
 Alpha  occ. eigenvalues --   -1.36450  -1.34517  -0.72096  -0.70135  -0.56286
 Alpha  occ. eigenvalues --   -0.54297  -0.51045  -0.49112
 Alpha virt. eigenvalues --    0.19280   0.21489   0.29641   0.31731   0.79518
 Alpha virt. eigenvalues --    0.81398   0.82313   0.84426   0.85502   0.87604
 Alpha virt. eigenvalues --    1.16524   1.18505   1.20931   1.23321   2.56497

 Mulliken charges:
               1
     1  O   -0.747857
     2  H    0.381563
     3  H    0.366171
     4  O   -0.747415
     5  H    0.376369
     6  H    0.371169
 Sum of Mulliken charges =   0.00000

 Dipole moment (field-independent basis, Debye):
    X=             -3.0593    Y=             -4.0882    Z=              0.0000  Tot=              5.1061
 Quadrupole moment (field-independent basis, Debye-Ang):
   XX=             -9.8945   YY=             -6.3203   ZZ=            -14.9919
   XY=             -5.0803   XZ=              0.0000   YZ=              0.0000

 3883\MP4DQ=-33.893136\MP4SDQ=-33.895162\CCSD=-33.8962117\CCSD(T)=-33.8
 Normal termination of Gaussian 16 at Sun Dec 10 06:40:39 2023.
