 Gaussian 16, Revision A.03,
 Gaussian 16:  ES64L-G16RevA.03 25-Dec-2016

 ------------------
 #p CCSD(T)/CEP-31G
 ------------------

 ------------
 H2O_H2O_2130
 ------------
 Symbolic Z-matrix:
 Charge =  0 Multiplicity = 1

                         Standard orientation:
 ---------------------------------------------------------------------
 Center     Atomic      Atomic             Coordinates (Angstroms)
 Number     Number       Type             X           Y           Z
 ---------------------------------------------------------------------
      1          8           0        0.079860    1.948749    0.000000
      2          1           0        0.079266    0.966148    0.000000
      3          1           0       -0.849440    2.267978    0.000000
      4          8           0        0.079860   -1.789705   -0.000000
      5          1           0        0.395145   -2.720351   -0.000000
      6          1           0       -0.902735   -1.786131   -0.000000
 ---------------------------------------------------------------------

 SCF Done:  E(RHF) =  -33.6552036978     A.U. after   11 cycles
 E2 =    -0.2286338981D+00 EUMP2 =    -0.33883837595970D+02
 CCSD(T)
 CCSD(T)= -0.33900807462D+02

 The electronic state is 1-A'.
 Alpha  occ. eigenvalues --   -1.37330  -1.33881  -0.73035  -0.69457  -0.57307
 Alpha  occ. eigenvalues --   -0.53639  -0.51936  -0.48476
 Alpha virt. eigenvalues --    0.17494   0.23386   0.28880   0.33855   0.78447
 Alpha virt. eigenvalues --    0.82252   0.82876   0.84979   0.88448   0.90660
 Alpha virt. eigenvalues --    1.15503   1.19365   1.20485   1.34175   2.53573

 Mulliken charges:
               1
     1  O   -0.756571
     2  H    0.395585
     3  H    0.358948
     4  O   -0.754970
     5  H    0.386455
     6  H    0.370553
 Sum of Mulliken charges =   0.00000

 Dipole moment (field-independent basis, Debye):
    X=             -3.6204    Y=             -3.9030    Z=             -0.0000  Tot=              5.3235
 Quadrupole moment (field-independent basis, Debye-Ang):
   XX=            -10.4942   YY=             -8.2173   ZZ=            -14.9940
   XY=             -3.4541   XZ=             -0.0000   YZ=              0.0000

 3441\MP4DQ=-33.8950835\MP4SDQ=-33.8971676\CCSD=-33.8981959\CCSD(T)=-33
 Normal termination of Gaussian 16 at Sun Dec 10 06:59:09 2023.
