 Gaussian 16, Revision A.03,
 Gaussian 16:  ES64L-G16RevA.03 25-Dec-2016

 ------------------
 #p CCSD(T)/CEP-31G
 ------------------

 ------------
 H2O_H2O_2296
 ------------
 Symbolic Z-matrix:
 Charge =  0 Multiplicity = 1

                         Standard orientation:
 ---------------------------------------------------------------------
 Center     Atomic      Atomic             Coordinates (Angstroms)
 Number     Number       Type             X           Y           Z
 ---------------------------------------------------------------------
      1          8           0       -0.023249    2.014740    0.000000
      2          1           0       -0.020181    1.032143    0.000000
      3          1           0        0.905245    2.336306    0.000000
      4          8           0       -0.023249   -1.844374    0.000000
      5          1           0       -0.986366   -2.039078    0.000000
      6          1           0        0.473280   -2.692293    0.000000
 ---------------------------------------------------------------------

 SCF Done:  E(RHF) =  -33.6574744000     A.U. after   11 cycles
 E2 =    -0.2284463608D+00 EUMP2 =    -0.33885920760810D+02
 CCSD(T)
 CCSD(T)= -0.33902810779D+02

 The electronic state is 1-A'.
 Alpha  occ. eigenvalues --   -1.37113  -1.33584  -0.72774  -0.69236  -0.57214
 Alpha  occ. eigenvalues --   -0.53452  -0.51761  -0.48240
 Alpha virt. eigenvalues --    0.18137   0.23374   0.29214   0.33769   0.78696
 Alpha virt. eigenvalues --    0.82340   0.83068   0.85465   0.87550   0.88648
 Alpha virt. eigenvalues --    1.15941   1.19935   1.20514   1.31636   2.53881

 Mulliken charges:
               1
     1  O   -0.764966
     2  H    0.396660
     3  H    0.366299
     4  O   -0.760082
     5  H    0.380725
     6  H    0.381363
 Sum of Mulliken charges =  -0.00000

 Dipole moment (field-independent basis, Debye):
    X=              1.0499    Y=             -4.1454    Z=              0.0000  Tot=              4.2763
 Quadrupole moment (field-independent basis, Debye-Ang):
   XX=             -9.5840   YY=             -7.5658   ZZ=            -14.9995
   XY=              6.6188   XZ=              0.0000   YZ=              0.0000

 723\MP4DQ=-33.8971257\MP4SDQ=-33.8991905\CCSD=-33.9002179\CCSD(T)=-33.
 Normal termination of Gaussian 16 at Sun Dec 10 07:03:41 2023.
