 Gaussian 16, Revision A.03,
 Gaussian 16:  ES64L-G16RevA.03 25-Dec-2016

 ------------------
 #p CCSD(T)/CEP-31G
 ------------------

 ------------
 H2O_H2O_3533
 ------------
 Symbolic Z-matrix:
 Charge =  0 Multiplicity = 1

                         Standard orientation:
 ---------------------------------------------------------------------
 Center     Atomic      Atomic             Coordinates (Angstroms)
 Number     Number       Type             X           Y           Z
 ---------------------------------------------------------------------
      1          8           0        0.070193    2.513265    0.000000
      2          1           0        0.069398    1.530664    0.000000
      3          1           0       -0.859041    2.832684   -0.000000
      4          8           0        0.070193   -2.343012    0.000000
      5          1           0        0.560806   -3.194367    0.000000
      6          1           0       -0.894257   -2.531005   -0.000000
 ---------------------------------------------------------------------

 SCF Done:  E(RHF) =  -33.6536092533     A.U. after   11 cycles
 E2 =    -0.2283215218D+00 EUMP2 =    -0.33881930775166D+02
 CCSD(T)
 CCSD(T)= -0.33898879953D+02

 The electronic state is 1-A'.
 Alpha  occ. eigenvalues --   -1.36527  -1.34473  -0.72176  -0.70086  -0.56369
 Alpha  occ. eigenvalues --   -0.54251  -0.51123  -0.49067
 Alpha virt. eigenvalues --    0.19106   0.21608   0.29554   0.31807   0.79445
 Alpha virt. eigenvalues --    0.81441   0.82267   0.84479   0.85410   0.87699
 Alpha virt. eigenvalues --    1.16444   1.18603   1.20837   1.23725   2.56436

 Mulliken charges:
               1
     1  O   -0.748261
     2  H    0.382506
     3  H    0.365537
     4  O   -0.747823
     5  H    0.377108
     6  H    0.370932
 Sum of Mulliken charges =  -0.00000

 Dipole moment (field-independent basis, Debye):
    X=             -3.2143    Y=             -4.0324    Z=             -0.0000  Tot=              5.1567
 Quadrupole moment (field-independent basis, Debye-Ang):
   XX=            -10.0267   YY=             -6.6953   ZZ=            -14.9921
   XY=             -4.6848   XZ=              0.0000   YZ=             -0.0000

 6\MP4DQ=-33.8932425\MP4SDQ=-33.8952707\CCSD=-33.8963187\CCSD(T)=-33.89
 Normal termination of Gaussian 16 at Sun Dec 10 06:36:35 2023.
