 Gaussian 16, Revision A.03,
 Gaussian 16:  ES64L-G16RevA.03 25-Dec-2016

 ------------------
 #p CCSD(T)/CEP-31G
 ------------------

 ------------
 H2O_H2O_3902
 ------------
 Symbolic Z-matrix:
 Charge =  0 Multiplicity = 1

                         Standard orientation:
 ---------------------------------------------------------------------
 Center     Atomic      Atomic             Coordinates (Angstroms)
 Number     Number       Type             X           Y           Z
 ---------------------------------------------------------------------
      1          8           0        0.088230   -2.648759    0.000000
      2          1           0        0.088075   -1.666158    0.000000
      3          1           0       -0.841212   -2.967573    0.000000
      4          8           0        0.088230    2.504436    0.000000
      5          1           0        0.216331    3.478651    0.000000
      6          1           0       -0.874875    2.309666    0.000000
 ---------------------------------------------------------------------

 SCF Done:  E(RHF) =  -33.6523768374     A.U. after   11 cycles
 E2 =    -0.2283522425D+00 EUMP2 =    -0.33880729079859D+02
 CCSD(T)
 CCSD(T)= -0.33897714733D+02

 The electronic state is 1-A'.
 Alpha  occ. eigenvalues --   -1.36442  -1.34959  -0.72095  -0.70571  -0.56217
 Alpha  occ. eigenvalues --   -0.54701  -0.51019  -0.49534
 Alpha virt. eigenvalues --    0.19089   0.21087   0.29609   0.31174   0.79550
 Alpha virt. eigenvalues --    0.81000   0.82444   0.84014   0.85519   0.87282
 Alpha virt. eigenvalues --    1.16426   1.18047   1.20936   1.22731   2.56200

 Mulliken charges:
               1
     1  O   -0.743503
     2  H    0.377160
     3  H    0.366296
     4  O   -0.743908
     5  H    0.375860
     6  H    0.368095
 Sum of Mulliken charges =  -0.00000

 Dipole moment (field-independent basis, Debye):
    X=             -4.0510    Y=              3.4040    Z=              0.0000  Tot=              5.2913
 Quadrupole moment (field-independent basis, Debye-Ang):
   XX=            -10.9690   YY=             -8.5933   ZZ=            -14.9891
   XY=              2.9375   XZ=              0.0000   YZ=              0.0000

 3293\MP4DQ=-33.8920717\MP4SDQ=-33.8940994\CCSD=-33.8951523\CCSD(T)=-33
 Normal termination of Gaussian 16 at Sun Dec 10 06:43:13 2023.
