 Gaussian 16, Revision A.03,
 Gaussian 16:  ES64L-G16RevA.03 25-Dec-2016

 ------------------
 #p CCSD(T)/CEP-31G
 ------------------

 ------------
 H2O_H2O_2732
 ------------
 Symbolic Z-matrix:
 Charge =  0 Multiplicity = 1

                         Standard orientation:
 ---------------------------------------------------------------------
 Center     Atomic      Atomic             Coordinates (Angstroms)
 Number     Number       Type             X           Y           Z
 ---------------------------------------------------------------------
      1          8           0        0.073540    2.192361    0.000000
      2          1           0        0.072759    1.209760    0.000000
      3          1           0       -0.855699    2.511766    0.000000
      4          8           0        0.073540   -2.025428   -0.000000
      5          1           0        0.507434   -2.907041   -0.000000
      6          1           0       -0.901139   -2.149953   -0.000000
 ---------------------------------------------------------------------

 SCF Done:  E(RHF) =  -33.6545879370     A.U. after   11 cycles
 E2 =    -0.2284200361D+00 EUMP2 =    -0.33883007973186D+02
 CCSD(T)
 CCSD(T)= -0.33899946449D+02

 The electronic state is 1-A'.
 Alpha  occ. eigenvalues --   -1.36893  -1.34126  -0.72557  -0.69722  -0.56799
 Alpha  occ. eigenvalues --   -0.53910  -0.51499  -0.48727
 Alpha virt. eigenvalues --    0.18255   0.22438   0.29225   0.32477   0.79064
 Alpha virt. eigenvalues --    0.81790   0.83033   0.84829   0.85467   0.88146
 Alpha virt. eigenvalues --    1.16044   1.19286   1.20529   1.27773   2.55546

 Mulliken charges:
               1
     1  O   -0.752595
     2  H    0.388825
     3  H    0.362672
     4  O   -0.750954
     5  H    0.380764
     6  H    0.371288
 Sum of Mulliken charges =  -0.00000

 Dipole moment (field-independent basis, Debye):
    X=             -3.3518    Y=             -4.0170    Z=             -0.0000  Tot=              5.2317
 Quadrupole moment (field-independent basis, Debye-Ang):
   XX=            -10.1739   YY=             -7.4477   ZZ=            -14.9936
   XY=             -4.1027   XZ=             -0.0000   YZ=              0.0000

 349\MP4DQ=-33.8942835\MP4SDQ=-33.8963322\CCSD=-33.8973693\CCSD(T)=-33.
 Normal termination of Gaussian 16 at Sun Dec 10 06:22:11 2023.
