 Gaussian 16, Revision A.03,
 Gaussian 16:  ES64L-G16RevA.03 25-Dec-2016

 ------------------
 #p CCSD(T)/CEP-31G
 ------------------

 ------------
 H2O_H2O_1161
 ------------
 Symbolic Z-matrix:
 Charge =  0 Multiplicity = 1

                         Standard orientation:
 ---------------------------------------------------------------------
 Center     Atomic      Atomic             Coordinates (Angstroms)
 Number     Number       Type             X           Y           Z
 ---------------------------------------------------------------------
      1          8           0        0.059700    1.569801   -0.000000
      2          1           0        0.057791    0.587202   -0.000000
      3          1           0       -0.869172    1.890273    0.000000
      4          8           0        0.059700   -1.392436   -0.000000
      5          1           0        0.706138   -2.132452   -0.000000
      6          1           0       -0.849965   -1.763941    0.000000
 ---------------------------------------------------------------------

 SCF Done:  E(RHF) =  -33.6615563715     A.U. after   11 cycles
 E2 =    -0.2290620811D+00 EUMP2 =    -0.33890618452653D+02
 CCSD(T)
 CCSD(T)= -0.33907243453D+02

 The electronic state is 1-A'.
 Alpha  occ. eigenvalues --   -1.38613  -1.31730  -0.74264  -0.68134  -0.59032
 Alpha  occ. eigenvalues --   -0.53317  -0.51348  -0.46357
 Alpha virt. eigenvalues --    0.17582   0.25961   0.28079   0.42919   0.76023
 Alpha virt. eigenvalues --    0.78521   0.85490   0.85647   0.93722   1.02378
 Alpha virt. eigenvalues --    1.14936   1.18972   1.21710   1.35228   2.50928

 Mulliken charges:
               1
     1  O   -0.780155
     2  H    0.431273
     3  H    0.347678
     4  O   -0.798047
     5  H    0.411467
     6  H    0.387784
 Sum of Mulliken charges =   0.00000

 Dipole moment (field-independent basis, Debye):
    X=             -2.6227    Y=             -4.6010    Z=              0.0000  Tot=              5.2960
 Quadrupole moment (field-independent basis, Debye-Ang):
   XX=             -9.6531   YY=             -8.5603   ZZ=            -15.0121
   XY=             -4.0608   XZ=             -0.0000   YZ=              0.0000

 7144\MP4DQ=-33.9014051\MP4SDQ=-33.9035232\CCSD=-33.9044907\CCSD(T)=-33
 Normal termination of Gaussian 16 at Sun Dec 10 06:40:22 2023.
