 Gaussian 16, Revision A.03,
 Gaussian 16:  ES64L-G16RevA.03 25-Dec-2016

 ------------------
 #p CCSD(T)/CEP-31G
 ------------------

 -----------
 H2O_H2O_783
 -----------
 Symbolic Z-matrix:
 Charge =  0 Multiplicity = 1

                         Standard orientation:
 ---------------------------------------------------------------------
 Center     Atomic      Atomic             Coordinates (Angstroms)
 Number     Number       Type             X           Y           Z
 ---------------------------------------------------------------------
      1          8           0        0.070250    1.416307   -0.000000
      2          1           0        0.068800    0.433706   -0.000000
      3          1           0       -0.858772    1.736345   -0.000000
      4          8           0        0.070250   -1.246147    0.000000
      5          1           0        0.560295   -2.097829    0.000000
      6          1           0       -0.894325   -1.433497    0.000000
 ---------------------------------------------------------------------

 SCF Done:  E(RHF) =  -33.6573426458     A.U. after   11 cycles
 E2 =    -0.2290383502D+00 EUMP2 =    -0.33886380996001D+02
 CCSD(T)
 CCSD(T)= -0.33902728857D+02

 The electronic state is 1-A'.
 Alpha  occ. eigenvalues --   -1.39837  -1.31003  -0.75704  -0.68925  -0.59163
 Alpha  occ. eigenvalues --   -0.54432  -0.50279  -0.45523
 Alpha virt. eigenvalues --    0.17070   0.26514   0.27525   0.48425   0.74658
 Alpha virt. eigenvalues --    0.76697   0.85235   0.87368   0.95442   1.07373
 Alpha virt. eigenvalues --    1.16458   1.19318   1.22717   1.36523   2.58703

 Mulliken charges:
               1
     1  O   -0.765694
     2  H    0.421014
     3  H    0.336682
     4  O   -0.820295
     5  H    0.438927
     6  H    0.389365
 Sum of Mulliken charges =   0.00000

 Dipole moment (field-independent basis, Debye):
    X=             -3.0230    Y=             -4.6439    Z=              0.0000  Tot=              5.5411
 Quadrupole moment (field-independent basis, Debye-Ang):
   XX=            -10.0261   YY=             -9.1570   ZZ=            -15.0085
   XY=             -3.5274   XZ=              0.0000   YZ=             -0.0000

 P4DQ=-33.8967725\MP4SDQ=-33.8989642\CCSD=-33.8998676\CCSD(T)=-33.90272
 Normal termination of Gaussian 16 at Sun Dec 10 06:33:15 2023.
