 Gaussian 16, Revision A.03,
 Gaussian 16:  ES64L-G16RevA.03 25-Dec-2016

 ------------------
 #p CCSD(T)/CEP-31G
 ------------------

 ------------
 H2O_H2O_4850
 ------------
 Symbolic Z-matrix:
 Charge =  0 Multiplicity = 1

                         Standard orientation:
 ---------------------------------------------------------------------
 Center     Atomic      Atomic             Coordinates (Angstroms)
 Number     Number       Type             X           Y           Z
 ---------------------------------------------------------------------
      1          8           0        0.092949   -3.021426    0.000000
      2          1           0        0.092949   -2.038825    0.000000
      3          1           0       -0.836544   -3.340093    0.000000
      4          8           0        0.092949    2.888639    0.000000
      5          1           0        0.092950    3.871242    0.000000
      6          1           0       -0.836544    2.569973    0.000000
 ---------------------------------------------------------------------

 SCF Done:  E(RHF) =  -33.6519388581     A.U. after   11 cycles
 E2 =    -0.2283637836D+00 EUMP2 =    -0.33880302641643D+02
 CCSD(T)
 CCSD(T)= -0.33897300449D+02

 The electronic state is 1-A'.
 Alpha  occ. eigenvalues --   -1.36239  -1.35233  -0.71885  -0.70853  -0.55989
 Alpha  occ. eigenvalues --   -0.54966  -0.50812  -0.49803
 Alpha virt. eigenvalues --    0.19495   0.20598   0.29778   0.30825   0.79750
 Alpha virt. eigenvalues --    0.80741   0.82737   0.83763   0.85802   0.86923
 Alpha virt. eigenvalues --    1.16664   1.17677   1.21119   1.22166   2.56605

 Mulliken charges:
               1
     1  O   -0.741763
     2  H    0.373921
     3  H    0.367840
     4  O   -0.742019
     5  H    0.373901
     6  H    0.368119
 Sum of Mulliken charges =  -0.00000

 Dipole moment (field-independent basis, Debye):
    X=             -4.2800    Y=              3.1112    Z=              0.0000  Tot=              5.2914
 Quadrupole moment (field-independent basis, Debye-Ang):
   XX=            -11.2792   YY=             -9.6440   ZZ=            -14.9883
   XY=              2.3096   XZ=              0.0000   YZ=              0.0000

 154\MP4DQ=-33.8916563\MP4SDQ=-33.8936838\CCSD=-33.8947388\CCSD(T)=-33.
 Normal termination of Gaussian 16 at Sun Dec 10 07:00:31 2023.
