 Gaussian 16, Revision A.03,
 Gaussian 16:  ES64L-G16RevA.03 25-Dec-2016

 ------------------
 #p CCSD(T)/CEP-31G
 ------------------

 ------------
 H2O_H2O_2518
 ------------
 Symbolic Z-matrix:
 Charge =  0 Multiplicity = 1

                         Standard orientation:
 ---------------------------------------------------------------------
 Center     Atomic      Atomic             Coordinates (Angstroms)
 Number     Number       Type             X           Y           Z
 ---------------------------------------------------------------------
      1          8           0        0.033815    2.108362    0.000000
      2          1           0        0.031328    1.125764    0.000000
      3          1           0       -0.894869    2.429379    0.000000
      4          8           0        0.033815   -1.930857   -0.000000
      5          1           0        0.940666   -2.309178   -0.000000
      6          1           0       -0.618159   -2.666002   -0.000000
 ---------------------------------------------------------------------

 SCF Done:  E(RHF) =  -33.6568030213     A.U. after   11 cycles
 E2 =    -0.2283983784D+00 EUMP2 =    -0.33885201399670D+02
 CCSD(T)
 CCSD(T)= -0.33902088786D+02

 The electronic state is 1-A'.
 Alpha  occ. eigenvalues --   -1.36973  -1.33653  -0.72622  -0.69288  -0.57021
 Alpha  occ. eigenvalues --   -0.53509  -0.51615  -0.48297
 Alpha virt. eigenvalues --    0.18436   0.22999   0.29313   0.33239   0.78913
 Alpha virt. eigenvalues --    0.82211   0.83674   0.84871   0.85998   0.88236
 Alpha virt. eigenvalues --    1.16105   1.19827   1.20550   1.29080   2.54503

 Mulliken charges:
               1
     1  O   -0.761609
     2  H    0.394692
     3  H    0.365224
     4  O   -0.756956
     5  H    0.380382
     6  H    0.378267
 Sum of Mulliken charges =  -0.00000

 Dipole moment (field-independent basis, Debye):
    X=             -1.5327    Y=             -4.2920    Z=             -0.0000  Tot=              4.5575
 Quadrupole moment (field-independent basis, Debye-Ang):
   XX=             -9.4269   YY=             -7.0510   ZZ=            -14.9985
   XY=             -6.2949   XZ=             -0.0000   YZ=              0.0000

 687\MP4DQ=-33.8964239\MP4SDQ=-33.8984776\CCSD=-33.8995082\CCSD(T)=-33.
 Normal termination of Gaussian 16 at Sun Dec 10 06:18:20 2023.
