 Gaussian 16, Revision A.03,
 Gaussian 16:  ES64L-G16RevA.03 25-Dec-2016

 ------------------
 #p CCSD(T)/CEP-31G
 ------------------

 -----------
 H2O_H2O_900
 -----------
 Symbolic Z-matrix:
 Charge =  0 Multiplicity = 1

                         Standard orientation:
 ---------------------------------------------------------------------
 Center     Atomic      Atomic             Coordinates (Angstroms)
 Number     Number       Type             X           Y           Z
 ---------------------------------------------------------------------
      1          8           0        0.092949   -1.445861    0.000000
      2          1           0        0.092949   -0.463260    0.000000
      3          1           0       -0.836544   -1.764528    0.000000
      4          8           0        0.092949    1.313074    0.000000
      5          1           0        0.092950    2.295676    0.000000
      6          1           0       -0.836544    0.994408    0.000000
 ---------------------------------------------------------------------

 SCF Done:  E(RHF) =  -33.6472659229     A.U. after   11 cycles
 E2 =    -0.2294120984D+00 EUMP2 =    -0.33876678021212D+02
 CCSD(T)
 CCSD(T)= -0.33893603828D+02

 The electronic state is 1-A'.
 Alpha  occ. eigenvalues --   -1.39706  -1.33255  -0.76579  -0.68609  -0.59151
 Alpha  occ. eigenvalues --   -0.54028  -0.52665  -0.47691
 Alpha virt. eigenvalues --    0.16472   0.25058   0.27719   0.44306   0.74674
 Alpha virt. eigenvalues --    0.79305   0.84792   0.85646   0.91226   1.12137
 Alpha virt. eigenvalues --    1.14107   1.23547   1.30741   1.37172   2.51960

 Mulliken charges:
               1
     1  O   -0.730015
     2  H    0.364483
     3  H    0.342995
     4  O   -0.763966
     5  H    0.423268
     6  H    0.363236
 Sum of Mulliken charges =  -0.00000

 Dipole moment (field-independent basis, Debye):
    X=             -4.1012    Y=              3.6293    Z=              0.0000  Tot=              5.4765
 Quadrupole moment (field-independent basis, Debye-Ang):
   XX=            -11.3679   YY=             -9.7014   ZZ=            -14.9839
   XY=              2.2165   XZ=              0.0000   YZ=              0.0000

 8\MP4DQ=-33.8875467\MP4SDQ=-33.8898335\CCSD=-33.890763\CCSD(T)=-33.893
 Normal termination of Gaussian 16 at Sun Dec 10 06:35:26 2023.
