 Gaussian 16, Revision A.03,
 Gaussian 16:  ES64L-G16RevA.03 25-Dec-2016

 ------------------
 #p CCSD(T)/CEP-31G
 ------------------

 -----------
 H2O_H2O_681
 -----------
 Symbolic Z-matrix:
 Charge =  0 Multiplicity = 1

                         Standard orientation:
 ---------------------------------------------------------------------
 Center     Atomic      Atomic             Coordinates (Angstroms)
 Number     Number       Type             X           Y           Z
 ---------------------------------------------------------------------
      1          8           0        0.076796   -1.372603    0.000000
      2          1           0        0.075732   -0.390002    0.000000
      3          1           0       -0.852351   -1.692276    0.000000
      4          8           0        0.076796    1.209466    0.000000
      5          1           0        0.451839    2.117679    0.000000
      6          1           0       -0.903957    1.269695    0.000000
 ---------------------------------------------------------------------

 SCF Done:  E(RHF) =  -33.6525642503     A.U. after   11 cycles
 E2 =    -0.2289227270D+00 EUMP2 =    -0.33881486977280D+02
 CCSD(T)
 CCSD(T)= -0.33897815396D+02

 The electronic state is 1-A'.
 Alpha  occ. eigenvalues --   -1.40378  -1.31024  -0.76602  -0.69146  -0.59067
 Alpha  occ. eigenvalues --   -0.54832  -0.50178  -0.45482
 Alpha virt. eigenvalues --    0.16825   0.26054   0.27686   0.49850   0.74273
 Alpha virt. eigenvalues --    0.76713   0.85352   0.87714   0.95442   1.08843
 Alpha virt. eigenvalues --    1.15823   1.22701   1.24740   1.36310   2.62331

 Mulliken charges:
               1
     1  O   -0.751097
     2  H    0.401922
     3  H    0.333137
     4  O   -0.820207
     5  H    0.449961
     6  H    0.386284
 Sum of Mulliken charges =  -0.00000

 Dipole moment (field-independent basis, Debye):
    X=             -3.2948    Y=              4.5581    Z=              0.0000  Tot=              5.6242
 Quadrupole moment (field-independent basis, Debye-Ang):
   XX=            -10.3459   YY=             -9.3336   ZZ=            -15.0002
   XY=              3.2323   XZ=              0.0000   YZ=              0.0000

 7\MP4DQ=-33.891796\MP4SDQ=-33.8940369\CCSD=-33.8949243\CCSD(T)=-33.897
 Normal termination of Gaussian 16 at Sun Dec 10 06:31:20 2023.
