 Gaussian 16, Revision A.03,
 Gaussian 16:  ES64L-G16RevA.03 25-Dec-2016

 ------------------
 #p CCSD(T)/CEP-31G
 ------------------

 -----------
 H2O_H2O_296
 -----------
 Symbolic Z-matrix:
 Charge =  0 Multiplicity = 1

                         Standard orientation:
 ---------------------------------------------------------------------
 Center     Atomic      Atomic             Coordinates (Angstroms)
 Number     Number       Type             X           Y           Z
 ---------------------------------------------------------------------
      1          8           0       -0.023436    1.216940    0.000000
      2          1           0       -0.018207    0.234353    0.000000
      3          1           0        0.904348    1.540549    0.000000
      4          8           0       -0.023436   -1.046678    0.000000
      5          1           0       -0.986123   -1.243500    0.000000
      6          1           0        0.474957   -1.893502    0.000000
 ---------------------------------------------------------------------

 SCF Done:  E(RHF) =  -33.6343446795     A.U. after   11 cycles
 E2 =    -0.2277981360D+00 EUMP2 =    -0.33862142815488D+02
 CCSD(T)
 CCSD(T)= -0.33877306553D+02

 The electronic state is 1-A'.
 Alpha  occ. eigenvalues --   -1.43081  -1.28194  -0.79319  -0.72771  -0.57294
 Alpha  occ. eigenvalues --   -0.57050  -0.46237  -0.42523
 Alpha virt. eigenvalues --    0.16981   0.25717   0.29311   0.59054   0.73552
 Alpha virt. eigenvalues --    0.74592   0.88107   0.90516   0.93769   1.01650
 Alpha virt. eigenvalues --    1.14737   1.20489   1.28367   1.37671   2.83649

 Mulliken charges:
               1
     1  O   -0.758060
     2  H    0.356131
     3  H    0.332771
     4  O   -0.829933
     5  H    0.429026
     6  H    0.470065
 Sum of Mulliken charges =  -0.00000

 Dipole moment (field-independent basis, Debye):
    X=              1.0195    Y=             -5.1717    Z=              0.0000  Tot=              5.2712
 Quadrupole moment (field-independent basis, Debye-Ang):
   XX=             -9.4761   YY=            -10.0885   ZZ=            -14.9784
   XY=              3.8214   XZ=              0.0000   YZ=              0.0000

 171\MP4DQ=-33.871251\MP4SDQ=-33.8734995\CCSD=-33.87422\CCSD(T)=-33.877
 Normal termination of Gaussian 16 at Sun Dec 10 06:23:53 2023.
