 Gaussian 16, Revision A.03,
 Gaussian 16:  ES64L-G16RevA.03 25-Dec-2016

 ------------------
 #p CCSD(T)/CEP-31G
 ------------------

 ------------
 H2O_H2O_3528
 ------------
 Symbolic Z-matrix:
 Charge =  0 Multiplicity = 1

                         Standard orientation:
 ---------------------------------------------------------------------
 Center     Atomic      Atomic             Coordinates (Angstroms)
 Number     Number       Type             X           Y           Z
 ---------------------------------------------------------------------
      1          8           0        0.085600   -2.502046    0.000000
      2          1           0        0.085342   -1.519445    0.000000
      3          1           0       -0.843810   -2.820956    0.000000
      4          8           0        0.085600    2.352446    0.000000
      5          1           0        0.277043    3.316218    0.000000
      6          1           0       -0.888168    2.220984    0.000000
 ---------------------------------------------------------------------

 SCF Done:  E(RHF) =  -33.6527364209     A.U. after   11 cycles
 E2 =    -0.2283549058D+00 EUMP2 =    -0.33881091326662D+02
 CCSD(T)
 CCSD(T)= -0.33898067261D+02

 The electronic state is 1-A'.
 Alpha  occ. eigenvalues --   -1.36554  -1.34791  -0.72211  -0.70398  -0.56350
 Alpha  occ. eigenvalues --   -0.54540  -0.51135  -0.49370
 Alpha virt. eigenvalues --    0.18798   0.21417   0.29508   0.31406   0.79438
 Alpha virt. eigenvalues --    0.81157   0.82316   0.84166   0.85405   0.87515
 Alpha virt. eigenvalues --    1.16292   1.18330   1.20819   1.23470   2.56202

 Mulliken charges:
               1
     1  O   -0.744919
     2  H    0.379362
     3  H    0.365402
     4  O   -0.745273
     5  H    0.377034
     6  H    0.368393
 Sum of Mulliken charges =  -0.00000

 Dipole moment (field-independent basis, Debye):
    X=             -3.9238    Y=              3.5438    Z=              0.0000  Tot=              5.2872
 Quadrupole moment (field-independent basis, Debye-Ang):
   XX=            -10.8078   YY=             -8.2469   ZZ=            -14.9898
   XY=              3.2043   XZ=              0.0000   YZ=              0.0000

 6796\MP4DQ=-33.8924232\MP4SDQ=-33.8944529\CCSD=-33.8955031\CCSD(T)=-33
 Normal termination of Gaussian 16 at Sun Dec 10 06:36:30 2023.
