 Gaussian 16, Revision A.03,
 Gaussian 16:  ES64L-G16RevA.03 25-Dec-2016

 ------------------
 #p CCSD(T)/CEP-31G
 ------------------

 ------------
 H2O_H2O_4791
 ------------
 Symbolic Z-matrix:
 Charge =  0 Multiplicity = 1

                         Standard orientation:
 ---------------------------------------------------------------------
 Center     Atomic      Atomic             Coordinates (Angstroms)
 Number     Number       Type             X           Y           Z
 ---------------------------------------------------------------------
      1          8           0        0.041100    3.017137    0.000000
      2          1           0        0.039598    2.034537    0.000000
      3          1           0       -0.887904    3.337224   -0.000000
      4          8           0        0.041100   -2.837176    0.000000
      5          1           0        0.891306   -3.329778    0.000000
      6          1           0       -0.700606   -3.481674   -0.000000
 ---------------------------------------------------------------------

 SCF Done:  E(RHF) =  -33.6531809321     A.U. after   11 cycles
 E2 =    -0.2283040949D+00 EUMP2 =    -0.33881485026992D+02
 CCSD(T)
 CCSD(T)= -0.33898446006D+02

 The electronic state is 1-A'.
 Alpha  occ. eigenvalues --   -1.36202  -1.34737  -0.71840  -0.70369  -0.56016
 Alpha  occ. eigenvalues --   -0.54518  -0.50794  -0.49332
 Alpha virt. eigenvalues --    0.19642   0.21149   0.29895   0.31427   0.79757
 Alpha virt. eigenvalues --    0.81189   0.82634   0.84179   0.85810   0.87289
 Alpha virt. eigenvalues --    1.16760   1.18225   1.21205   1.22714   2.56737

 Mulliken charges:
               1
     1  O   -0.746540
     2  H    0.377838
     3  H    0.368698
     4  O   -0.746058
     5  H    0.373846
     6  H    0.372216
 Sum of Mulliken charges =   0.00000

 Dipole moment (field-independent basis, Debye):
    X=             -1.8890    Y=             -4.2134    Z=             -0.0000  Tot=              4.6175
 Quadrupole moment (field-independent basis, Debye-Ang):
   XX=             -9.4138   YY=             -4.8830   ZZ=            -14.9914
   XY=             -8.0860   XZ=              0.0000   YZ=             -0.0000

 51\MP4DQ=-33.892812\MP4SDQ=-33.8948359\CCSD=-33.8958887\CCSD(T)=-33.89
 Normal termination of Gaussian 16 at Sun Dec 10 06:59:15 2023.
