 Gaussian 16, Revision A.03,
 Gaussian 16:  ES64L-G16RevA.03 25-Dec-2016

 ------------------
 #p CCSD(T)/CEP-31G
 ------------------

 ------------
 H2O_H2O_2163
 ------------
 Symbolic Z-matrix:
 Charge =  0 Multiplicity = 1

                         Standard orientation:
 ---------------------------------------------------------------------
 Center     Atomic      Atomic             Coordinates (Angstroms)
 Number     Number       Type             X           Y           Z
 ---------------------------------------------------------------------
      1          8           0        0.052327    1.970031    0.000000
      2          1           0        0.050492    0.987431    0.000000
      3          1           0       -0.876569    2.290433    0.000000
      4          8           0        0.052327   -1.790173   -0.000000
      5          1           0        0.789875   -2.439426   -0.000000
      6          1           0       -0.801028   -2.277299   -0.000000
 ---------------------------------------------------------------------

 SCF Done:  E(RHF) =  -33.6576210794     A.U. after   11 cycles
 E2 =    -0.2285351624D+00 EUMP2 =    -0.33886156241779D+02
 CCSD(T)
 CCSD(T)= -0.33903040160D+02

 The electronic state is 1-A'.
 Alpha  occ. eigenvalues --   -1.37248  -1.33295  -0.72900  -0.68923  -0.57388
 Alpha  occ. eigenvalues --   -0.53130  -0.51899  -0.47937
 Alpha virt. eigenvalues --    0.18214   0.23619   0.29081   0.34431   0.78521
 Alpha virt. eigenvalues --    0.82685   0.83458   0.85730   0.87759   0.88977
 Alpha virt. eigenvalues --    1.15836   1.20134   1.20336   1.31551   2.52604

 Mulliken charges:
               1
     1  O   -0.765601
     2  H    0.402519
     3  H    0.360886
     4  O   -0.760166
     5  H    0.384819
     6  H    0.377543
 Sum of Mulliken charges =   0.00000

 Dipole moment (field-independent basis, Debye):
    X=             -2.3643    Y=             -4.4035    Z=             -0.0000  Tot=              4.9981
 Quadrupole moment (field-independent basis, Debye-Ang):
   XX=             -9.5085   YY=             -7.3010   ZZ=            -15.0001
   XY=             -5.0359   XZ=             -0.0000   YZ=              0.0000

 5953\MP4DQ=-33.8973435\MP4SDQ=-33.899412\CCSD=-33.9004381\CCSD(T)=-33.
 Normal termination of Gaussian 16 at Sun Dec 10 06:59:49 2023.
