 Gaussian 16, Revision A.03,
 Gaussian 16:  ES64L-G16RevA.03 25-Dec-2016

 ------------------
 #p CCSD(T)/CEP-31G
 ------------------

 ------------
 H2O_H2O_2556
 ------------
 Symbolic Z-matrix:
 Charge =  0 Multiplicity = 1

                         Standard orientation:
 ---------------------------------------------------------------------
 Center     Atomic      Atomic             Coordinates (Angstroms)
 Number     Number       Type             X           Y           Z
 ---------------------------------------------------------------------
      1          8           0        0.076764    2.120528   -0.000000
      2          1           0        0.076090    1.137927   -0.000000
      3          1           0       -0.852511    2.439832   -0.000000
      4          8           0        0.076764   -1.957331    0.000000
      5          1           0        0.452167   -2.865393    0.000000
      6          1           0       -0.903966   -2.017949    0.000000
 ---------------------------------------------------------------------

 SCF Done:  E(RHF) =  -33.6546448397     A.U. after   11 cycles
 E2 =    -0.2284723089D+00 EUMP2 =    -0.33883117148607D+02
 CCSD(T)
 CCSD(T)= -0.33900065002D+02

 The electronic state is 1-A'.
 Alpha  occ. eigenvalues --   -1.37005  -1.34096  -0.72678  -0.69685  -0.56921
 Alpha  occ. eigenvalues --   -0.53872  -0.51610  -0.48694
 Alpha virt. eigenvalues --    0.17963   0.22672   0.29132   0.32693   0.78931
 Alpha virt. eigenvalues --    0.81853   0.83192   0.84848   0.86204   0.88227
 Alpha virt. eigenvalues --    1.15881   1.19378   1.20460   1.29478   2.55150

 Mulliken charges:
               1
     1  O   -0.753176
     2  H    0.390104
     3  H    0.361726
     4  O   -0.751434
     5  H    0.381980
     6  H    0.370801
 Sum of Mulliken charges =   0.00000

 Dipole moment (field-independent basis, Debye):
    X=             -3.4948    Y=             -3.9462    Z=              0.0000  Tot=              5.2712
 Quadrupole moment (field-independent basis, Debye-Ang):
   XX=            -10.3284   YY=             -7.7650   ZZ=            -14.9935
   XY=             -3.8025   XZ=              0.0000   YZ=             -0.0000

 413\MP4DQ=-33.8943879\MP4SDQ=-33.8964453\CCSD=-33.89748\CCSD(T)=-33.90
 Normal termination of Gaussian 16 at Sun Dec 10 06:19:01 2023.
