 Gaussian 16, Revision A.03,
 Gaussian 16:  ES64L-G16RevA.03 25-Dec-2016

 ------------------
 #p CCSD(T)/CEP-31G
 ------------------

 ------------
 H2O_H2O_2323
 ------------
 Symbolic Z-matrix:
 Charge =  0 Multiplicity = 1

                         Standard orientation:
 ---------------------------------------------------------------------
 Center     Atomic      Atomic             Coordinates (Angstroms)
 Number     Number       Type             X           Y           Z
 ---------------------------------------------------------------------
      1          8           0       -0.016666    2.020915    0.000000
      2          1           0       -0.013327    1.038320    0.000000
      3          1           0        0.911738    2.342739    0.000000
      4          8           0       -0.016666   -1.857542    0.000000
      5          1           0       -0.996939   -1.925139    0.000000
      6          1           0        0.365189   -2.762910    0.000000
 ---------------------------------------------------------------------

 SCF Done:  E(RHF) =  -33.6571464156     A.U. after   11 cycles
 E2 =    -0.2284349719D+00 EUMP2 =    -0.33885581387424D+02
 CCSD(T)
 CCSD(T)= -0.33902482678D+02

 The electronic state is 1-A'.
 Alpha  occ. eigenvalues --   -1.37089  -1.33759  -0.72759  -0.69415  -0.57161
 Alpha  occ. eigenvalues --   -0.53627  -0.51730  -0.48414
 Alpha virt. eigenvalues --    0.17973   0.23306   0.29226   0.33523   0.78728
 Alpha virt. eigenvalues --    0.82173   0.82906   0.85198   0.87730   0.88624
 Alpha virt. eigenvalues --    1.15922   1.19813   1.20531   1.31994   2.54431

 Mulliken charges:
               1
     1  O   -0.763723
     2  H    0.393995
     3  H    0.367846
     4  O   -0.759626
     5  H    0.379641
     6  H    0.381867
 Sum of Mulliken charges =  -0.00000

 Dipole moment (field-independent basis, Debye):
    X=              0.7523    Y=             -3.9686    Z=              0.0000  Tot=              4.0393
 Quadrupole moment (field-independent basis, Debye-Ang):
   XX=             -9.7599   YY=             -7.8699   ZZ=            -14.9986
   XY=              7.0600   XZ=              0.0000   YZ=              0.0000

 0441\MP4DQ=-33.8967974\MP4SDQ=-33.8988625\CCSD=-33.8998905\CCSD(T)=-33
 Normal termination of Gaussian 16 at Sun Dec 10 07:04:11 2023.
