 Gaussian 16, Revision A.03,
 Gaussian 16:  ES64L-G16RevA.03 25-Dec-2016

 ------------------
 #p CCSD(T)/CEP-31G
 ------------------

 ------------
 H2O_H2O_1995
 ------------
 Symbolic Z-matrix:
 Charge =  0 Multiplicity = 1

                         Standard orientation:
 ---------------------------------------------------------------------
 Center     Atomic      Atomic             Coordinates (Angstroms)
 Number     Number       Type             X           Y           Z
 ---------------------------------------------------------------------
      1          8           0        0.026712    1.896612   -0.000000
      2          1           0        0.023603    0.914015   -0.000000
      3          1           0       -0.901769    2.218217   -0.000000
      4          8           0        0.026712   -1.723421    0.000000
      5          1           0        0.975023   -1.980737    0.000000
      6          1           0       -0.524243   -2.537026    0.000000
 ---------------------------------------------------------------------

 SCF Done:  E(RHF) =  -33.6588047279     A.U. after   11 cycles
 E2 =    -0.2285504966D+00 EUMP2 =    -0.33887355224464D+02
 CCSD(T)
 CCSD(T)= -0.33904227494D+02

 The electronic state is 1-A'.
 Alpha  occ. eigenvalues --   -1.37361  -1.33190  -0.73023  -0.68867  -0.57591
 Alpha  occ. eigenvalues --   -0.53056  -0.52026  -0.47859
 Alpha virt. eigenvalues --    0.18061   0.24015   0.29046   0.35174   0.78267
 Alpha virt. eigenvalues --    0.82464   0.82886   0.86166   0.88117   0.91716
 Alpha virt. eigenvalues --    1.15740   1.19878   1.20696   1.33654   2.52181

 Mulliken charges:
               1
     1  O   -0.770989
     2  H    0.404354
     3  H    0.364232
     4  O   -0.765706
     5  H    0.383541
     6  H    0.384566
 Sum of Mulliken charges =  -0.00000

 Dipole moment (field-independent basis, Debye):
    X=             -1.2025    Y=             -4.2639    Z=              0.0000  Tot=              4.4302
 Quadrupole moment (field-independent basis, Debye-Ang):
   XX=             -9.5106   YY=             -7.7070   ZZ=            -15.0023
   XY=             -6.0475   XZ=              0.0000   YZ=             -0.0000

 7662\MP4DQ=-33.8985135\MP4SDQ=-33.9005906\CCSD=-33.9016129\CCSD(T)=-33
 Normal termination of Gaussian 16 at Sun Dec 10 06:56:32 2023.
