 Gaussian 16, Revision A.03,
 Gaussian 16:  ES64L-G16RevA.03 25-Dec-2016

 ------------------
 #p CCSD(T)/CEP-31G
 ------------------

 ------------
 H2O_H2O_3957
 ------------
 Symbolic Z-matrix:
 Charge =  0 Multiplicity = 1

                         Standard orientation:
 ---------------------------------------------------------------------
 Center     Atomic      Atomic             Coordinates (Angstroms)
 Number     Number       Type             X           Y           Z
 ---------------------------------------------------------------------
      1          8           0        0.073528    2.680997   -0.000000
      2          1           0        0.072893    1.698395   -0.000000
      3          1           0       -0.855759    3.000263   -0.000000
      4          8           0        0.073528   -2.514041    0.000000
      5          1           0        0.507553   -3.395590    0.000000
      6          1           0       -0.901133   -2.638712    0.000000
 ---------------------------------------------------------------------

 SCF Done:  E(RHF) =  -33.6530854206     A.U. after   11 cycles
 E2 =    -0.2283202574D+00 EUMP2 =    -0.33881405677964D+02
 CCSD(T)
 CCSD(T)= -0.33898369444D+02

 The electronic state is 1-A'.
 Alpha  occ. eigenvalues --   -1.36402  -1.34673  -0.72049  -0.70290  -0.56214
 Alpha  occ. eigenvalues --   -0.54440  -0.50991  -0.49261
 Alpha virt. eigenvalues --    0.19335   0.21289   0.29670   0.31532   0.79571
 Alpha virt. eigenvalues --    0.81258   0.82406   0.84274   0.85563   0.87465
 Alpha virt. eigenvalues --    1.16552   1.18311   1.20970   1.23000   2.56513

 Mulliken charges:
               1
     1  O   -0.746229
     2  H    0.379761
     3  H    0.366407
     4  O   -0.746103
     5  H    0.375868
     6  H    0.370296
 Sum of Mulliken charges =  -0.00000

 Dipole moment (field-independent basis, Debye):
    X=             -3.3737    Y=             -3.9349    Z=              0.0000  Tot=              5.1832
 Quadrupole moment (field-independent basis, Debye-Ang):
   XX=            -10.1677   YY=             -6.6629   ZZ=            -14.9910
   XY=             -4.5494   XZ=              0.0000   YZ=             -0.0000

 66\MP4DQ=-33.8927325\MP4SDQ=-33.8947583\CCSD=-33.8958097\CCSD(T)=-33.8
 Normal termination of Gaussian 16 at Sun Dec 10 06:44:13 2023.
