 Gaussian 16, Revision A.03,
 Gaussian 16:  ES64L-G16RevA.03 25-Dec-2016

 ------------------
 #p CCSD(T)/CEP-31G
 ------------------

 ------------
 H2O_H2O_2688
 ------------
 Symbolic Z-matrix:
 Charge =  0 Multiplicity = 1

                         Standard orientation:
 ---------------------------------------------------------------------
 Center     Atomic      Atomic             Coordinates (Angstroms)
 Number     Number       Type             X           Y           Z
 ---------------------------------------------------------------------
      1          8           0        0.052310    2.179451    0.000000
      2          1           0        0.050659    1.196851    0.000000
      3          1           0       -0.876646    2.499679    0.000000
      4          8           0        0.052310   -1.999574   -0.000000
      5          1           0        0.789980   -2.648688   -0.000000
      6          1           0       -0.800954   -2.486859   -0.000000
 ---------------------------------------------------------------------

 SCF Done:  E(RHF) =  -33.6558969610     A.U. after   11 cycles
 E2 =    -0.2283861579D+00 EUMP2 =    -0.33884283118876D+02
 CCSD(T)
 CCSD(T)= -0.33901184147D+02

 The electronic state is 1-A'.
 Alpha  occ. eigenvalues --   -1.36890  -1.33788  -0.72539  -0.69403  -0.56877
 Alpha  occ. eigenvalues --   -0.53616  -0.51520  -0.48414
 Alpha virt. eigenvalues --    0.18569   0.22697   0.29346   0.32855   0.79037
 Alpha virt. eigenvalues --    0.82078   0.83604   0.84583   0.85395   0.88254
 Alpha virt. eigenvalues --    1.16169   1.19604   1.20601   1.27575   2.55077

 Mulliken charges:
               1
     1  O   -0.757671
     2  H    0.392561
     3  H    0.363729
     4  O   -0.754116
     5  H    0.380500
     6  H    0.374998
 Sum of Mulliken charges =  -0.00000

 Dipole moment (field-independent basis, Debye):
    X=             -2.3786    Y=             -4.3323    Z=             -0.0000  Tot=              4.9423
 Quadrupole moment (field-independent basis, Debye-Ang):
   XX=             -9.5117   YY=             -6.7842   ZZ=            -14.9967
   XY=             -5.4346   XZ=             -0.0000   YZ=              0.0000

 38\MP4DQ=-33.8955277\MP4SDQ=-33.8975755\CCSD=-33.8986095\CCSD(T)=-33.9
 Normal termination of Gaussian 16 at Sun Dec 10 06:21:23 2023.
