 Gaussian 16, Revision A.03,
 Gaussian 16:  ES64L-G16RevA.03 25-Dec-2016

 ------------------
 #p CCSD(T)/CEP-31G
 ------------------

 ------------
 H2O_H2O_3474
 ------------
 Symbolic Z-matrix:
 Charge =  0 Multiplicity = 1

                         Standard orientation:
 ---------------------------------------------------------------------
 Center     Atomic      Atomic             Coordinates (Angstroms)
 Number     Number       Type             X           Y           Z
 ---------------------------------------------------------------------
      1          8           0       -0.013506    2.477391    0.000000
      2          1           0       -0.010695    1.494793    0.000000
      3          1           0        0.915072    2.798715    0.000000
      4          8           0       -0.013506   -2.318124    0.000000
      5          1           0       -0.996103   -2.320935    0.000000
      6          1           0        0.307819   -3.246703    0.000000
 ---------------------------------------------------------------------

 SCF Done:  E(RHF) =  -33.6544095170     A.U. after   11 cycles
 E2 =    -0.2282740666D+00 EUMP2 =    -0.33882683583577D+02
 CCSD(T)
 CCSD(T)= -0.33899613952D+02

 The electronic state is 1-A'.
 Alpha  occ. eigenvalues --   -1.36509  -1.34532  -0.72158  -0.70176  -0.56391
 Alpha  occ. eigenvalues --   -0.54354  -0.51117  -0.49148
 Alpha virt. eigenvalues --    0.19022   0.21679   0.29629   0.31773   0.79444
 Alpha virt. eigenvalues --    0.81351   0.82237   0.84267   0.85474   0.87510
 Alpha virt. eigenvalues --    1.16457   1.18658   1.20892   1.23905   2.56428

 Mulliken charges:
               1
     1  O   -0.751374
     2  H    0.381266
     3  H    0.369883
     4  O   -0.750641
     5  H    0.374771
     6  H    0.376095
 Sum of Mulliken charges =  -0.00000

 Dipole moment (field-independent basis, Debye):
    X=              0.6172    Y=             -3.7667    Z=              0.0000  Tot=              3.8169
 Quadrupole moment (field-independent basis, Debye-Ang):
   XX=             -9.8726   YY=             -7.4943   ZZ=            -14.9936
   XY=              8.9604   XZ=              0.0000   YZ=              0.0000

 2291\MP4DQ=-33.8939806\MP4SDQ=-33.8960074\CCSD=-33.8970541\CCSD(T)=-33
 Normal termination of Gaussian 16 at Sun Dec 10 06:35:33 2023.
