 Gaussian 16, Revision A.03,
 Gaussian 16:  ES64L-G16RevA.03 25-Dec-2016

 ------------------
 #p CCSD(T)/CEP-31G
 ------------------

 ------------
 H2O_H2O_4157
 ------------
 Symbolic Z-matrix:
 Charge =  0 Multiplicity = 1

                         Standard orientation:
 ---------------------------------------------------------------------
 Center     Atomic      Atomic             Coordinates (Angstroms)
 Number     Number       Type             X           Y           Z
 ---------------------------------------------------------------------
      1          8           0        0.073526    2.760773   -0.000000
      2          1           0        0.072911    1.778172   -0.000000
      3          1           0       -0.855767    3.080022   -0.000000
      4          8           0        0.073526   -2.593815    0.000000
      5          1           0        0.507568   -3.475355    0.000000
      6          1           0       -0.901131   -2.718506    0.000000
 ---------------------------------------------------------------------

 SCF Done:  E(RHF) =  -33.6529516437     A.U. after   11 cycles
 E2 =    -0.2283211653D+00 EUMP2 =    -0.33881272808998D+02
 CCSD(T)
 CCSD(T)= -0.33898240366D+02

 The electronic state is 1-A'.
 Alpha  occ. eigenvalues --   -1.36352  -1.34732  -0.71997  -0.70352  -0.56156
 Alpha  occ. eigenvalues --   -0.54497  -0.50939  -0.49319
 Alpha virt. eigenvalues --    0.19419   0.21192   0.29720   0.31448   0.79621
 Alpha virt. eigenvalues --    0.81203   0.82482   0.84214   0.85628   0.87386
 Alpha virt. eigenvalues --    1.16600   1.18230   1.21028   1.22828   2.56562

 Mulliken charges:
               1
     1  O   -0.745707
     2  H    0.378900
     3  H    0.366775
     4  O   -0.745605
     5  H    0.375388
     6  H    0.370249
 Sum of Mulliken charges =  -0.00000

 Dipole moment (field-independent basis, Debye):
    X=             -3.3761    Y=             -3.9279    Z=              0.0000  Tot=              5.1794
 Quadrupole moment (field-independent basis, Debye-Ang):
   XX=            -10.1670   YY=             -6.5345   ZZ=            -14.9907
   XY=             -4.6218   XZ=              0.0000   YZ=             -0.0000

 79\MP4DQ=-33.8926033\MP4SDQ=-33.8946287\CCSD=-33.895681\CCSD(T)=-33.89
 Normal termination of Gaussian 16 at Sun Dec 10 06:47:49 2023.
