 Gaussian 16, Revision A.03,
 Gaussian 16:  ES64L-G16RevA.03 25-Dec-2016

 ------------------
 #p CCSD(T)/CEP-31G
 ------------------

 ------------
 H2O_H2O_4012
 ------------
 Symbolic Z-matrix:
 Charge =  0 Multiplicity = 1

                         Standard orientation:
 ---------------------------------------------------------------------
 Center     Atomic      Atomic             Coordinates (Angstroms)
 Number     Number       Type             X           Y           Z
 ---------------------------------------------------------------------
      1          8           0        0.055973    2.707446   -0.000000
      2          1           0        0.054774    1.724845   -0.000000
      3          1           0       -0.873131    3.027246    0.000000
      4          8           0        0.055973   -2.528516   -0.000000
      5          1           0        0.749929   -3.224168   -0.000000
      6          1           0       -0.827136   -2.959359    0.000000
 ---------------------------------------------------------------------

 SCF Done:  E(RHF) =  -33.6535678455     A.U. after   11 cycles
 E2 =    -0.2282985767D+00 EUMP2 =    -0.33881866422204D+02
 CCSD(T)
 CCSD(T)= -0.33898815981D+02

 The electronic state is 1-A'.
 Alpha  occ. eigenvalues --   -1.36370  -1.34524  -0.72012  -0.70148  -0.56209
 Alpha  occ. eigenvalues --   -0.54310  -0.50967  -0.49122
 Alpha virt. eigenvalues --    0.19438   0.21436   0.29743   0.31702   0.79591
 Alpha virt. eigenvalues --    0.81388   0.82385   0.84400   0.85606   0.87532
 Alpha virt. eigenvalues --    1.16608   1.18473   1.21042   1.23089   2.56570

 Mulliken charges:
               1
     1  O   -0.748073
     2  H    0.380937
     3  H    0.367073
     4  O   -0.747447
     5  H    0.375547
     6  H    0.371963
 Sum of Mulliken charges =  -0.00000

 Dipole moment (field-independent basis, Debye):
    X=             -2.5668    Y=             -4.2133    Z=              0.0000  Tot=              4.9336
 Quadrupole moment (field-independent basis, Debye-Ang):
   XX=             -9.5848   YY=             -5.6671   ZZ=            -14.9922
   XY=             -6.1317   XZ=             -0.0000   YZ=              0.0000

 349\MP4DQ=-33.8931831\MP4SDQ=-33.8952076\CCSD=-33.8962582\CCSD(T)=-33.
 Normal termination of Gaussian 16 at Sun Dec 10 06:45:12 2023.
