 Gaussian 16, Revision A.03,
 Gaussian 16:  ES64L-G16RevA.03 25-Dec-2016

 ------------------
 #p CCSD(T)/CEP-31G
 ------------------

 ------------
 H2O_H2O_2627
 ------------
 Symbolic Z-matrix:
 Charge =  0 Multiplicity = 1

                         Standard orientation:
 ---------------------------------------------------------------------
 Center     Atomic      Atomic             Coordinates (Angstroms)
 Number     Number       Type             X           Y           Z
 ---------------------------------------------------------------------
      1          8           0        0.088233   -2.140187    0.000000
      2          1           0        0.088039   -1.157586    0.000000
      3          1           0       -0.841197   -2.459037    0.000000
      4          8           0        0.088233    1.995871    0.000000
      5          1           0        0.216296    2.970091    0.000000
      6          1           0       -0.874865    1.801063    0.000000
 ---------------------------------------------------------------------

 SCF Done:  E(RHF) =  -33.6532110041     A.U. after   11 cycles
 E2 =    -0.2285001795D+00 EUMP2 =    -0.33881711183591D+02
 CCSD(T)
 CCSD(T)= -0.33898697141D+02

 The electronic state is 1-A'.
 Alpha  occ. eigenvalues --   -1.36987  -1.34561  -0.72677  -0.70140  -0.56819
 Alpha  occ. eigenvalues --   -0.54300  -0.51569  -0.49137
 Alpha virt. eigenvalues --    0.17402   0.22509   0.29126   0.32122   0.78981
 Alpha virt. eigenvalues --    0.81438   0.82831   0.84422   0.86356   0.87906
 Alpha virt. eigenvalues --    1.15654   1.18926   1.20496   1.29185   2.55965

 Mulliken charges:
               1
     1  O   -0.747537
     2  H    0.384267
     3  H    0.362324
     4  O   -0.747291
     5  H    0.381111
     6  H    0.367127
 Sum of Mulliken charges =   0.00000

 Dipole moment (field-independent basis, Debye):
    X=             -4.0245    Y=              3.4800    Z=              0.0000  Tot=              5.3204
 Quadrupole moment (field-independent basis, Debye-Ang):
   XX=            -10.9832   YY=             -8.8366   ZZ=            -14.9898
   XY=              2.8143   XZ=              0.0000   YZ=              0.0000

 64\MP4DQ=-33.8930174\MP4SDQ=-33.895073\CCSD=-33.8961113\CCSD(T)=-33.89
 Normal termination of Gaussian 16 at Sun Dec 10 06:20:18 2023.
