 Gaussian 16, Revision A.03,
 Gaussian 16:  ES64L-G16RevA.03 25-Dec-2016

 ------------------
 #p CCSD(T)/CEP-31G
 ------------------

 ------------
 H2O_H2O_2358
 ------------
 Symbolic Z-matrix:
 Charge =  0 Multiplicity = 1

                         Standard orientation:
 ---------------------------------------------------------------------
 Center     Atomic      Atomic             Coordinates (Angstroms)
 Number     Number       Type             X           Y           Z
 ---------------------------------------------------------------------
      1          8           0        0.070210    2.044571    0.000000
      2          1           0        0.069224    1.061970    0.000000
      3          1           0       -0.858963    2.364170    0.000000
      4          8           0        0.070210   -1.874346    0.000000
      5          1           0        0.560657   -2.725796    0.000000
      6          1           0       -0.894277   -2.062151    0.000000
 ---------------------------------------------------------------------

 SCF Done:  E(RHF) =  -33.6557133812     A.U. after   11 cycles
 E2 =    -0.2285107983D+00 EUMP2 =    -0.33884224179508D+02
 CCSD(T)
 CCSD(T)= -0.33901154601D+02

 The electronic state is 1-A'.
 Alpha  occ. eigenvalues --   -1.37128  -1.33771  -0.72798  -0.69367  -0.57121
 Alpha  occ. eigenvalues --   -0.53566  -0.51748  -0.48384
 Alpha virt. eigenvalues --    0.18017   0.23069   0.29079   0.33387   0.78747
 Alpha virt. eigenvalues --    0.82194   0.83444   0.85095   0.87136   0.88504
 Alpha virt. eigenvalues --    1.15835   1.19700   1.20398   1.30987   2.54071

 Mulliken charges:
               1
     1  O   -0.757765
     2  H    0.395218
     3  H    0.360745
     4  O   -0.754720
     5  H    0.383701
     6  H    0.372821
 Sum of Mulliken charges =  -0.00000

 Dipole moment (field-independent basis, Debye):
    X=             -3.1873    Y=             -4.1422    Z=              0.0000  Tot=              5.2266
 Quadrupole moment (field-independent basis, Debye-Ang):
   XX=            -10.0320   YY=             -7.5423   ZZ=            -14.9958
   XY=             -4.1832   XZ=              0.0000   YZ=              0.0000

 7177\MP4DQ=-33.8954648\MP4SDQ=-33.8975307\CCSD=-33.8985614\CCSD(T)=-33
 Normal termination of Gaussian 16 at Sun Dec 10 07:04:50 2023.
