 Gaussian 16, Revision A.03,
 Gaussian 16:  ES64L-G16RevA.03 25-Dec-2016

 ------------------
 #p CCSD(T)/CEP-31G
 ------------------

 ------------
 H2O_H2O_2015
 ------------
 Symbolic Z-matrix:
 Charge =  0 Multiplicity = 1

                         Standard orientation:
 ---------------------------------------------------------------------
 Center     Atomic      Atomic             Coordinates (Angstroms)
 Number     Number       Type             X           Y           Z
 ---------------------------------------------------------------------
      1          8           0        0.044898    1.910474   -0.000000
      2          1           0        0.042656    0.927875   -0.000000
      3          1           0       -0.883865    2.231261   -0.000000
      4          8           0        0.044898   -1.730114    0.000000
      5          1           0        0.860654   -2.277882    0.000000
      6          1           0       -0.737820   -2.324133    0.000000
 ---------------------------------------------------------------------

 SCF Done:  E(RHF) =  -33.6585817731     A.U. after   11 cycles
 E2 =    -0.2285803754D+00 EUMP2 =    -0.33887162148575D+02
 CCSD(T)
 CCSD(T)= -0.33904026189D+02

 The electronic state is 1-A'.
 Alpha  occ. eigenvalues --   -1.37364  -1.33082  -0.73011  -0.68738  -0.57589
 Alpha  occ. eigenvalues --   -0.52927  -0.52029  -0.47737
 Alpha virt. eigenvalues --    0.18179   0.23973   0.29020   0.35213   0.78301
 Alpha virt. eigenvalues --    0.82915   0.82969   0.86075   0.88556   0.90075
 Alpha virt. eigenvalues --    1.15744   1.20107   1.20487   1.32390   2.51750

 Mulliken charges:
               1
     1  O   -0.769729
     2  H    0.406594
     3  H    0.360852
     4  O   -0.763867
     5  H    0.385752
     6  H    0.380399
 Sum of Mulliken charges =  -0.00000

 Dipole moment (field-independent basis, Debye):
    X=             -2.0230    Y=             -4.4389    Z=              0.0000  Tot=              4.8781
 Quadrupole moment (field-independent basis, Debye-Ang):
   XX=             -9.4157   YY=             -7.4394   ZZ=            -15.0021
   XY=             -5.2477   XZ=              0.0000   YZ=             -0.0000

 721\MP4DQ=-33.8983175\MP4SDQ=-33.9003899\CCSD=-33.9014128\CCSD(T)=-33.
 Normal termination of Gaussian 16 at Sun Dec 10 06:56:54 2023.
