 Gaussian 16, Revision A.03,
 Gaussian 16:  ES64L-G16RevA.03 25-Dec-2016

 ------------------
 #p CCSD(T)/CEP-31G
 ------------------

 -----------
 H2O_H2O_897
 -----------
 Symbolic Z-matrix:
 Charge =  0 Multiplicity = 1

                         Standard orientation:
 ---------------------------------------------------------------------
 Center     Atomic      Atomic             Coordinates (Angstroms)
 Number     Number       Type             X           Y           Z
 ---------------------------------------------------------------------
      1          8           0       -0.020013    1.454508    0.000000
      2          1           0       -0.015489    0.471917    0.000000
      3          1           0        0.908003    1.777450    0.000000
      4          8           0       -0.020013   -1.287476    0.000000
      5          1           0       -0.993608   -1.420215    0.000000
      6          1           0        0.421297   -2.165401    0.000000
 ---------------------------------------------------------------------

 SCF Done:  E(RHF) =  -33.6614041646     A.U. after   11 cycles
 E2 =    -0.2286619559D+00 EUMP2 =    -0.33890066120495D+02
 CCSD(T)
 CCSD(T)= -0.33906494597D+02

 The electronic state is 1-A'.
 Alpha  occ. eigenvalues --   -1.39306  -1.31114  -0.75226  -0.68274  -0.59515
 Alpha  occ. eigenvalues --   -0.53972  -0.50571  -0.45769
 Alpha virt. eigenvalues --    0.17564   0.26819   0.27706   0.46740   0.75068
 Alpha virt. eigenvalues --    0.77359   0.86433   0.86886   0.92342   1.07445
 Alpha virt. eigenvalues --    1.16076   1.20250   1.24067   1.36965   2.55886

 Mulliken charges:
               1
     1  O   -0.781251
     2  H    0.415991
     3  H    0.355358
     4  O   -0.819522
     5  H    0.401159
     6  H    0.428265
 Sum of Mulliken charges =   0.00000

 Dipole moment (field-independent basis, Debye):
    X=              0.8955    Y=             -4.4915    Z=              0.0000  Tot=              4.5799
 Quadrupole moment (field-independent basis, Debye-Ang):
   XX=             -9.6286   YY=             -9.0014   ZZ=            -15.0160
   XY=              4.8228   XZ=              0.0000   YZ=              0.0000

 262\MP4DQ=-33.9006101\MP4SDQ=-33.902759\CCSD=-33.9036907\CCSD(T)=-33.9
 Normal termination of Gaussian 16 at Sun Dec 10 06:35:23 2023.
