 Gaussian 16, Revision A.03,
 Gaussian 16:  ES64L-G16RevA.03 25-Dec-2016

 ------------------
 #p CCSD(T)/CEP-31G
 ------------------

 -----------
 H2O_H2O_300
 -----------
 Symbolic Z-matrix:
 Charge =  0 Multiplicity = 1

                         Standard orientation:
 ---------------------------------------------------------------------
 Center     Atomic      Atomic             Coordinates (Angstroms)
 Number     Number       Type             X           Y           Z
 ---------------------------------------------------------------------
      1          8           0        0.092949   -1.206535    0.000000
      2          1           0        0.092949   -0.223933    0.000000
      3          1           0       -0.836544   -1.525201    0.000000
      4          8           0        0.092949    1.073748    0.000000
      5          1           0        0.092949    2.056349    0.000000
      6          1           0       -0.836544    0.755080    0.000000
 ---------------------------------------------------------------------

 SCF Done:  E(RHF) =  -33.6078645864     A.U. after   11 cycles
 E2 =    -0.2290584444D+00 EUMP2 =    -0.33836923030741D+02
 CCSD(T)
 CCSD(T)= -0.33852924728D+02

 The electronic state is 1-A'.
 Alpha  occ. eigenvalues --   -1.44103  -1.31103  -0.82489  -0.69176  -0.58522
 Alpha  occ. eigenvalues --   -0.56995  -0.49685  -0.45290
 Alpha virt. eigenvalues --    0.16199   0.23731   0.28952   0.55937   0.73044
 Alpha virt. eigenvalues --    0.76943   0.87464   0.88831   0.94660   1.11347
 Alpha virt. eigenvalues --    1.12338   1.24396   1.26778   1.47321   2.76809

 Mulliken charges:
               1
     1  O   -0.672201
     2  H    0.256860
     3  H    0.319137
     4  O   -0.741937
     5  H    0.468248
     6  H    0.369894
 Sum of Mulliken charges =  -0.00000

 Dipole moment (field-independent basis, Debye):
    X=             -3.9457    Y=              4.2054    Z=              0.0000  Tot=              5.7666
 Quadrupole moment (field-independent basis, Debye-Ang):
   XX=            -11.3639   YY=            -10.2586   ZZ=            -14.9298
   XY=              2.1161   XZ=              0.0000   YZ=              0.0000

 3\MP4DQ=-33.8465401\MP4SDQ=-33.8490546\CCSD=-33.8497731\CCSD(T)=-33.85
 Normal termination of Gaussian 16 at Sun Dec 10 06:23:58 2023.
