 Gaussian 16, Revision A.03,
 Gaussian 16:  ES64L-G16RevA.03 25-Dec-2016

 ------------------
 #p CCSD(T)/CEP-31G
 ------------------

 -----------
 H2O_H2O_850
 -----------
 Symbolic Z-matrix:
 Charge =  0 Multiplicity = 1

                         Standard orientation:
 ---------------------------------------------------------------------
 Center     Atomic      Atomic             Coordinates (Angstroms)
 Number     Number       Type             X           Y           Z
 ---------------------------------------------------------------------
      1          8           0        0.092949   -1.425917    0.000000
      2          1           0        0.092949   -0.443316    0.000000
      3          1           0       -0.836544   -1.744584    0.000000
      4          8           0        0.092949    1.293131    0.000000
      5          1           0        0.092949    2.275732    0.000000
      6          1           0       -0.836544    0.974463    0.000000
 ---------------------------------------------------------------------

 SCF Done:  E(RHF) =  -33.6460804923     A.U. after   11 cycles
 E2 =    -0.2294113286D+00 EUMP2 =    -0.33875491820839D+02
 CCSD(T)
 CCSD(T)= -0.33892381344D+02

 The electronic state is 1-A'.
 Alpha  occ. eigenvalues --   -1.39912  -1.33140  -0.76894  -0.68532  -0.59233
 Alpha  occ. eigenvalues --   -0.54191  -0.52515  -0.47562
 Alpha virt. eigenvalues --    0.16460   0.25056   0.27730   0.45110   0.74492
 Alpha virt. eigenvalues --    0.79106   0.84857   0.85899   0.91505   1.12059
 Alpha virt. eigenvalues --    1.13921   1.23668   1.32508   1.36707   2.52727

 Mulliken charges:
               1
     1  O   -0.726570
     2  H    0.359531
     3  H    0.341668
     4  O   -0.764401
     5  H    0.426300
     6  H    0.363472
 Sum of Mulliken charges =   0.00000

 Dipole moment (field-independent basis, Debye):
    X=             -4.0919    Y=              3.6607    Z=              0.0000  Tot=              5.4904
 Quadrupole moment (field-independent basis, Debye-Ang):
   XX=            -11.3703   YY=             -9.7255   ZZ=            -14.9828
   XY=              2.2111   XZ=              0.0000   YZ=              0.0000

 62\MP4DQ=-33.886304\MP4SDQ=-33.8886042\CCSD=-33.8895231\CCSD(T)=-33.89
 Normal termination of Gaussian 16 at Sun Dec 10 06:34:30 2023.
