 Gaussian 16, Revision A.03,
 Gaussian 16:  ES64L-G16RevA.03 25-Dec-2016

 ------------------
 #p CCSD(T)/CEP-31G
 ------------------

 ------------
 H2O_H2O_1102
 ------------
 Symbolic Z-matrix:
 Charge =  0 Multiplicity = 1

                         Standard orientation:
 ---------------------------------------------------------------------
 Center     Atomic      Atomic             Coordinates (Angstroms)
 Number     Number       Type             X           Y           Z
 ---------------------------------------------------------------------
      1          8           0        0.088239   -1.531892    0.000000
      2          1           0        0.087964   -0.549291    0.000000
      3          1           0       -0.841165   -1.850818    0.000000
      4          8           0        0.088239    1.387590    0.000000
      5          1           0        0.216222    2.361821    0.000000
      6          1           0       -0.874842    1.192704    0.000000
 ---------------------------------------------------------------------

 SCF Done:  E(RHF) =  -33.6532608958     A.U. after   11 cycles
 E2 =    -0.2291622524D+00 EUMP2 =    -0.33882423148157D+02
 CCSD(T)
 CCSD(T)= -0.33899378806D+02

 The electronic state is 1-A'.
 Alpha  occ. eigenvalues --   -1.38960  -1.33124  -0.75220  -0.68741  -0.58838
 Alpha  occ. eigenvalues --   -0.53459  -0.52651  -0.47634
 Alpha virt. eigenvalues --    0.16732   0.25198   0.27722   0.41849   0.75554
 Alpha virt. eigenvalues --    0.79696   0.84853   0.84985   0.91083   1.11868
 Alpha virt. eigenvalues --    1.15513   1.22333   1.22638   1.38665   2.50736

 Mulliken charges:
               1
     1  O   -0.749636
     2  H    0.392196
     3  H    0.346316
     4  O   -0.774913
     5  H    0.417312
     6  H    0.368725
 Sum of Mulliken charges =  -0.00000

 Dipole moment (field-independent basis, Debye):
    X=             -3.9157    Y=              3.8217    Z=              0.0000  Tot=              5.4716
 Quadrupole moment (field-independent basis, Debye-Ang):
   XX=            -11.0305   YY=             -9.2622   ZZ=            -14.9927
   XY=              2.6427   XZ=              0.0000   YZ=              0.0000

 46\MP4DQ=-33.8934269\MP4SDQ=-33.8956419\CCSD=-33.8966158\CCSD(T)=-33.8
 Normal termination of Gaussian 16 at Sun Dec 10 06:39:14 2023.
