 Gaussian 16, Revision A.03,
 Gaussian 16:  ES64L-G16RevA.03 25-Dec-2016

 ------------------
 #p CCSD(T)/CEP-31G
 ------------------

 ------------
 H2O_H2O_4373
 ------------
 Symbolic Z-matrix:
 Charge =  0 Multiplicity = 1

                         Standard orientation:
 ---------------------------------------------------------------------
 Center     Atomic      Atomic             Coordinates (Angstroms)
 Number     Number       Type             X           Y           Z
 ---------------------------------------------------------------------
      1          8           0       -0.016584    2.838627    0.000000
      2          1           0       -0.014235    1.856029    0.000000
      3          1           0        0.912145    3.159515    0.000000
      4          8           0       -0.016584   -2.675220    0.000000
      5          1           0       -0.996926   -2.741829    0.000000
      6          1           0        0.364358   -3.580973    0.000000
 ---------------------------------------------------------------------

 SCF Done:  E(RHF) =  -33.6534898804     A.U. after   11 cycles
 E2 =    -0.2282857909D+00 EUMP2 =    -0.33881775671284D+02
 CCSD(T)
 CCSD(T)= -0.33898729443D+02

 The electronic state is 1-A'.
 Alpha  occ. eigenvalues --   -1.36273  -1.34776  -0.71915  -0.70416  -0.56103
 Alpha  occ. eigenvalues --   -0.54572  -0.50870  -0.49378
 Alpha virt. eigenvalues --    0.19557   0.21142   0.29840   0.31410   0.79682
 Alpha virt. eigenvalues --    0.81139   0.82521   0.84121   0.85693   0.87220
 Alpha virt. eigenvalues --    1.16701   1.18210   1.21136   1.22731   2.56646

 Mulliken charges:
               1
     1  O   -0.747749
     2  H    0.377775
     3  H    0.369958
     4  O   -0.747335
     5  H    0.373456
     6  H    0.373895
 Sum of Mulliken charges =  -0.00000

 Dipole moment (field-independent basis, Debye):
    X=              0.7612    Y=             -3.8323    Z=              0.0000  Tot=              3.9071
 Quadrupole moment (field-independent basis, Debye-Ang):
   XX=             -9.7735   YY=             -6.6829   ZZ=            -14.9919
   XY=              9.9551   XZ=              0.0000   YZ=              0.0000

 485\MP4DQ=-33.8930966\MP4SDQ=-33.8951202\CCSD=-33.8961722\CCSD(T)=-33.
 Normal termination of Gaussian 16 at Sun Dec 10 06:51:43 2023.
