 Gaussian 16, Revision A.03,
 Gaussian 16:  ES64L-G16RevA.03 25-Dec-2016

 ------------------
 #p CCSD(T)/CEP-31G
 ------------------

 -----------
 H2O_H2O_604
 -----------
 Symbolic Z-matrix:
 Charge =  0 Multiplicity = 1

                         Standard orientation:
 ---------------------------------------------------------------------
 Center     Atomic      Atomic             Coordinates (Angstroms)
 Number     Number       Type             X           Y           Z
 ---------------------------------------------------------------------
      1          8           0        0.082827   -1.337976    0.000000
      2          1           0        0.082145   -0.355375    0.000000
      3          1           0       -0.846444   -1.657288    0.000000
      4          8           0        0.082827    1.183509    0.000000
      5          1           0        0.336484    2.132807    0.000000
      6          1           0       -0.897424    1.115591    0.000000
 ---------------------------------------------------------------------

 SCF Done:  E(RHF) =  -33.6463548438     A.U. after   11 cycles
 E2 =    -0.2288544058D+00 EUMP2 =    -0.33875209249678D+02
 CCSD(T)
 CCSD(T)= -0.33891569857D+02

 The electronic state is 1-A'.
 Alpha  occ. eigenvalues --   -1.40916  -1.31215  -0.77633  -0.69116  -0.59035
 Alpha  occ. eigenvalues --   -0.55176  -0.50285  -0.45612
 Alpha virt. eigenvalues --    0.16604   0.25483   0.27899   0.50831   0.73959
 Alpha virt. eigenvalues --    0.76952   0.85522   0.87870   0.95176   1.09790
 Alpha virt. eigenvalues --    1.14884   1.23290   1.29594   1.37245   2.64933

 Mulliken charges:
               1
     1  O   -0.733290
     2  H    0.374588
     3  H    0.330821
     4  O   -0.810623
     5  H    0.456724
     6  H    0.381780
 Sum of Mulliken charges =   0.00000

 Dipole moment (field-independent basis, Debye):
    X=             -3.5557    Y=              4.4155    Z=              0.0000  Tot=              5.6692
 Quadrupole moment (field-independent basis, Debye-Ang):
   XX=            -10.6941   YY=             -9.5052   ZZ=            -14.9894
   XY=              2.9053   XZ=              0.0000   YZ=              0.0000

 15\MP4DQ=-33.8854814\MP4SDQ=-33.8877775\CCSD=-33.8886499\CCSD(T)=-33.8
 Normal termination of Gaussian 16 at Sun Dec 10 06:29:53 2023.
