 Gaussian 16, Revision A.03,
 Gaussian 16:  ES64L-G16RevA.03 25-Dec-2016

 ------------------
 #p CCSD(T)/CEP-31G
 ------------------

 ------------
 H2O_H2O_1317
 ------------
 Symbolic Z-matrix:
 Charge =  0 Multiplicity = 1

                         Standard orientation:
 ---------------------------------------------------------------------
 Center     Atomic      Atomic             Coordinates (Angstroms)
 Number     Number       Type             X           Y           Z
 ---------------------------------------------------------------------
      1          8           0        0.037535    1.630465   -0.000000
      2          1           0        0.034478    0.647869   -0.000000
      3          1           0       -0.890962    1.952022    0.000000
      4          8           0        0.037535   -1.451576   -0.000000
      5          1           0        0.917448   -1.888909   -0.000000
      6          1           0       -0.661525   -2.142098    0.000000
 ---------------------------------------------------------------------

 SCF Done:  E(RHF) =  -33.6625354733     A.U. after   11 cycles
 E2 =    -0.2289091268D+00 EUMP2 =    -0.33891444600128D+02
 CCSD(T)
 CCSD(T)= -0.33908116365D+02

 The electronic state is 1-A'.
 Alpha  occ. eigenvalues --   -1.38247  -1.31911  -0.73877  -0.68045  -0.58836
 Alpha  occ. eigenvalues --   -0.52970  -0.51648  -0.46588
 Alpha virt. eigenvalues --    0.17850   0.25722   0.28411   0.41180   0.76566
 Alpha virt. eigenvalues --    0.79288   0.85066   0.86198   0.91968   0.99982
 Alpha virt. eigenvalues --    1.15139   1.19046   1.21891   1.34473   2.50000

 Mulliken charges:
               1
     1  O   -0.784916
     2  H    0.428094
     3  H    0.355237
     4  O   -0.791617
     5  H    0.396492
     6  H    0.396710
 Sum of Mulliken charges =   0.00000

 Dipole moment (field-independent basis, Debye):
    X=             -1.6694    Y=             -4.5729    Z=              0.0000  Tot=              4.8681
 Quadrupole moment (field-independent basis, Debye-Ang):
   XX=             -9.3780   YY=             -8.3233   ZZ=            -15.0130
   XY=             -4.8152   XZ=             -0.0000   YZ=              0.0000

 6147\MP4DQ=-33.9023227\MP4SDQ=-33.9044181\CCSD=-33.9054024\CCSD(T)=-33
 Normal termination of Gaussian 16 at Sun Dec 10 06:43:27 2023.
