 Gaussian 16, Revision A.03,
 Gaussian 16:  ES64L-G16RevA.03 25-Dec-2016

 ------------------
 #p CCSD(T)/CEP-31G
 ------------------

 -----------
 H2O_H2O_398
 -----------
 Symbolic Z-matrix:
 Charge =  0 Multiplicity = 1

                         Standard orientation:
 ---------------------------------------------------------------------
 Center     Atomic      Atomic             Coordinates (Angstroms)
 Number     Number       Type             X           Y           Z
 ---------------------------------------------------------------------
      1          8           0        0.016848   -1.253047    0.000000
      2          1           0        0.011320   -0.270461    0.000000
      3          1           0       -0.910837   -1.576938    0.000000
      4          8           0        0.016848    1.089748    0.000000
      5          1           0        0.996969    1.159528    0.000000
      6          1           0       -0.367024    1.994263    0.000000
 ---------------------------------------------------------------------

 SCF Done:  E(RHF) =  -33.6421737125     A.U. after   11 cycles
 E2 =    -0.2278463968D+00 EUMP2 =    -0.33870020109377D+02
 CCSD(T)
 CCSD(T)= -0.33885579998D+02

 The electronic state is 1-A'.
 Alpha  occ. eigenvalues --   -1.42157  -1.29077  -0.78856  -0.70676  -0.58460
 Alpha  occ. eigenvalues --   -0.56276  -0.47537  -0.43531
 Alpha virt. eigenvalues --    0.17208   0.25956   0.28821   0.56616   0.73697
 Alpha virt. eigenvalues --    0.75549   0.87971   0.89708   0.93539   1.04313
 Alpha virt. eigenvalues --    1.14918   1.21625   1.28705   1.39453   2.78499

 Mulliken charges:
               1
     1  O   -0.756495
     2  H    0.359836
     3  H    0.343288
     4  O   -0.836919
     5  H    0.420179
     6  H    0.470110
 Sum of Mulliken charges =   0.00000

 Dipole moment (field-independent basis, Debye):
    X=             -0.7479    Y=              4.8627    Z=              0.0000  Tot=              4.9199
 Quadrupole moment (field-independent basis, Debye-Ang):
   XX=             -9.6756   YY=             -9.8214   ZZ=            -14.9903
   XY=              4.1682   XZ=              0.0000   YZ=              0.0000

 965\MP4DQ=-33.8795463\MP4SDQ=-33.8817901\CCSD=-33.8825735\CCSD(T)=-33.
 Normal termination of Gaussian 16 at Sun Dec 10 06:25:54 2023.
