 Gaussian 16, Revision A.03,
 Gaussian 16:  ES64L-G16RevA.03 25-Dec-2016

 ------------------
 #p CCSD(T)/CEP-31G
 ------------------

 ------------
 H2O_H2O_3451
 ------------
 Symbolic Z-matrix:
 Charge =  0 Multiplicity = 1

                         Standard orientation:
 ---------------------------------------------------------------------
 Center     Atomic      Atomic             Coordinates (Angstroms)
 Number     Number       Type             X           Y           Z
 ---------------------------------------------------------------------
      1          8           0        0.090684   -2.466215    0.000000
      2          1           0        0.090604   -1.483613    0.000000
      3          1           0       -0.838783   -2.784957    0.000000
      4          8           0        0.090684    2.327506    0.000000
      5          1           0        0.154869    3.308009    0.000000
      6          1           0       -0.857640    2.070235    0.000000
 ---------------------------------------------------------------------

 SCF Done:  E(RHF) =  -33.6523619225     A.U. after   11 cycles
 E2 =    -0.2283765779D+00 EUMP2 =    -0.33880738500426D+02
 CCSD(T)
 CCSD(T)= -0.33897726756D+02

 The electronic state is 1-A'.
 Alpha  occ. eigenvalues --   -1.36594  -1.34937  -0.72256  -0.70541  -0.56372
 Alpha  occ. eigenvalues --   -0.54673  -0.51169  -0.49509
 Alpha virt. eigenvalues --    0.18470   0.21450   0.29460   0.31266   0.79409
 Alpha virt. eigenvalues --    0.81027   0.82328   0.84020   0.85389   0.87439
 Alpha virt. eigenvalues --    1.16111   1.18260   1.20786   1.23582   2.55804

 Mulliken charges:
               1
     1  O   -0.743483
     2  H    0.377964
     3  H    0.365367
     4  O   -0.744085
     5  H    0.377135
     6  H    0.367102
 Sum of Mulliken charges =  -0.00000

 Dipole moment (field-independent basis, Debye):
    X=             -4.1572    Y=              3.2891    Z=              0.0000  Tot=              5.3010
 Quadrupole moment (field-independent basis, Debye-Ang):
   XX=            -11.1341   YY=             -9.1267   ZZ=            -14.9887
   XY=              2.5968   XZ=              0.0000   YZ=              0.0000

 37\MP4DQ=-33.8920786\MP4SDQ=-33.8941099\CCSD=-33.8951604\CCSD(T)=-33.8
 Normal termination of Gaussian 16 at Sun Dec 10 06:35:08 2023.
