 Gaussian 16, Revision A.03,
 Gaussian 16:  ES64L-G16RevA.03 25-Dec-2016

 ------------------
 #p CCSD(T)/CEP-31G
 ------------------

 ------------
 H2O_H2O_2630
 ------------
 Symbolic Z-matrix:
 Charge =  0 Multiplicity = 1

                         Standard orientation:
 ---------------------------------------------------------------------
 Center     Atomic      Atomic             Coordinates (Angstroms)
 Number     Number       Type             X           Y           Z
 ---------------------------------------------------------------------
      1          8           0        0.079856    2.148193   -0.000000
      2          1           0        0.079318    1.165591   -0.000000
      3          1           0       -0.849463    2.467367   -0.000000
      4          8           0        0.079856   -1.989139    0.000000
      5          1           0        0.395194   -2.919767    0.000000
      6          1           0       -0.902740   -1.985622    0.000000
 ---------------------------------------------------------------------

 SCF Done:  E(RHF) =  -33.6542031219     A.U. after   11 cycles
 E2 =    -0.2284630892D+00 EUMP2 =    -0.33882666211087D+02
 CCSD(T)
 CCSD(T)= -0.33899622455D+02

 The electronic state is 1-A'.
 Alpha  occ. eigenvalues --   -1.36965  -1.34237  -0.72640  -0.69825  -0.56852
 Alpha  occ. eigenvalues --   -0.54004  -0.51563  -0.48829
 Alpha virt. eigenvalues --    0.17908   0.22533   0.29153   0.32442   0.78989
 Alpha virt. eigenvalues --    0.81715   0.83030   0.84728   0.86017   0.88120
 Alpha virt. eigenvalues --    1.15874   1.19235   1.20483   1.28889   2.55523

 Mulliken charges:
               1
     1  O   -0.751327
     2  H    0.388073
     3  H    0.362098
     4  O   -0.750133
     5  H    0.381395
     6  H    0.369894
 Sum of Mulliken charges =  -0.00000

 Dipole moment (field-independent basis, Debye):
    X=             -3.6391    Y=             -3.8373    Z=              0.0000  Tot=              5.2885
 Quadrupole moment (field-independent basis, Debye-Ang):
   XX=            -10.4876   YY=             -7.9554   ZZ=            -14.9925
   XY=             -3.5797   XZ=              0.0000   YZ=             -0.0000

 32\MP4DQ=-33.8939489\MP4SDQ=-33.8960032\CCSD=-33.8970397\CCSD(T)=-33.8
 Normal termination of Gaussian 16 at Sun Dec 10 06:20:21 2023.
