 Gaussian 16, Revision A.03,
 Gaussian 16:  ES64L-G16RevA.03 25-Dec-2016

 ------------------
 #p CCSD(T)/CEP-31G
 ------------------

 -----------
 H2O_H2O_248
 -----------
 Symbolic Z-matrix:
 Charge =  0 Multiplicity = 1

                         Standard orientation:
 ---------------------------------------------------------------------
 Center     Atomic      Atomic             Coordinates (Angstroms)
 Number     Number       Type             X           Y           Z
 ---------------------------------------------------------------------
      1          8           0        0.016873   -1.193211    0.000000
      2          1           0        0.011047   -0.210627    0.000000
      3          1           0       -0.910714   -1.517383    0.000000
      4          8           0        0.016873    1.029922    0.000000
      5          1           0        0.996972    1.100000    0.000000
      6          1           0       -0.367273    1.934322    0.000000
 ---------------------------------------------------------------------

 SCF Done:  E(RHF) =  -33.6251546404     A.U. after   11 cycles
 E2 =    -0.2274114209D+00 EUMP2 =    -0.33852566061277D+02
 CCSD(T)
 CCSD(T)= -0.33867725715D+02

 The electronic state is 1-A'.
 Alpha  occ. eigenvalues --   -1.43755  -1.28167  -0.80755  -0.72198  -0.57375
 Alpha  occ. eigenvalues --   -0.57369  -0.46037  -0.42486
 Alpha virt. eigenvalues --    0.17038   0.25288   0.29493   0.59664   0.73479
 Alpha virt. eigenvalues --    0.75031   0.89173   0.90624   0.93442   1.03571
 Alpha virt. eigenvalues --    1.14102   1.20579   1.29600   1.41043   2.88761

 Mulliken charges:
               1
     1  O   -0.747065
     2  H    0.321711
     3  H    0.336366
     4  O   -0.823193
     5  H    0.428720
     6  H    0.483461
 Sum of Mulliken charges =   0.00000

 Dipole moment (field-independent basis, Debye):
    X=             -0.7388    Y=              5.0798    Z=              0.0000  Tot=              5.1332
 Quadrupole moment (field-independent basis, Debye-Ang):
   XX=             -9.6452   YY=            -10.1340   ZZ=            -14.9643
   XY=              3.9329   XZ=              0.0000   YZ=              0.0000

 898\MP4DQ=-33.8616289\MP4SDQ=-33.8639176\CCSD=-33.8646341\CCSD(T)=-33.
 Normal termination of Gaussian 16 at Sun Dec 10 06:22:56 2023.
