 Gaussian 16, Revision A.03,
 Gaussian 16:  ES64L-G16RevA.03 25-Dec-2016

 ------------------
 #p CCSD(T)/CEP-31G
 ------------------

 ------------
 H2O_H2O_2162
 ------------
 Symbolic Z-matrix:
 Charge =  0 Multiplicity = 1

                         Standard orientation:
 ---------------------------------------------------------------------
 Center     Atomic      Atomic             Coordinates (Angstroms)
 Number     Number       Type             X           Y           Z
 ---------------------------------------------------------------------
      1          8           0        0.056015    1.969497   -0.000000
      2          1           0        0.054347    0.986897   -0.000000
      3          1           0       -0.872935    2.289741   -0.000000
      4          8           0        0.056015   -1.790621    0.000000
      5          1           0        0.749639   -2.486604    0.000000
      6          1           0       -0.827299   -2.221041    0.000000
 ---------------------------------------------------------------------

 SCF Done:  E(RHF) =  -33.6574211081     A.U. after   11 cycles
 E2 =    -0.2285433373D+00 EUMP2 =    -0.33885964445341D+02
 CCSD(T)
 CCSD(T)= -0.33902854992D+02

 The electronic state is 1-A'.
 Alpha  occ. eigenvalues --   -1.37255  -1.33330  -0.72910  -0.68953  -0.57381
 Alpha  occ. eigenvalues --   -0.53157  -0.51902  -0.47968
 Alpha virt. eigenvalues --    0.18175   0.23591   0.29062   0.34394   0.78518
 Alpha virt. eigenvalues --    0.82660   0.83441   0.85610   0.88009   0.88937
 Alpha virt. eigenvalues --    1.15814   1.20120   1.20309   1.31697   2.52649

 Mulliken charges:
               1
     1  O   -0.764832
     2  H    0.402183
     3  H    0.360471
     4  O   -0.759744
     5  H    0.385148
     6  H    0.376773
 Sum of Mulliken charges =   0.00000

 Dipole moment (field-independent basis, Debye):
    X=             -2.5318    Y=             -4.3804    Z=              0.0000  Tot=              5.0595
 Quadrupole moment (field-independent basis, Debye-Ang):
   XX=             -9.5813   YY=             -7.3408   ZZ=            -14.9996
   XY=             -4.8582   XZ=              0.0000   YZ=             -0.0000

 4088\MP4DQ=-33.8971563\MP4SDQ=-33.8992259\CCSD=-33.9002522\CCSD(T)=-33
 Normal termination of Gaussian 16 at Sun Dec 10 06:59:48 2023.
