 Gaussian 16, Revision A.03,
 Gaussian 16:  ES64L-G16RevA.03 25-Dec-2016

 ------------------
 #p CCSD(T)/CEP-31G
 ------------------

 -----------
 H2O_H2O_607
 -----------
 Symbolic Z-matrix:
 Charge =  0 Multiplicity = 1

                         Standard orientation:
 ---------------------------------------------------------------------
 Center     Atomic      Atomic             Coordinates (Angstroms)
 Number     Number       Type             X           Y           Z
 ---------------------------------------------------------------------
      1          8           0        0.073585    1.344708   -0.000000
      2          1           0        0.072279    0.362107   -0.000000
      3          1           0       -0.855484    1.664610   -0.000000
      4          8           0        0.073585   -1.177853    0.000000
      5          1           0        0.507006   -2.059699    0.000000
      6          1           0       -0.901161   -1.301858    0.000000
 ---------------------------------------------------------------------

 SCF Done:  E(RHF) =  -33.6515976748     A.U. after   11 cycles
 E2 =    -0.2288981483D+00 EUMP2 =    -0.33880495823051D+02
 CCSD(T)
 CCSD(T)= -0.33896619437D+02

 The electronic state is 1-A'.
 Alpha  occ. eigenvalues --   -1.40738  -1.30526  -0.76857  -0.69724  -0.58816
 Alpha  occ. eigenvalues --   -0.55177  -0.49550  -0.44962
 Alpha virt. eigenvalues --    0.16814   0.26104   0.27874   0.51612   0.74091
 Alpha virt. eigenvalues --    0.76072   0.85476   0.88255   0.96132   1.07638
 Alpha virt. eigenvalues --    1.15802   1.22088   1.23654   1.36157   2.66254

 Mulliken charges:
               1
     1  O   -0.752565
     2  H    0.404619
     3  H    0.330125
     4  O   -0.827822
     5  H    0.454241
     6  H    0.391402
 Sum of Mulliken charges =  -0.00000

 Dipole moment (field-independent basis, Debye):
    X=             -3.1286    Y=             -4.7096    Z=              0.0000  Tot=              5.6541
 Quadrupole moment (field-independent basis, Debye-Ang):
   XX=            -10.1765   YY=             -9.4457   ZZ=            -15.0000
   XY=             -3.3311   XZ=              0.0000   YZ=             -0.0000

 73\MP4DQ=-33.8905894\MP4SDQ=-33.8928322\CCSD=-33.8936899\CCSD(T)=-33.8
 Normal termination of Gaussian 16 at Sun Dec 10 06:29:57 2023.
