 Gaussian 16, Revision A.03,
 Gaussian 16:  ES64L-G16RevA.03 25-Dec-2016

 ------------------
 #p CCSD(T)/CEP-31G
 ------------------

 -----------
 H2O_H2O_303
 -----------
 Symbolic Z-matrix:
 Charge =  0 Multiplicity = 1

                         Standard orientation:
 ---------------------------------------------------------------------
 Center     Atomic      Atomic             Coordinates (Angstroms)
 Number     Number       Type             X           Y           Z
 ---------------------------------------------------------------------
      1          8           0        0.085622   -1.215642    0.000000
      2          1           0        0.085075   -0.233041    0.000000
      3          1           0       -0.843694   -1.534825    0.000000
      4          8           0        0.085622    1.066092    0.000000
      5          1           0        0.276782    2.029920    0.000000
      6          1           0       -0.888107    0.934343    0.000000
 ---------------------------------------------------------------------

 SCF Done:  E(RHF) =  -33.6202135340     A.U. after   11 cycles
 E2 =    -0.2284973700D+00 EUMP2 =    -0.33848710903971D+02
 CCSD(T)
 CCSD(T)= -0.33864525422D+02

 The electronic state is 1-A'.
 Alpha  occ. eigenvalues --   -1.43580  -1.30108  -0.81196  -0.70574  -0.57793
 Alpha  occ. eigenvalues --   -0.56986  -0.48567  -0.44310
 Alpha virt. eigenvalues --    0.16225   0.24184   0.28996   0.56919   0.73252
 Alpha virt. eigenvalues --    0.76044   0.87274   0.89398   0.96472   1.09554
 Alpha virt. eigenvalues --    1.13280   1.23714   1.26262   1.43488   2.84681

 Mulliken charges:
               1
     1  O   -0.698278
     2  H    0.306408
     3  H    0.316503
     4  O   -0.793473
     5  H    0.482907
     6  H    0.385934
 Sum of Mulliken charges =   0.00000

 Dipole moment (field-independent basis, Debye):
    X=             -3.5910    Y=              4.6412    Z=              0.0000  Tot=              5.8682
 Quadrupole moment (field-independent basis, Debye-Ang):
   XX=            -10.8548   YY=            -10.0257   ZZ=            -14.9488
   XY=              2.6446   XZ=              0.0000   YZ=              0.0000

 \MP4DQ=-33.8582519\MP4SDQ=-33.860682\CCSD=-33.8614369\CCSD(T)=-33.8645
 Normal termination of Gaussian 16 at Sun Dec 10 06:24:02 2023.
