 Gaussian 16, Revision A.03,
 Gaussian 16:  ES64L-G16RevA.03 25-Dec-2016

 ------------------
 #p CCSD(T)/CEP-31G
 ------------------

 ------------
 H2O_H2O_1807
 ------------
 Symbolic Z-matrix:
 Charge =  0 Multiplicity = 1

                         Standard orientation:
 ---------------------------------------------------------------------
 Center     Atomic      Atomic             Coordinates (Angstroms)
 Number     Number       Type             X           Y           Z
 ---------------------------------------------------------------------
      1          8           0        0.073554    1.823387   -0.000000
      2          1           0        0.072607    0.840786   -0.000000
      3          1           0       -0.855631    2.142949   -0.000000
      4          8           0        0.073554   -1.656479    0.000000
      5          1           0        0.507299   -2.538165    0.000000
      6          1           0       -0.901146   -1.780840    0.000000
 ---------------------------------------------------------------------

 SCF Done:  E(RHF) =  -33.6570721847     A.U. after   11 cycles
 E2 =    -0.2287483199D+00 EUMP2 =    -0.33885820504582D+02
 CCSD(T)
 CCSD(T)= -0.33902756455D+02

 The electronic state is 1-A'.
 Alpha  occ. eigenvalues --   -1.37630  -1.33307  -0.73339  -0.68925  -0.57771
 Alpha  occ. eigenvalues --   -0.53065  -0.52258  -0.47919
 Alpha virt. eigenvalues --    0.17607   0.24130   0.28685   0.35860   0.77870
 Alpha virt. eigenvalues --    0.82130   0.83067   0.85323   0.89434   0.95334
 Alpha virt. eigenvalues --    1.15291   1.19342   1.20708   1.35900   2.51418

 Mulliken charges:
               1
     1  O   -0.764521
     2  H    0.406078
     3  H    0.356071
     4  O   -0.764111
     5  H    0.392566
     6  H    0.373917
 Sum of Mulliken charges =  -0.00000

 Dipole moment (field-independent basis, Debye):
    X=             -3.3121    Y=             -4.1567    Z=              0.0000  Tot=              5.3149
 Quadrupole moment (field-independent basis, Debye-Ang):
   XX=            -10.1812   YY=             -8.1080   ZZ=            -14.9983
   XY=             -3.7678   XZ=              0.0000   YZ=             -0.0000

 2645\MP4DQ=-33.8969965\MP4SDQ=-33.8990962\CCSD=-33.9001175\CCSD(T)=-33
 Normal termination of Gaussian 16 at Sun Dec 10 06:52:59 2023.
