 Gaussian 16, Revision A.03,
 Gaussian 16:  ES64L-G16RevA.03 25-Dec-2016

 ------------------
 #p CCSD(T)/CEP-31G
 ------------------

 ------------
 H2O_H2O_3731
 ------------
 Symbolic Z-matrix:
 Charge =  0 Multiplicity = 1

                         Standard orientation:
 ---------------------------------------------------------------------
 Center     Atomic      Atomic             Coordinates (Angstroms)
 Number     Number       Type             X           Y           Z
 ---------------------------------------------------------------------
      1          8           0        0.076753    2.589219    0.000000
      2          1           0        0.076205    1.606618    0.000000
      3          1           0       -0.852562    2.908404    0.000000
      4          8           0        0.076753   -2.426001   -0.000000
      5          1           0        0.452273   -3.334016   -0.000000
      6          1           0       -0.903969   -2.486746   -0.000000
 ---------------------------------------------------------------------

 SCF Done:  E(RHF) =  -33.6531158893     A.U. after   11 cycles
 E2 =    -0.2283277560D+00 EUMP2 =    -0.33881443645275D+02
 CCSD(T)
 CCSD(T)= -0.33898406957D+02

 The electronic state is 1-A'.
 Alpha  occ. eigenvalues --   -1.36471  -1.34653  -0.72122  -0.70266  -0.56286
 Alpha  occ. eigenvalues --   -0.54417  -0.51060  -0.49240
 Alpha virt. eigenvalues --    0.19171   0.21378   0.29593   0.31571   0.79507
 Alpha virt. eigenvalues --    0.81278   0.82334   0.84300   0.85478   0.87537
 Alpha virt. eigenvalues --    1.16473   1.18372   1.20887   1.23248   2.56439

 Mulliken charges:
               1
     1  O   -0.746357
     2  H    0.380363
     3  H    0.365881
     4  O   -0.746317
     5  H    0.376493
     6  H    0.369937
 Sum of Mulliken charges =   0.00000

 Dipole moment (field-independent basis, Debye):
    X=             -3.5192    Y=             -3.8563    Z=             -0.0000  Tot=              5.2207
 Quadrupole moment (field-independent basis, Debye-Ang):
   XX=            -10.3202   YY=             -7.0959   ZZ=            -14.9910
   XY=             -4.1627   XZ=              0.0000   YZ=              0.0000

 0226\MP4DQ=-33.8927684\MP4SDQ=-33.8947955\CCSD=-33.8958459\CCSD(T)=-33
 Normal termination of Gaussian 16 at Sun Dec 10 06:40:08 2023.
