 Gaussian 16, Revision A.03,
 Gaussian 16:  ES64L-G16RevA.03 25-Dec-2016

 ------------------
 #p CCSD(T)/CEP-31G
 ------------------

 ------------
 H2O_H2O_3104
 ------------
 Symbolic Z-matrix:
 Charge =  0 Multiplicity = 1

                         Standard orientation:
 ---------------------------------------------------------------------
 Center     Atomic      Atomic             Coordinates (Angstroms)
 Number     Number       Type             X           Y           Z
 ---------------------------------------------------------------------
      1          8           0        0.082804   -2.335195    0.000000
      2          1           0        0.082422   -1.352593    0.000000
      3          1           0       -0.846566   -2.654222    0.000000
      4          8           0        0.082804    2.180677    0.000000
      5          1           0        0.336752    3.129897    0.000000
      6          1           0       -0.897468    2.113059    0.000000
 ---------------------------------------------------------------------

 SCF Done:  E(RHF) =  -33.6533002505     A.U. after   11 cycles
 E2 =    -0.2283819810D+00 EUMP2 =    -0.33881682231533D+02
 CCSD(T)
 CCSD(T)= -0.33898646249D+02

 The electronic state is 1-A'.
 Alpha  occ. eigenvalues --   -1.36718  -1.34563  -0.72382  -0.70163  -0.56547
 Alpha  occ. eigenvalues --   -0.54321  -0.51306  -0.49147
 Alpha virt. eigenvalues --    0.18372   0.21881   0.29351   0.31763   0.79271
 Alpha virt. eigenvalues --    0.81373   0.82406   0.84385   0.85362   0.87796
 Alpha virt. eigenvalues --    1.16110   1.18744   1.20656   1.25237   2.56261

 Mulliken charges:
               1
     1  O   -0.747236
     2  H    0.382670
     3  H    0.364104
     4  O   -0.747193
     5  H    0.378728
     6  H    0.368928
 Sum of Mulliken charges =  -0.00000

 Dipole moment (field-independent basis, Debye):
    X=             -3.7867    Y=              3.6859    Z=              0.0000  Tot=              5.2845
 Quadrupole moment (field-independent basis, Debye-Ang):
   XX=            -10.6465   YY=             -8.0303   ZZ=            -14.9909
   XY=              3.4227   XZ=              0.0000   YZ=              0.0000

 501\MP4DQ=-33.8929952\MP4SDQ=-33.895032\CCSD=-33.8960769\CCSD(T)=-33.8
 Normal termination of Gaussian 16 at Sun Dec 10 06:28:56 2023.
