 Gaussian 16, Revision A.03,
 Gaussian 16:  ES64L-G16RevA.03 25-Dec-2016

 ------------------
 #p CCSD(T)/CEP-31G
 ------------------

 ------------
 H2O_H2O_4659
 ------------
 Symbolic Z-matrix:
 Charge =  0 Multiplicity = 1

                         Standard orientation:
 ---------------------------------------------------------------------
 Center     Atomic      Atomic             Coordinates (Angstroms)
 Number     Number       Type             X           Y           Z
 ---------------------------------------------------------------------
      1          8           0        0.066742    2.963566   -0.000000
      2          1           0        0.065969    1.980965   -0.000000
      3          1           0       -0.862500    3.282963   -0.000000
      4          8           0        0.066742   -2.790433    0.000000
      5          1           0        0.612003   -3.607866    0.000000
      6          1           0       -0.883343   -3.041123    0.000000
 ---------------------------------------------------------------------

 SCF Done:  E(RHF) =  -33.6528669361     A.U. after   11 cycles
 E2 =    -0.2283199643D+00 EUMP2 =    -0.33881186900375D+02
 CCSD(T)
 CCSD(T)= -0.33898156657D+02

 The electronic state is 1-A'.
 Alpha  occ. eigenvalues --   -1.36240  -1.34791  -0.71882  -0.70416  -0.56038
 Alpha  occ. eigenvalues --   -0.54557  -0.50827  -0.49379
 Alpha virt. eigenvalues --    0.19578   0.21086   0.29836   0.31358   0.79728
 Alpha virt. eigenvalues --    0.81147   0.82627   0.84147   0.85771   0.87286
 Alpha virt. eigenvalues --    1.16709   1.18155   1.21153   1.22661   2.56692

 Mulliken charges:
               1
     1  O   -0.745351
     2  H    0.377685
     3  H    0.367659
     4  O   -0.745141
     5  H    0.374405
     6  H    0.370741
 Sum of Mulliken charges =  -0.00000

 Dipole moment (field-independent basis, Debye):
    X=             -3.0684    Y=             -4.0585    Z=              0.0000  Tot=              5.0879
 Quadrupole moment (field-independent basis, Debye-Ang):
   XX=             -9.8928   YY=             -5.6331   ZZ=            -14.9907
   XY=             -5.5184   XZ=              0.0000   YZ=             -0.0000

 7748\MP4DQ=-33.8925201\MP4SDQ=-33.894545\CCSD=-33.8955981\CCSD(T)=-33.
 Normal termination of Gaussian 16 at Sun Dec 10 06:56:52 2023.
