 Gaussian 16, Revision A.03,
 Gaussian 16:  ES64L-G16RevA.03 25-Dec-2016

 ------------------
 #p CCSD(T)/CEP-31G
 ------------------

 -----------
 H2O_H2O_617
 -----------
 Symbolic Z-matrix:
 Charge =  0 Multiplicity = 1

                         Standard orientation:
 ---------------------------------------------------------------------
 Center     Atomic      Atomic             Coordinates (Angstroms)
 Number     Number       Type             X           Y           Z
 ---------------------------------------------------------------------
      1          8           0        0.037597    1.351227    0.000000
      2          1           0        0.033863    0.368633    0.000000
      3          1           0       -0.890679    1.673423   -0.000000
      4          8           0        0.037597   -1.172389    0.000000
      5          1           0        0.917207   -1.610328    0.000000
      6          1           0       -0.661938   -1.862430   -0.000000
 ---------------------------------------------------------------------

 SCF Done:  E(RHF) =  -33.6581178411     A.U. after   11 cycles
 E2 =    -0.2288659497D+00 EUMP2 =    -0.33886983790827D+02
 CCSD(T)
 CCSD(T)= -0.33902796054D+02

 The electronic state is 1-A'.
 Alpha  occ. eigenvalues --   -1.40507  -1.29642  -0.75878  -0.70376  -0.58775
 Alpha  occ. eigenvalues --   -0.55155  -0.48642  -0.44173
 Alpha virt. eigenvalues --    0.17259   0.27096   0.27970   0.52799   0.74242
 Alpha virt. eigenvalues --    0.74795   0.85774   0.88728   0.96178   0.99762
 Alpha virt. eigenvalues --    1.15411   1.18152   1.24502   1.37205   2.64743

 Mulliken charges:
               1
     1  O   -0.779671
     2  H    0.424854
     3  H    0.338384
     4  O   -0.832971
     5  H    0.421421
     6  H    0.427982
 Sum of Mulliken charges =  -0.00000

 Dipole moment (field-independent basis, Debye):
    X=             -1.6270    Y=             -4.9757    Z=             -0.0000  Tot=              5.2349
 Quadrupole moment (field-independent basis, Debye-Ang):
   XX=             -9.3315   YY=             -9.5026   ZZ=            -15.0155
   XY=             -4.0054   XZ=              0.0000   YZ=             -0.0000

 37\MP4DQ=-33.8968584\MP4SDQ=-33.899019\CCSD=-33.8998459\CCSD(T)=-33.90
 Normal termination of Gaussian 16 at Sun Dec 10 06:30:08 2023.
