 Gaussian 16, Revision A.03,
 Gaussian 16:  ES64L-G16RevA.03 25-Dec-2016

 ------------------
 #p CCSD(T)/CEP-31G
 ------------------

 -----------
 H2O_H2O_706
 -----------
 Symbolic Z-matrix:
 Charge =  0 Multiplicity = 1

                         Standard orientation:
 ---------------------------------------------------------------------
 Center     Atomic      Atomic             Coordinates (Angstroms)
 Number     Number       Type             X           Y           Z
 ---------------------------------------------------------------------
      1          8           0        0.076796   -1.382576    0.000000
      2          1           0        0.075739   -0.399975    0.000000
      3          1           0       -0.852354   -1.702241    0.000000
      4          8           0        0.076796    1.219437    0.000000
      5          1           0        0.451845    2.127646    0.000000
      6          1           0       -0.903958    1.279675    0.000000
 ---------------------------------------------------------------------

 SCF Done:  E(RHF) =  -33.6532465420     A.U. after   11 cycles
 E2 =    -0.2289392756D+00 EUMP2 =    -0.33882185817542D+02
 CCSD(T)
 CCSD(T)= -0.33898553253D+02

 The electronic state is 1-A'.
 Alpha  occ. eigenvalues --   -1.40253  -1.31115  -0.76451  -0.69040  -0.59111
 Alpha  occ. eigenvalues --   -0.54726  -0.50303  -0.45583
 Alpha virt. eigenvalues --    0.16850   0.26091   0.27635   0.49362   0.74350
 Alpha virt. eigenvalues --    0.76834   0.85314   0.87574   0.95284   1.08976
 Alpha virt. eigenvalues --    1.15895   1.22637   1.24504   1.36342   2.61229

 Mulliken charges:
               1
     1  O   -0.752473
     2  H    0.403615
     3  H    0.334048
     4  O   -0.818824
     5  H    0.447973
     6  H    0.385661
 Sum of Mulliken charges =   0.00000

 Dipole moment (field-independent basis, Debye):
    X=             -3.3012    Y=              4.5378    Z=              0.0000  Tot=              5.6115
 Quadrupole moment (field-independent basis, Debye-Ang):
   XX=            -10.3464   YY=             -9.2968   ZZ=            -15.0011
   XY=              3.2413   XZ=              0.0000   YZ=              0.0000

 911\MP4DQ=-33.8925427\MP4SDQ=-33.8947779\CCSD=-33.8956724\CCSD(T)=-33.
 Normal termination of Gaussian 16 at Sun Dec 10 06:31:48 2023.
