 Gaussian 16, Revision A.03,
 Gaussian 16:  ES64L-G16RevA.03 25-Dec-2016

 ------------------
 #p CCSD(T)/CEP-31G
 ------------------

 ------------
 H2O_H2O_1256
 ------------
 Symbolic Z-matrix:
 Charge =  0 Multiplicity = 1

                         Standard orientation:
 ---------------------------------------------------------------------
 Center     Atomic      Atomic             Coordinates (Angstroms)
 Number     Number       Type             X           Y           Z
 ---------------------------------------------------------------------
      1          8           0        0.076783    1.601970    0.000000
      2          1           0        0.075879    0.619369    0.000000
      3          1           0       -0.852417    1.921491    0.000000
      4          8           0        0.076783   -1.438808   -0.000000
      5          1           0        0.451973   -2.346958   -0.000000
      6          1           0       -0.903962   -1.499198   -0.000000
 ---------------------------------------------------------------------

 SCF Done:  E(RHF) =  -33.6579656921     A.U. after   11 cycles
 E2 =    -0.2289915085D+00 EUMP2 =    -0.33886957200610D+02
 CCSD(T)
 CCSD(T)= -0.33903812177D+02

 The electronic state is 1-A'.
 Alpha  occ. eigenvalues --   -1.38486  -1.32591  -0.74333  -0.68475  -0.58706
 Alpha  occ. eigenvalues --   -0.53105  -0.52213  -0.47175
 Alpha virt. eigenvalues --    0.17253   0.25335   0.27991   0.40768   0.76263
 Alpha virt. eigenvalues --    0.79738   0.84812   0.85233   0.91682   1.08316
 Alpha virt. eigenvalues --    1.15511   1.17571   1.21742   1.37525   2.50388

 Mulliken charges:
               1
     1  O   -0.767198
     2  H    0.415145
     3  H    0.348280
     4  O   -0.785040
     5  H    0.412355
     6  H    0.376458
 Sum of Mulliken charges =   0.00000

 Dipole moment (field-independent basis, Debye):
    X=             -3.4055    Y=             -4.2272    Z=             -0.0000  Tot=              5.4283
 Quadrupole moment (field-independent basis, Debye-Ang):
   XX=            -10.3448   YY=             -8.6716   ZZ=            -15.0022
   XY=             -3.4138   XZ=              0.0000   YZ=              0.0000

 2485\MP4DQ=-33.8979482\MP4SDQ=-33.9000982\CCSD=-33.9010903\CCSD(T)=-33
 Normal termination of Gaussian 16 at Sun Dec 10 06:42:14 2023.
