 Gaussian 16, Revision A.03,
 Gaussian 16:  ES64L-G16RevA.03 25-Dec-2016

 ------------------
 #p CCSD(T)/CEP-31G
 ------------------

 -----------
 H2O_H2O_488
 -----------
 Symbolic Z-matrix:
 Charge =  0 Multiplicity = 1

                         Standard orientation:
 ---------------------------------------------------------------------
 Center     Atomic      Atomic             Coordinates (Angstroms)
 Number     Number       Type             X           Y           Z
 ---------------------------------------------------------------------
      1          8           0        0.052420    1.301859    0.000000
      2          1           0        0.049572    0.319262    0.000000
      3          1           0       -0.876146    1.623217    0.000000
      4          8           0        0.052420   -1.122109   -0.000000
      5          1           0        0.789298   -1.772122   -0.000000
      6          1           0       -0.801437   -1.608356   -0.000000
 ---------------------------------------------------------------------

 SCF Done:  E(RHF) =  -33.6519259513     A.U. after   11 cycles
 E2 =    -0.2289059073D+00 EUMP2 =    -0.33880831858576D+02
 CCSD(T)
 CCSD(T)= -0.33896374828D+02

 The electronic state is 1-A'.
 Alpha  occ. eigenvalues --   -1.41340  -1.29137  -0.76459  -0.71997  -0.57996
 Alpha  occ. eigenvalues --   -0.55859  -0.47832  -0.43553
 Alpha virt. eigenvalues --    0.16948   0.26623   0.28423   0.55391   0.73892
 Alpha virt. eigenvalues --    0.74120   0.85469   0.89448   0.95629   1.02482
 Alpha virt. eigenvalues --    1.13960   1.17738   1.24591   1.36328   2.71451

 Mulliken charges:
               1
     1  O   -0.770392
     2  H    0.418043
     3  H    0.327432
     4  O   -0.834073
     5  H    0.441546
     6  H    0.417444
 Sum of Mulliken charges =   0.00000

 Dipole moment (field-independent basis, Debye):
    X=             -2.2038    Y=             -5.1246    Z=             -0.0000  Tot=              5.5784
 Quadrupole moment (field-independent basis, Debye-Ang):
   XX=             -9.4351   YY=             -9.7896   ZZ=            -15.0051
   XY=             -3.6947   XZ=             -0.0000   YZ=              0.0000

 \MP4DQ=-33.8903709\MP4SDQ=-33.8925751\CCSD=-33.8933489\CCSD(T)=-33.896
 Normal termination of Gaussian 16 at Sun Dec 10 06:27:42 2023.
