 Gaussian 16, Revision A.03,
 Gaussian 16:  ES64L-G16RevA.03 25-Dec-2016

 ------------------
 #p CCSD(T)/CEP-31G
 ------------------

 ------------
 H2O_H2O_2755
 ------------
 Symbolic Z-matrix:
 Charge =  0 Multiplicity = 1

                         Standard orientation:
 ---------------------------------------------------------------------
 Center     Atomic      Atomic             Coordinates (Angstroms)
 Number     Number       Type             X           Y           Z
 ---------------------------------------------------------------------
      1          8           0        0.079855    2.198053   -0.000000
      2          1           0        0.079330    1.215452   -0.000000
      3          1           0       -0.849468    2.517216   -0.000000
      4          8           0        0.079855   -2.038997    0.000000
      5          1           0        0.395205   -2.969621    0.000000
      6          1           0       -0.902740   -2.035494    0.000000
 ---------------------------------------------------------------------

 SCF Done:  E(RHF) =  -33.6540045041     A.U. after   11 cycles
 E2 =    -0.2284330982D+00 EUMP2 =    -0.33882437602302D+02
 CCSD(T)
 CCSD(T)= -0.33899392639D+02

 The electronic state is 1-A'.
 Alpha  occ. eigenvalues --   -1.36891  -1.34309  -0.72561  -0.69901  -0.56763
 Alpha  occ. eigenvalues --   -0.54076  -0.51487  -0.48900
 Alpha virt. eigenvalues --    0.18051   0.22351   0.29208   0.32243   0.79078
 Alpha virt. eigenvalues --    0.81629   0.82866   0.84659   0.85634   0.88042
 Alpha virt. eigenvalues --    1.15956   1.19130   1.20525   1.27741   2.55817

 Mulliken charges:
               1
     1  O   -0.750331
     2  H    0.386680
     3  H    0.362698
     4  O   -0.749420
     5  H    0.380582
     6  H    0.369792
 Sum of Mulliken charges =   0.00000

 Dipole moment (field-independent basis, Debye):
    X=             -3.6426    Y=             -3.8245    Z=              0.0000  Tot=              5.2816
 Quadrupole moment (field-independent basis, Debye-Ang):
   XX=            -10.4863   YY=             -7.8931   ZZ=            -14.9922
   XY=             -3.6113   XZ=              0.0000   YZ=             -0.0000

 9813\MP4DQ=-33.8937275\MP4SDQ=-33.895776\CCSD=-33.8968146\CCSD(T)=-33.
 Normal termination of Gaussian 16 at Sun Dec 10 06:22:35 2023.
