 Gaussian 16, Revision A.03,
 Gaussian 16:  ES64L-G16RevA.03 25-Dec-2016

 ------------------
 #p CCSD(T)/CEP-31G
 ------------------

 ------------
 H2O_H2O_3498
 ------------
 Symbolic Z-matrix:
 Charge =  0 Multiplicity = 1

                         Standard orientation:
 ---------------------------------------------------------------------
 Center     Atomic      Atomic             Coordinates (Angstroms)
 Number     Number       Type             X           Y           Z
 ---------------------------------------------------------------------
      1          8           0       -0.016612    2.489605    0.000000
      2          1           0       -0.013923    1.507007    0.000000
      3          1           0        0.912005    2.810815    0.000000
      4          8           0       -0.016612   -2.326209    0.000000
      5          1           0       -0.996931   -2.393157    0.000000
      6          1           0        0.364644   -3.231831    0.000000
 ---------------------------------------------------------------------

 SCF Done:  E(RHF) =  -33.6544409946     A.U. after   11 cycles
 E2 =    -0.2282741213D+00 EUMP2 =    -0.33882715115830D+02
 CCSD(T)
 CCSD(T)= -0.33899643781D+02

 The electronic state is 1-A'.
 Alpha  occ. eigenvalues --   -1.36501  -1.34484  -0.72148  -0.70127  -0.56386
 Alpha  occ. eigenvalues --   -0.54307  -0.51110  -0.49101
 Alpha virt. eigenvalues --    0.19096   0.21682   0.29632   0.31827   0.79450
 Alpha virt. eigenvalues --    0.81397   0.82233   0.84323   0.85484   0.87544
 Alpha virt. eigenvalues --    1.16485   1.18679   1.20892   1.23874   2.56459

 Mulliken charges:
               1
     1  O   -0.751487
     2  H    0.381767
     3  H    0.369494
     4  O   -0.750620
     5  H    0.375023
     6  H    0.375822
 Sum of Mulliken charges =   0.00000

 Dipole moment (field-independent basis, Debye):
    X=              0.7592    Y=             -3.8642    Z=              0.0000  Tot=              3.9380
 Quadrupole moment (field-independent basis, Debye-Ang):
   XX=             -9.7698   YY=             -7.1829   ZZ=            -14.9937
   XY=              8.7202   XZ=              0.0000   YZ=              0.0000

 595\MP4DQ=-33.8940112\MP4SDQ=-33.8960377\CCSD=-33.8970844\CCSD(T)=-33.
 Normal termination of Gaussian 16 at Sun Dec 10 06:35:58 2023.
