 Gaussian 16, Revision A.03,
 Gaussian 16:  ES64L-G16RevA.03 25-Dec-2016

 ------------------
 #p CCSD(T)/CEP-31G
 ------------------

 -----------
 H2O_H2O_268
 -----------
 Symbolic Z-matrix:
 Charge =  0 Multiplicity = 1

                         Standard orientation:
 ---------------------------------------------------------------------
 Center     Atomic      Atomic             Coordinates (Angstroms)
 Number     Number       Type             X           Y           Z
 ---------------------------------------------------------------------
      1          8           0        0.033994    1.210825    0.000000
      2          1           0        0.029520    0.228234    0.000000
      3          1           0       -0.894038    1.533721    0.000000
      4          8           0        0.033994   -1.033458   -0.000000
      5          1           0        0.940078   -1.413612   -0.000000
      6          1           0       -0.619466   -1.767280   -0.000000
 ---------------------------------------------------------------------

 SCF Done:  E(RHF) =  -33.6331918800     A.U. after   11 cycles
 E2 =    -0.2280601242D+00 EUMP2 =    -0.33861252004165D+02
 CCSD(T)
 CCSD(T)= -0.33876219242D+02

 The electronic state is 1-A'.
 Alpha  occ. eigenvalues --   -1.43313  -1.27786  -0.78521  -0.74645  -0.57340
 Alpha  occ. eigenvalues --   -0.56566  -0.45676  -0.42033
 Alpha virt. eigenvalues --    0.16775   0.25836   0.29481   0.59869   0.73503
 Alpha virt. eigenvalues --    0.73765   0.86991   0.90856   0.93237   1.01742
 Alpha virt. eigenvalues --    1.14682   1.18327   1.27576   1.36021   2.83595

 Mulliken charges:
               1
     1  O   -0.762511
     2  H    0.368084
     3  H    0.323480
     4  O   -0.821905
     5  H    0.437473
     6  H    0.455379
 Sum of Mulliken charges =  -0.00000

 Dipole moment (field-independent basis, Debye):
    X=             -1.4387    Y=             -5.3781    Z=             -0.0000  Tot=              5.5672
 Quadrupole moment (field-independent basis, Debye-Ang):
   XX=             -9.3074   YY=            -10.2572   ZZ=            -14.9766
   XY=             -3.6116   XZ=             -0.0000   YZ=              0.0000

 4\MP4DQ=-33.8701541\MP4SDQ=-33.8724013\CCSD=-33.8730834\CCSD(T)=-33.87
 Normal termination of Gaussian 16 at Sun Dec 10 06:23:20 2023.
