 Gaussian 16, Revision A.03,
 Gaussian 16:  ES64L-G16RevA.03 25-Dec-2016

 ------------------
 #p CCSD(T)/CEP-31G
 ------------------

 ------------
 H2O_H2O_1021
 ------------
 Symbolic Z-matrix:
 Charge =  0 Multiplicity = 1

                         Standard orientation:
 ---------------------------------------------------------------------
 Center     Atomic      Atomic             Coordinates (Angstroms)
 Number     Number       Type             X           Y           Z
 ---------------------------------------------------------------------
      1          8           0       -0.023344    1.506148    0.000000
      2          1           0       -0.019179    0.523556    0.000000
      3          1           0        0.904790    1.828752    0.000000
      4          8           0       -0.023344   -1.335835    0.000000
      5          1           0       -0.986244   -1.531615    0.000000
      6          1           0        0.474131   -2.183198    0.000000
 ---------------------------------------------------------------------

 SCF Done:  E(RHF) =  -33.6625161397     A.U. after   11 cycles
 E2 =    -0.2287771067D+00 EUMP2 =    -0.33891293246383D+02
 CCSD(T)
 CCSD(T)= -0.33907817121D+02

 The electronic state is 1-A'.
 Alpha  occ. eigenvalues --   -1.38914  -1.31387  -0.74697  -0.68144  -0.59361
 Alpha  occ. eigenvalues --   -0.53616  -0.50961  -0.46058
 Alpha virt. eigenvalues --    0.17644   0.26521   0.27927   0.44870   0.75515
 Alpha virt. eigenvalues --    0.77818   0.86299   0.86365   0.92173   1.06524
 Alpha virt. eigenvalues --    1.16344   1.18308   1.23176   1.36464   2.53275

 Mulliken charges:
               1
     1  O   -0.784671
     2  H    0.422980
     3  H    0.355856
     4  O   -0.811491
     5  H    0.398829
     6  H    0.418496
 Sum of Mulliken charges =  -0.00000

 Dipole moment (field-independent basis, Debye):
    X=              1.0427    Y=             -4.4978    Z=              0.0000  Tot=              4.6171
 Quadrupole moment (field-independent basis, Debye-Ang):
   XX=             -9.5500   YY=             -8.8098   ZZ=            -15.0162
   XY=              4.8832   XZ=              0.0000   YZ=              0.0000

 2721\MP4DQ=-33.9019634\MP4SDQ=-33.9040926\CCSD=-33.905044\CCSD(T)=-33.
 Normal termination of Gaussian 16 at Sun Dec 10 06:37:43 2023.
