 Gaussian 16, Revision A.03,
 Gaussian 16:  ES64L-G16RevA.03 25-Dec-2016

 ------------------
 #p CCSD(T)/CEP-31G
 ------------------

 ------------
 H2O_H2O_1358
 ------------
 Symbolic Z-matrix:
 Charge =  0 Multiplicity = 1

                         Standard orientation:
 ---------------------------------------------------------------------
 Center     Atomic      Atomic             Coordinates (Angstroms)
 Number     Number       Type             X           Y           Z
 ---------------------------------------------------------------------
      1          8           0        0.070232    1.645676    0.000000
      2          1           0        0.068994    0.663076    0.000000
      3          1           0       -0.858859    1.965513    0.000000
      4          8           0        0.070232   -1.475486   -0.000000
      5          1           0        0.560461   -2.327062   -0.000000
      6          1           0       -0.894303   -1.663045   -0.000000
 ---------------------------------------------------------------------

 SCF Done:  E(RHF) =  -33.6592509427     A.U. after   11 cycles
 E2 =    -0.2289532846D+00 EUMP2 =    -0.33888204227267D+02
 CCSD(T)
 CCSD(T)= -0.33905028993D+02

 The electronic state is 1-A'.
 Alpha  occ. eigenvalues --   -1.38254  -1.32490  -0.73994  -0.68369  -0.58587
 Alpha  occ. eigenvalues --   -0.52908  -0.52170  -0.47103
 Alpha virt. eigenvalues --    0.17501   0.25242   0.28224   0.39976   0.76648
 Alpha virt. eigenvalues --    0.80048   0.84585   0.85411   0.91638   1.03852
 Alpha virt. eigenvalues --    1.14960   1.18469   1.21394   1.36361   2.50043

 Mulliken charges:
               1
     1  O   -0.772374
     2  H    0.419954
     3  H    0.350248
     4  O   -0.783473
     5  H    0.406741
     6  H    0.378904
 Sum of Mulliken charges =  -0.00000

 Dipole moment (field-independent basis, Debye):
    X=             -3.1188    Y=             -4.3591    Z=             -0.0000  Tot=              5.3599
 Quadrupole moment (field-independent basis, Debye-Ang):
   XX=            -10.0341   YY=             -8.4227   ZZ=            -15.0047
   XY=             -3.7695   XZ=             -0.0000   YZ=              0.0000

 4958\MP4DQ=-33.8992033\MP4SDQ=-33.9013274\CCSD=-33.9023251\CCSD(T)=-33
 Normal termination of Gaussian 16 at Sun Dec 10 06:44:15 2023.
