 Gaussian 16, Revision A.03,
 Gaussian 16:  ES64L-G16RevA.03 25-Dec-2016

 ------------------
 #p CCSD(T)/CEP-31G
 ------------------

 -----------
 H2O_H2O_568
 -----------
 Symbolic Z-matrix:
 Charge =  0 Multiplicity = 1

                         Standard orientation:
 ---------------------------------------------------------------------
 Center     Atomic      Atomic             Coordinates (Angstroms)
 Number     Number       Type             X           Y           Z
 ---------------------------------------------------------------------
      1          8           0        0.033955    1.330502    0.000000
      2          1           0        0.029912    0.347909    0.000000
      3          1           0       -0.894219    1.652990    0.000000
      4          8           0        0.033955   -1.153105    0.000000
      5          1           0        0.940206   -1.532862    0.000000
      6          1           0       -0.619182   -1.887215    0.000000
 ---------------------------------------------------------------------

 SCF Done:  E(RHF) =  -33.6561958695     A.U. after   11 cycles
 E2 =    -0.2287233038D+00 EUMP2 =    -0.33884919173334D+02
 CCSD(T)
 CCSD(T)= -0.33900644194D+02

 The electronic state is 1-A'.
 Alpha  occ. eigenvalues --   -1.40792  -1.29446  -0.76232  -0.70711  -0.58631
 Alpha  occ. eigenvalues --   -0.55387  -0.48340  -0.43959
 Alpha virt. eigenvalues --    0.17227   0.26925   0.28167   0.53753   0.74110
 Alpha virt. eigenvalues --    0.74725   0.86066   0.89001   0.95616   1.00270
 Alpha virt. eigenvalues --    1.15670   1.18458   1.24916   1.37225   2.67074

 Mulliken charges:
               1
     1  O   -0.777416
     2  H    0.417847
     3  H    0.338232
     4  O   -0.835309
     5  H    0.421210
     6  H    0.435436
 Sum of Mulliken charges =   0.00000

 Dipole moment (field-independent basis, Debye):
    X=             -1.4742    Y=             -4.9917    Z=              0.0000  Tot=              5.2049
 Quadrupole moment (field-independent basis, Debye-Ang):
   XX=             -9.3476   YY=             -9.5874   ZZ=            -15.0128
   XY=             -3.9998   XZ=              0.0000   YZ=              0.0000

 \MP4DQ=-33.8946934\MP4SDQ=-33.8968632\CCSD=-33.8976764\CCSD(T)=-33.900
 Normal termination of Gaussian 16 at Sun Dec 10 06:29:13 2023.
