 Gaussian 16, Revision A.03,
 Gaussian 16:  ES64L-G16RevA.03 25-Dec-2016

 ------------------
 #p CCSD(T)/CEP-31G
 ------------------

 ------------
 H2O_H2O_1537
 ------------
 Symbolic Z-matrix:
 Charge =  0 Multiplicity = 1

                         Standard orientation:
 ---------------------------------------------------------------------
 Center     Atomic      Atomic             Coordinates (Angstroms)
 Number     Number       Type             X           Y           Z
 ---------------------------------------------------------------------
      1          8           0        0.056039    1.720185   -0.000000
      2          1           0        0.054115    0.737585   -0.000000
      3          1           0       -0.872829    2.040670   -0.000000
      4          8           0        0.056039   -1.541338    0.000000
      5          1           0        0.749481   -2.237500    0.000000
      6          1           0       -0.827388   -1.971529    0.000000
 ---------------------------------------------------------------------

 SCF Done:  E(RHF) =  -33.6604011947     A.U. after   11 cycles
 E2 =    -0.2288576519D+00 EUMP2 =    -0.33889258846607D+02
 CCSD(T)
 CCSD(T)= -0.33906054727D+02

 The electronic state is 1-A'.
 Alpha  occ. eigenvalues --   -1.37923  -1.32452  -0.73575  -0.68269  -0.58354
 Alpha  occ. eigenvalues --   -0.52610  -0.52220  -0.47103
 Alpha virt. eigenvalues --    0.17866   0.25017   0.28577   0.38659   0.77231
 Alpha virt. eigenvalues --    0.80803   0.84172   0.85801   0.91239   0.97048
 Alpha virt. eigenvalues --    1.15161   1.19741   1.20933   1.34255   2.49748

 Mulliken charges:
               1
     1  O   -0.777062
     2  H    0.421084
     3  H    0.354413
     4  O   -0.778152
     5  H    0.396842
     6  H    0.382875
 Sum of Mulliken charges =   0.00000

 Dipole moment (field-independent basis, Debye):
    X=             -2.4982    Y=             -4.5084    Z=              0.0000  Tot=              5.1542
 Quadrupole moment (field-independent basis, Debye-Ang):
   XX=             -9.5711   YY=             -8.0393   ZZ=            -15.0068
   XY=             -4.4282   XZ=              0.0000   YZ=             -0.0000

 8\MP4DQ=-33.9002824\MP4SDQ=-33.9023751\CCSD=-33.9033804\CCSD(T)=-33.90
 Normal termination of Gaussian 16 at Sun Dec 10 06:47:49 2023.
