 Gaussian 16, Revision A.03,
 Gaussian 16:  ES64L-G16RevA.03 25-Dec-2016

 ------------------
 #p CCSD(T)/CEP-31G
 ------------------

 ------------
 H2O_H2O_1909
 ------------
 Symbolic Z-matrix:
 Charge =  0 Multiplicity = 1

                         Standard orientation:
 ---------------------------------------------------------------------
 Center     Atomic      Atomic             Coordinates (Angstroms)
 Number     Number       Type             X           Y           Z
 ---------------------------------------------------------------------
      1          8           0        0.066784    1.866621    0.000000
      2          1           0        0.065535    0.884021    0.000000
      3          1           0       -0.862303    2.186469   -0.000000
      4          8           0        0.066784   -1.693553    0.000000
      5          1           0        0.611649   -2.511250    0.000000
      6          1           0       -0.883422   -1.943784   -0.000000
 ---------------------------------------------------------------------

 SCF Done:  E(RHF) =  -33.6575461126     A.U. after   11 cycles
 E2 =    -0.2286787050D+00 EUMP2 =    -0.33886224817610D+02
 CCSD(T)
 CCSD(T)= -0.33903133543D+02

 The electronic state is 1-A'.
 Alpha  occ. eigenvalues --   -1.37503  -1.33227  -0.73182  -0.68855  -0.57668
 Alpha  occ. eigenvalues --   -0.53017  -0.52145  -0.47854
 Alpha virt. eigenvalues --    0.17851   0.24004   0.28828   0.35468   0.78096
 Alpha virt. eigenvalues --    0.82533   0.82985   0.85472   0.89376   0.92481
 Alpha virt. eigenvalues --    1.15482   1.19827   1.20477   1.34278   2.51588

 Mulliken charges:
               1
     1  O   -0.766026
     2  H    0.406347
     3  H    0.357440
     4  O   -0.763283
     5  H    0.389938
     6  H    0.375584
 Sum of Mulliken charges =   0.00000

 Dipole moment (field-independent basis, Debye):
    X=             -3.0093    Y=             -4.2854    Z=             -0.0000  Tot=              5.2365
 Quadrupole moment (field-independent basis, Debye-Ang):
   XX=             -9.8988   YY=             -7.8032   ZZ=            -14.9996
   XY=             -4.1770   XZ=              0.0000   YZ=             -0.0000

 595\MP4DQ=-33.8973971\MP4SDQ=-33.899484\CCSD=-33.9005068\CCSD(T)=-33.9
 Normal termination of Gaussian 16 at Sun Dec 10 06:54:55 2023.
