 Gaussian 16, Revision A.03,
 Gaussian 16:  ES64L-G16RevA.03 25-Dec-2016

 ------------------
 #p CCSD(T)/CEP-31G
 ------------------

 ------------
 H2O_H2O_1359
 ------------
 Symbolic Z-matrix:
 Charge =  0 Multiplicity = 1

                         Standard orientation:
 ---------------------------------------------------------------------
 Center     Atomic      Atomic             Coordinates (Angstroms)
 Number     Number       Type             X           Y           Z
 ---------------------------------------------------------------------
      1          8           0        0.066799    1.647227    0.000000
      2          1           0        0.065375    0.664627    0.000000
      3          1           0       -0.862231    1.967240    0.000000
      4          8           0        0.066799   -1.474183   -0.000000
      5          1           0        0.611519   -2.291977   -0.000000
      6          1           0       -0.883451   -1.724243   -0.000000
 ---------------------------------------------------------------------

 SCF Done:  E(RHF) =  -33.6598600997     A.U. after   11 cycles
 E2 =    -0.2289560350D+00 EUMP2 =    -0.33888816134660D+02
 CCSD(T)
 CCSD(T)= -0.33905611095D+02

 The electronic state is 1-A'.
 Alpha  occ. eigenvalues --   -1.38238  -1.32371  -0.73947  -0.68291  -0.58619
 Alpha  occ. eigenvalues --   -0.52907  -0.52061  -0.46994
 Alpha virt. eigenvalues --    0.17583   0.25308   0.28270   0.40137   0.76666
 Alpha virt. eigenvalues --    0.79962   0.84660   0.85483   0.91870   1.02591
 Alpha virt. eigenvalues --    1.14940   1.18770   1.21336   1.35775   2.49963

 Mulliken charges:
               1
     1  O   -0.774628
     2  H    0.422350
     3  H    0.350511
     4  O   -0.784670
     5  H    0.405857
     6  H    0.380580
 Sum of Mulliken charges =   0.00000

 Dipole moment (field-independent basis, Debye):
    X=             -2.9634    Y=             -4.4265    Z=             -0.0000  Tot=              5.3269
 Quadrupole moment (field-independent basis, Debye-Ang):
   XX=             -9.8952   YY=             -8.3656   ZZ=            -15.0062
   XY=             -3.9173   XZ=             -0.0000   YZ=              0.0000

 86\MP4DQ=-33.8997935\MP4SDQ=-33.9019105\CCSD=-33.9029063\CCSD(T)=-33.9
 Normal termination of Gaussian 16 at Sun Dec 10 06:44:16 2023.
