 Gaussian 16, Revision A.03,
 Gaussian 16:  ES64L-G16RevA.03 25-Dec-2016

 ------------------
 #p CCSD(T)/CEP-31G
 ------------------

 ------------
 H2O_H2O_1243
 ------------
 Symbolic Z-matrix:
 Charge =  0 Multiplicity = 1

                         Standard orientation:
 ---------------------------------------------------------------------
 Center     Atomic      Atomic             Coordinates (Angstroms)
 Number     Number       Type             X           Y           Z
 ---------------------------------------------------------------------
      1          8           0        0.033890    1.599767   -0.000000
      2          1           0        0.030567    0.617171   -0.000000
      3          1           0       -0.894520    1.921575   -0.000000
      4          8           0        0.033890   -1.422320    0.000000
      5          1           0        0.940419   -1.801413    0.000000
      6          1           0       -0.618709   -2.156908    0.000000
 ---------------------------------------------------------------------

 SCF Done:  E(RHF) =  -33.6628477250     A.U. after   11 cycles
 E2 =    -0.2289067258D+00 EUMP2 =    -0.33891754450789D+02
 CCSD(T)
 CCSD(T)= -0.33908390165D+02

 The electronic state is 1-A'.
 Alpha  occ. eigenvalues --   -1.38386  -1.31769  -0.74027  -0.68037  -0.58980
 Alpha  occ. eigenvalues --   -0.53113  -0.51478  -0.46448
 Alpha virt. eigenvalues --    0.17804   0.25929   0.28314   0.42050   0.76316
 Alpha virt. eigenvalues --    0.78839   0.85365   0.86243   0.92111   1.01546
 Alpha virt. eigenvalues --    1.15239   1.18656   1.22202   1.34929   2.50466

 Mulliken charges:
               1
     1  O   -0.785971
     2  H    0.428746
     3  H    0.355245
     4  O   -0.796390
     5  H    0.397001
     6  H    0.401370
 Sum of Mulliken charges =  -0.00000

 Dipole moment (field-independent basis, Debye):
    X=             -1.5076    Y=             -4.5657    Z=              0.0000  Tot=              4.8082
 Quadrupole moment (field-independent basis, Debye-Ang):
   XX=             -9.3950   YY=             -8.4419   ZZ=            -15.0143
   XY=             -4.8385   XZ=              0.0000   YZ=             -0.0000

 809\MP4DQ=-33.9025843\MP4SDQ=-33.904685\CCSD=-33.9056617\CCSD(T)=-33.9
 Normal termination of Gaussian 16 at Sun Dec 10 06:41:59 2023.
