 Gaussian 16, Revision A.03,
 Gaussian 16:  ES64L-G16RevA.03 25-Dec-2016

 ------------------
 #p CCSD(T)/CEP-31G
 ------------------

 ------------
 H2O_H2O_2888
 ------------
 Symbolic Z-matrix:
 Charge =  0 Multiplicity = 1

                         Standard orientation:
 ---------------------------------------------------------------------
 Center     Atomic      Atomic             Coordinates (Angstroms)
 Number     Number       Type             X           Y           Z
 ---------------------------------------------------------------------
      1          8           0        0.052305    2.259229   -0.000000
      2          1           0        0.050714    1.276629   -0.000000
      3          1           0       -0.876671    2.579400   -0.000000
      4          8           0        0.052305   -2.079346    0.000000
      5          1           0        0.790014   -2.728415    0.000000
      6          1           0       -0.800929   -2.566684    0.000000
 ---------------------------------------------------------------------

 SCF Done:  E(RHF) =  -33.6554016449     A.U. after   11 cycles
 E2 =    -0.2283514688D+00 EUMP2 =    -0.33883753113689D+02
 CCSD(T)
 CCSD(T)= -0.33900660188D+02

 The electronic state is 1-A'.
 Alpha  occ. eigenvalues --   -1.36781  -1.33937  -0.72429  -0.69552  -0.56732
 Alpha  occ. eigenvalues --   -0.53759  -0.51404  -0.48557
 Alpha virt. eigenvalues --    0.18734   0.22421   0.29429   0.32540   0.79164
 Alpha virt. eigenvalues --    0.81928   0.82894   0.84745   0.85279   0.88121
 Alpha virt. eigenvalues --    1.16265   1.19395   1.20690   1.26261   2.55680

 Mulliken charges:
               1
     1  O   -0.755465
     2  H    0.389933
     3  H    0.364513
     4  O   -0.752741
     5  H    0.379396
     6  H    0.374363
 Sum of Mulliken charges =  -0.00000

 Dipole moment (field-independent basis, Debye):
    X=             -2.3826    Y=             -4.3106    Z=              0.0000  Tot=              4.9253
 Quadrupole moment (field-independent basis, Debye-Ang):
   XX=             -9.5123   YY=             -6.5992   ZZ=            -14.9958
   XY=             -5.5863   XZ=              0.0000   YZ=             -0.0000

 2596\MP4DQ=-33.8950134\MP4SDQ=-33.8970542\CCSD=-33.8980915\CCSD(T)=-33
 Normal termination of Gaussian 16 at Sun Dec 10 06:24:58 2023.
