 Gaussian 16, Revision A.03,
 Gaussian 16:  ES64L-G16RevA.03 25-Dec-2016

 ------------------
 #p CCSD(T)/CEP-31G
 ------------------

 ------------
 H2O_H2O_3797
 ------------
 Symbolic Z-matrix:
 Charge =  0 Multiplicity = 1

                         Standard orientation:
 ---------------------------------------------------------------------
 Center     Atomic      Atomic             Coordinates (Angstroms)
 Number     Number       Type             X           Y           Z
 ---------------------------------------------------------------------
      1          8           0       -0.019837    2.611287    0.000000
      2          1           0       -0.017383    1.628689    0.000000
      3          1           0        0.908857    2.932274    0.000000
      4          8           0       -0.019837   -2.444172    0.000000
      5          1           0       -0.993709   -2.574860    0.000000
      6          1           0        0.419624   -3.323024    0.000000
 ---------------------------------------------------------------------

 SCF Done:  E(RHF) =  -33.6540861607     A.U. after   11 cycles
 E2 =    -0.2282736822D+00 EUMP2 =    -0.33882359842880D+02
 CCSD(T)
 CCSD(T)= -0.33899296950D+02

 The electronic state is 1-A'.
 Alpha  occ. eigenvalues --   -1.36410  -1.34554  -0.72054  -0.70194  -0.56275
 Alpha  occ. eigenvalues --   -0.54366  -0.51014  -0.49165
 Alpha virt. eigenvalues --    0.19338   0.21480   0.29716   0.31713   0.79542
 Alpha virt. eigenvalues --    0.81339   0.82301   0.84310   0.85541   0.87455
 Alpha virt. eigenvalues --    1.16583   1.18507   1.20987   1.23291   2.56526

 Mulliken charges:
               1
     1  O   -0.750080
     2  H    0.380626
     3  H    0.369350
     4  O   -0.749347
     5  H    0.374615
     6  H    0.374836
 Sum of Mulliken charges =   0.00000

 Dipole moment (field-independent basis, Debye):
    X=              0.9081    Y=             -3.9388    Z=              0.0000  Tot=              4.0421
 Quadrupole moment (field-independent basis, Debye-Ang):
   XX=             -9.6778   YY=             -6.7264   ZZ=            -14.9931
   XY=              8.8510   XZ=              0.0000   YZ=              0.0000

 154\MP4DQ=-33.8936659\MP4SDQ=-33.8956901\CCSD=-33.8967393\CCSD(T)=-33.
 Normal termination of Gaussian 16 at Sun Dec 10 06:41:20 2023.
