 Gaussian 16, Revision A.03,
 Gaussian 16:  ES64L-G16RevA.03 25-Dec-2016

 ------------------
 #p CCSD(T)/CEP-31G
 ------------------

 ------------
 H2O_H2O_4938
 ------------
 Symbolic Z-matrix:
 Charge =  0 Multiplicity = 1

                         Standard orientation:
 ---------------------------------------------------------------------
 Center     Atomic      Atomic             Coordinates (Angstroms)
 Number     Number       Type             X           Y           Z
 ---------------------------------------------------------------------
      1          8           0        0.052265    3.076950    0.000000
      2          1           0        0.051109    2.094349    0.000000
      3          1           0       -0.876853    3.396709   -0.000000
      4          8           0        0.052265   -2.897020    0.000000
      5          1           0        0.790262   -3.545763    0.000000
      6          1           0       -0.800754   -3.384736   -0.000000
 ---------------------------------------------------------------------

 SCF Done:  E(RHF) =  -33.6529797451     A.U. after   11 cycles
 E2 =    -0.2283137369D+00 EUMP2 =    -0.33881293481984D+02
 CCSD(T)
 CCSD(T)= -0.33898259991D+02

 The electronic state is 1-A'.
 Alpha  occ. eigenvalues --   -1.36183  -1.34783  -0.71822  -0.70412  -0.55986
 Alpha  occ. eigenvalues --   -0.54556  -0.50773  -0.49373
 Alpha virt. eigenvalues --    0.19650   0.21091   0.29901   0.31365   0.79779
 Alpha virt. eigenvalues --    0.81151   0.82678   0.84145   0.85838   0.87266
 Alpha virt. eigenvalues --    1.16770   1.18170   1.21217   1.22657   2.56754

 Mulliken charges:
               1
     1  O   -0.745760
     2  H    0.377371
     3  H    0.368387
     4  O   -0.745395
     5  H    0.373854
     6  H    0.371543
 Sum of Mulliken charges =   0.00000

 Dipole moment (field-independent basis, Debye):
    X=             -2.4036    Y=             -4.2106    Z=             -0.0000  Tot=              4.8483
 Quadrupole moment (field-independent basis, Debye-Ang):
   XX=             -9.5149   YY=             -4.7592   ZZ=            -14.9910
   XY=             -7.1338   XZ=              0.0000   YZ=             -0.0000

 8786\MP4DQ=-33.8926245\MP4SDQ=-33.894649\CCSD=-33.8957022\CCSD(T)=-33.
 Normal termination of Gaussian 16 at Sun Dec 10 07:03:10 2023.
