 Gaussian 16, Revision A.03,
 Gaussian 16:  ES64L-G16RevA.03 25-Dec-2016

 ------------------
 #p CCSD(T)/CEP-31G
 ------------------

 ------------
 H2O_H2O_3539
 ------------
 Symbolic Z-matrix:
 Charge =  0 Multiplicity = 1

                         Standard orientation:
 ---------------------------------------------------------------------
 Center     Atomic      Atomic             Coordinates (Angstroms)
 Number     Number       Type             X           Y           Z
 ---------------------------------------------------------------------
      1          8           0        0.048572    2.518780   -0.000000
      2          1           0        0.047021    1.536179   -0.000000
      3          1           0       -0.880417    2.838913   -0.000000
      4          8           0        0.048572   -2.338380    0.000000
      5          1           0        0.827178   -2.937780    0.000000
      6          1           0       -0.770940   -2.880511    0.000000
 ---------------------------------------------------------------------

 SCF Done:  E(RHF) =  -33.6542905710     A.U. after   11 cycles
 E2 =    -0.2282939760D+00 EUMP2 =    -0.33882584546952D+02
 CCSD(T)
 CCSD(T)= -0.33899513929D+02

 The electronic state is 1-A'.
 Alpha  occ. eigenvalues --   -1.36503  -1.34299  -0.72146  -0.69922  -0.56384
 Alpha  occ. eigenvalues --   -0.54104  -0.51111  -0.48907
 Alpha virt. eigenvalues --    0.19236   0.21776   0.29653   0.31985   0.79452
 Alpha virt. eigenvalues --    0.81588   0.82231   0.84619   0.85446   0.87749
 Alpha virt. eigenvalues --    1.16505   1.18801   1.20936   1.23756   2.56465

 Mulliken charges:
               1
     1  O   -0.750864
     2  H    0.384024
     3  H    0.366587
     4  O   -0.749664
     5  H    0.376660
     6  H    0.373257
 Sum of Mulliken charges =  -0.00000

 Dipole moment (field-independent basis, Debye):
    X=             -2.2219    Y=             -4.2703    Z=              0.0000  Tot=              4.8137
 Quadrupole moment (field-independent basis, Debye-Ang):
   XX=             -9.4608   YY=             -5.9783   ZZ=            -14.9937
   XY=             -6.3481   XZ=              0.0000   YZ=             -0.0000

 305\MP4DQ=-33.8938817\MP4SDQ=-33.8959084\CCSD=-33.896955\CCSD(T)=-33.8
 Normal termination of Gaussian 16 at Sun Dec 10 06:36:42 2023.
