 Gaussian 16, Revision A.03,
 Gaussian 16:  ES64L-G16RevA.03 25-Dec-2016

 ------------------
 #p CCSD(T)/CEP-31G
 ------------------

 -----------
 H2O_H2O_468
 -----------
 Symbolic Z-matrix:
 Charge =  0 Multiplicity = 1

                         Standard orientation:
 ---------------------------------------------------------------------
 Center     Atomic      Atomic             Coordinates (Angstroms)
 Number     Number       Type             X           Y           Z
 ---------------------------------------------------------------------
      1          8           0        0.033967    1.290610    0.000000
      2          1           0        0.029790    0.308017    0.000000
      3          1           0       -0.894162    1.613225    0.000000
      4          8           0        0.033967   -1.113222    0.000000
      5          1           0        0.940166   -1.493104    0.000000
      6          1           0       -0.619271   -1.847242    0.000000
 ---------------------------------------------------------------------

 SCF Done:  E(RHF) =  -33.6512368155     A.U. after   11 cycles
 E2 =    -0.2285642885D+00 EUMP2 =    -0.33879801104018D+02
 CCSD(T)
 CCSD(T)= -0.33895291774D+02

 The electronic state is 1-A'.
 Alpha  occ. eigenvalues --   -1.41465  -1.28946  -0.76826  -0.71842  -0.58091
 Alpha  occ. eigenvalues --   -0.55945  -0.47577  -0.43391
 Alpha virt. eigenvalues --    0.17096   0.26608   0.28575   0.55884   0.73870
 Alpha virt. eigenvalues --    0.74307   0.86304   0.89610   0.95046   1.00477
 Alpha virt. eigenvalues --    1.15485   1.18448   1.25571   1.36875   2.72105

 Mulliken charges:
               1
     1  O   -0.773114
     2  H    0.406999
     3  H    0.333994
     4  O   -0.835976
     5  H    0.426240
     6  H    0.441857
 Sum of Mulliken charges =   0.00000

 Dipole moment (field-independent basis, Debye):
    X=             -1.4647    Y=             -5.1009    Z=              0.0000  Tot=              5.3071
 Quadrupole moment (field-independent basis, Debye-Ang):
   XX=             -9.3362   YY=             -9.8000   ZZ=            -15.0052
   XY=             -3.8713   XZ=              0.0000   YZ=              0.0000

 2\MP4DQ=-33.889308\MP4SDQ=-33.8914983\CCSD=-33.8922714\CCSD(T)=-33.895
 Normal termination of Gaussian 16 at Sun Dec 10 06:27:19 2023.
