 Gaussian 16, Revision A.03,
 Gaussian 16:  ES64L-G16RevA.03 25-Dec-2016

 ------------------
 #p CCSD(T)/CEP-31G
 ------------------

 -----------
 H2O_H2O_655
 -----------
 Symbolic Z-matrix:
 Charge =  0 Multiplicity = 1

                         Standard orientation:
 ---------------------------------------------------------------------
 Center     Atomic      Atomic             Coordinates (Angstroms)
 Number     Number       Type             X           Y           Z
 ---------------------------------------------------------------------
      1          8           0        0.079882   -1.360383    0.000000
      2          1           0        0.079015   -0.377782    0.000000
      3          1           0       -0.849329   -1.679870    0.000000
      4          8           0        0.079882    1.201383    0.000000
      5          1           0        0.394908    2.132117    0.000000
      6          1           0       -0.902712    1.197536    0.000000
 ---------------------------------------------------------------------

 SCF Done:  E(RHF) =  -33.6501601012     A.U. after   11 cycles
 E2 =    -0.2288888780D+00 EUMP2 =    -0.33879048979290D+02
 CCSD(T)
 CCSD(T)= -0.33895413070D+02

 The electronic state is 1-A'.
 Alpha  occ. eigenvalues --   -1.40563  -1.31156  -0.76998  -0.69099  -0.59071
 Alpha  occ. eigenvalues --   -0.54942  -0.50285  -0.45590
 Alpha virt. eigenvalues --    0.16725   0.25803   0.27756   0.50087   0.74154
 Alpha virt. eigenvalues --    0.76882   0.85400   0.87728   0.95252   1.09409
 Alpha virt. eigenvalues --    1.15410   1.23011   1.27360   1.36404   2.63067

 Mulliken charges:
               1
     1  O   -0.743520
     2  H    0.390567
     3  H    0.332411
     4  O   -0.816062
     5  H    0.452739
     6  H    0.383865
 Sum of Mulliken charges =   0.00000

 Dipole moment (field-independent basis, Debye):
    X=             -3.4311    Y=              4.4809    Z=              0.0000  Tot=              5.6436
 Quadrupole moment (field-independent basis, Debye-Ang):
   XX=            -10.5182   YY=             -9.3956   ZZ=            -14.9958
   XY=              3.0782   XZ=              0.0000   YZ=              0.0000

 4\MP4DQ=-33.8893658\MP4SDQ=-33.8916298\CCSD=-33.8925146\CCSD(T)=-33.89
 Normal termination of Gaussian 16 at Sun Dec 10 06:30:51 2023.
