 Gaussian 16, Revision A.03,
 Gaussian 16:  ES64L-G16RevA.03 25-Dec-2016

 ------------------
 #p CCSD(T)/CEP-31G
 ------------------

 ------------
 H2O_H2O_1499
 ------------
 Symbolic Z-matrix:
 Charge =  0 Multiplicity = 1

                         Standard orientation:
 ---------------------------------------------------------------------
 Center     Atomic      Atomic             Coordinates (Angstroms)
 Number     Number       Type             X           Y           Z
 ---------------------------------------------------------------------
      1          8           0        0.013617   -1.689594    0.000000
      2          1           0        0.009431   -0.707001    0.000000
      3          1           0       -0.914510   -2.012217    0.000000
      4          8           0        0.013617    1.530365    0.000000
      5          1           0        0.996210    1.534552    0.000000
      6          1           0       -0.309007    2.458493    0.000000
 ---------------------------------------------------------------------

 SCF Done:  E(RHF) =  -33.6602676668     A.U. after   11 cycles
 E2 =    -0.2286771473D+00 EUMP2 =    -0.33888944814106D+02
 CCSD(T)
 CCSD(T)= -0.33905803925D+02

 The electronic state is 1-A'.
 Alpha  occ. eigenvalues --   -1.37938  -1.32845  -0.73733  -0.68628  -0.58353
 Alpha  occ. eigenvalues --   -0.52658  -0.52603  -0.47533
 Alpha virt. eigenvalues --    0.17666   0.25115   0.28592   0.38444   0.77057
 Alpha virt. eigenvalues --    0.80631   0.83959   0.86229   0.88714   1.04229
 Alpha virt. eigenvalues --    1.15888   1.18288   1.21486   1.37782   2.51435

 Mulliken charges:
               1
     1  O   -0.778132
     2  H    0.408440
     3  H    0.365574
     4  O   -0.781806
     5  H    0.386497
     6  H    0.399427
 Sum of Mulliken charges =  -0.00000

 Dipole moment (field-independent basis, Debye):
    X=             -0.6098    Y=              4.0329    Z=              0.0000  Tot=              4.0787
 Quadrupole moment (field-independent basis, Debye-Ang):
   XX=             -9.8501   YY=             -8.5625   ZZ=            -15.0056
   XY=              6.0373   XZ=              0.0000   YZ=              0.0000

 801\MP4DQ=-33.9000099\MP4SDQ=-33.902127\CCSD=-33.9031335\CCSD(T)=-33.9
 Normal termination of Gaussian 16 at Sun Dec 10 06:47:03 2023.
