 Gaussian 16, Revision A.03,
 Gaussian 16:  ES64L-G16RevA.03 25-Dec-2016

 ------------------
 #p CCSD(T)/CEP-31G
 ------------------

 -----------
 H2O_H2O_336
 -----------
 Symbolic Z-matrix:
 Charge =  0 Multiplicity = 1

                         Standard orientation:
 ---------------------------------------------------------------------
 Center     Atomic      Atomic             Coordinates (Angstroms)
 Number     Number       Type             X           Y           Z
 ---------------------------------------------------------------------
      1          8           0        0.059750    1.240695    0.000000
      2          1           0        0.057295    0.258096    0.000000
      3          1           0       -0.868945    1.561682   -0.000000
      4          8           0        0.059750   -1.063396    0.000000
      5          1           0        0.705777   -1.803771    0.000000
      6          1           0       -0.850121   -1.434396   -0.000000
 ---------------------------------------------------------------------

 SCF Done:  E(RHF) =  -33.6393279618     A.U. after   11 cycles
 E2 =    -0.2286549060D+00 EUMP2 =    -0.33867982867828D+02
 CCSD(T)
 CCSD(T)= -0.33883215093D+02

 The electronic state is 1-A'.
 Alpha  occ. eigenvalues --   -1.42647  -1.28526  -0.77887  -0.73718  -0.56964
 Alpha  occ. eigenvalues --   -0.56836  -0.46769  -0.42794
 Alpha virt. eigenvalues --    0.16615   0.25878   0.29044   0.58194   0.73555
 Alpha virt. eigenvalues --    0.73943   0.86193   0.90253   0.94828   1.05598
 Alpha virt. eigenvalues --    1.13129   1.17922   1.25374   1.35050   2.81560

 Mulliken charges:
               1
     1  O   -0.755908
     2  H    0.392124
     3  H    0.317431
     4  O   -0.830237
     5  H    0.459877
     6  H    0.416714
 Sum of Mulliken charges =  -0.00000

 Dipole moment (field-independent basis, Debye):
    X=             -2.4625    Y=             -5.2588    Z=             -0.0000  Tot=              5.8068
 Quadrupole moment (field-independent basis, Debye-Ang):
   XX=             -9.5978   YY=            -10.0958   ZZ=            -14.9834
   XY=             -3.4751   XZ=              0.0000   YZ=             -0.0000

 4\MP4DQ=-33.8771223\MP4SDQ=-33.8793927\CCSD=-33.8801078\CCSD(T)=-33.88
 Normal termination of Gaussian 16 at Sun Dec 10 06:24:40 2023.
