 Gaussian 16, Revision A.03,
 Gaussian 16:  ES64L-G16RevA.03 25-Dec-2016

 ------------------
 #p CCSD(T)/CEP-31G
 ------------------

 ------------
 H2O_H2O_1435
 ------------
 Symbolic Z-matrix:
 Charge =  0 Multiplicity = 1

                         Standard orientation:
 ---------------------------------------------------------------------
 Center     Atomic      Atomic             Coordinates (Angstroms)
 Number     Number       Type             X           Y           Z
 ---------------------------------------------------------------------
      1          8           0        0.063278    1.678449   -0.000000
      2          1           0        0.061693    0.695849   -0.000000
      3          1           0       -0.865699    1.998614   -0.000000
      4          8           0        0.063278   -1.503002    0.000000
      5          1           0        0.660190   -2.283516    0.000000
      6          1           0       -0.868634   -1.814523    0.000000
 ---------------------------------------------------------------------

 SCF Done:  E(RHF) =  -33.6600852279     A.U. after   11 cycles
 E2 =    -0.2289197278D+00 EUMP2 =    -0.33889004955702D+02
 CCSD(T)
 CCSD(T)= -0.33905803508D+02

 The electronic state is 1-A'.
 Alpha  occ. eigenvalues --   -1.38097  -1.32414  -0.73779  -0.68282  -0.58503
 Alpha  occ. eigenvalues --   -0.52774  -0.52138  -0.47049
 Alpha virt. eigenvalues --    0.17698   0.25175   0.28404   0.39462   0.76917
 Alpha virt. eigenvalues --    0.80322   0.84435   0.85588   0.91611   1.00191
 Alpha virt. eigenvalues --    1.14993   1.19216   1.21146   1.35185   2.49812

 Mulliken charges:
               1
     1  O   -0.775691
     2  H    0.422058
     3  H    0.352054
     4  O   -0.781665
     5  H    0.402029
     6  H    0.381215
 Sum of Mulliken charges =   0.00000

 Dipole moment (field-independent basis, Debye):
    X=             -2.8131    Y=             -4.4585    Z=              0.0000  Tot=              5.2718
 Quadrupole moment (field-independent basis, Debye-Ang):
   XX=             -9.7711   YY=             -8.2313   ZZ=            -15.0064
   XY=             -4.0959   XZ=              0.0000   YZ=             -0.0000

 924\MP4DQ=-33.9000054\MP4SDQ=-33.9021117\CCSD=-33.903112\CCSD(T)=-33.9
 Normal termination of Gaussian 16 at Sun Dec 10 06:45:47 2023.
