 Gaussian 16, Revision A.03,
 Gaussian 16:  ES64L-G16RevA.03 25-Dec-2016

 ------------------
 #p CCSD(T)/CEP-31G
 ------------------

 -----------
 H2O_H2O_387
 -----------
 Symbolic Z-matrix:
 Charge =  0 Multiplicity = 1

                         Standard orientation:
 ---------------------------------------------------------------------
 Center     Atomic      Atomic             Coordinates (Angstroms)
 Number     Number       Type             X           Y           Z
 ---------------------------------------------------------------------
      1          8           0        0.056107    1.261434    0.000000
      2          1           0        0.053431    0.278836    0.000000
      3          1           0       -0.872514    1.582631    0.000000
      4          8           0        0.056107   -1.082673   -0.000000
      5          1           0        0.749016   -1.779367   -0.000000
      6          1           0       -0.827649   -1.512187   -0.000000
 ---------------------------------------------------------------------

 SCF Done:  E(RHF) =  -33.6446208492     A.U. after   11 cycles
 E2 =    -0.2287535663D+00 EUMP2 =    -0.33873374415511D+02
 CCSD(T)
 CCSD(T)= -0.33888696275D+02

 The electronic state is 1-A'.
 Alpha  occ. eigenvalues --   -1.42152  -1.28695  -0.77223  -0.73256  -0.57323
 Alpha  occ. eigenvalues --   -0.56488  -0.47097  -0.43019
 Alpha virt. eigenvalues --    0.16745   0.26190   0.28837   0.57349   0.73663
 Alpha virt. eigenvalues --    0.73895   0.85842   0.90011   0.94930   1.04431
 Alpha virt. eigenvalues --    1.13368   1.17598   1.25149   1.35554   2.77686

 Mulliken charges:
               1
     1  O   -0.762475
     2  H    0.403394
     3  H    0.321179
     4  O   -0.832423
     5  H    0.452021
     6  H    0.418304
 Sum of Mulliken charges =  -0.00000

 Dipole moment (field-independent basis, Debye):
    X=             -2.3291    Y=             -5.2242    Z=             -0.0000  Tot=              5.7198
 Quadrupole moment (field-independent basis, Debye-Ang):
   XX=             -9.5044   YY=            -10.0021   ZZ=            -14.9927
   XY=             -3.5621   XZ=             -0.0000   YZ=              0.0000

 188\MP4DQ=-33.8826399\MP4SDQ=-33.8848819\CCSD=-33.885615\CCSD(T)=-33.8
 Normal termination of Gaussian 16 at Sun Dec 10 06:25:41 2023.
