 Gaussian 16, Revision A.03,
 Gaussian 16:  ES64L-G16RevA.03 25-Dec-2016

 ------------------
 #p CCSD(T)/CEP-31G
 ------------------

 ------------
 H2O_H2O_4453
 ------------
 Symbolic Z-matrix:
 Charge =  0 Multiplicity = 1

                         Standard orientation:
 ---------------------------------------------------------------------
 Center     Atomic      Atomic             Coordinates (Angstroms)
 Number     Number       Type             X           Y           Z
 ---------------------------------------------------------------------
      1          8           0        0.085597   -2.871011    0.000000
      2          1           0        0.085374   -1.888409    0.000000
      3          1           0       -0.843824   -3.189888    0.000000
      4          8           0        0.085597    2.721405    0.000000
      5          1           0        0.277074    3.685169    0.000000
      6          1           0       -0.888175    2.589976    0.000000
 ---------------------------------------------------------------------

 SCF Done:  E(RHF) =  -33.6523438085     A.U. after   11 cycles
 E2 =    -0.2283449581D+00 EUMP2 =    -0.33880688766530D+02
 CCSD(T)
 CCSD(T)= -0.33897674454D+02

 The electronic state is 1-A'.
 Alpha  occ. eigenvalues --   -1.36303  -1.35004  -0.71949  -0.70623  -0.56073
 Alpha  occ. eigenvalues --   -0.54749  -0.50881  -0.49581
 Alpha virt. eigenvalues --    0.19439   0.20874   0.29744   0.31101   0.79681
 Alpha virt. eigenvalues --    0.80954   0.82617   0.83968   0.85701   0.87144
 Alpha virt. eigenvalues --    1.16618   1.17928   1.21074   1.22445   2.56558

 Mulliken charges:
               1
     1  O   -0.743353
     2  H    0.376154
     3  H    0.367191
     4  O   -0.743562
     5  H    0.374701
     6  H    0.368868
 Sum of Mulliken charges =   0.00000

 Dipole moment (field-independent basis, Debye):
    X=             -3.9362    Y=              3.5127    Z=              0.0000  Tot=              5.2757
 Quadrupole moment (field-independent basis, Debye-Ang):
   XX=            -10.8016   YY=             -7.9684   ZZ=            -14.9893
   XY=              3.3350   XZ=              0.0000   YZ=              0.0000

 2905\MP4DQ=-33.8920332\MP4SDQ=-33.8940597\CCSD=-33.8951137\CCSD(T)=-33
 Normal termination of Gaussian 16 at Sun Dec 10 06:53:09 2023.
