 Gaussian 16, Revision A.03,
 Gaussian 16:  ES64L-G16RevA.03 25-Dec-2016

 ------------------
 #p CCSD(T)/CEP-31G
 ------------------

 -----------
 H2O_H2O_795
 -----------
 Symbolic Z-matrix:
 Charge =  0 Multiplicity = 1

                         Standard orientation:
 ---------------------------------------------------------------------
 Center     Atomic      Atomic             Coordinates (Angstroms)
 Number     Number       Type             X           Y           Z
 ---------------------------------------------------------------------
      1          8           0        0.026810    1.417932   -0.000000
      2          1           0        0.022584    0.435340   -0.000000
      3          1           0       -0.901304    1.740593   -0.000000
      4          8           0        0.026810   -1.244801    0.000000
      5          1           0        0.974828   -1.503196    0.000000
      6          1           0       -0.525070   -2.057780    0.000000
 ---------------------------------------------------------------------

 SCF Done:  E(RHF) =  -33.6612882871     A.U. after   11 cycles
 E2 =    -0.2287590830D+00 EUMP2 =    -0.33890047370183D+02
 CCSD(T)
 CCSD(T)= -0.33906258757D+02

 The electronic state is 1-A'.
 Alpha  occ. eigenvalues --   -1.39672  -1.30539  -0.75411  -0.68762  -0.59405
 Alpha  occ. eigenvalues --   -0.54355  -0.49860  -0.45162
 Alpha virt. eigenvalues --    0.17493   0.27199   0.27560   0.48918   0.74762
 Alpha virt. eigenvalues --    0.76334   0.86266   0.87586   0.94025   1.03663
 Alpha virt. eigenvalues --    1.16112   1.19208   1.24072   1.37204   2.58407

 Mulliken charges:
               1
     1  O   -0.782440
     2  H    0.422874
     3  H    0.349281
     4  O   -0.826413
     5  H    0.407466
     6  H    0.429231
 Sum of Mulliken charges =   0.00000

 Dipole moment (field-independent basis, Debye):
    X=             -1.1891    Y=             -4.7026    Z=              0.0000  Tot=              4.8506
 Quadrupole moment (field-independent basis, Debye-Ang):
   XX=             -9.4645   YY=             -9.1361   ZZ=            -15.0181
   XY=             -4.4552   XZ=              0.0000   YZ=             -0.0000

 9\MP4DQ=-33.9003644\MP4SDQ=-33.9025086\CCSD=-33.903406\CCSD(T)=-33.906
 Normal termination of Gaussian 16 at Sun Dec 10 06:33:28 2023.
