 Gaussian 16, Revision A.03,
 Gaussian 16:  ES64L-G16RevA.03 25-Dec-2016

 ------------------
 #p CCSD(T)/CEP-31G
 ------------------

 -----------
 H2O_H2O_704
 -----------
 Symbolic Z-matrix:
 Charge =  0 Multiplicity = 1

                         Standard orientation:
 ---------------------------------------------------------------------
 Center     Atomic      Atomic             Coordinates (Angstroms)
 Number     Number       Type             X           Y           Z
 ---------------------------------------------------------------------
      1          8           0        0.082826   -1.377866    0.000000
      2          1           0        0.082164   -0.395264    0.000000
      3          1           0       -0.846452   -1.697158    0.000000
      4          8           0        0.082826    1.223395    0.000000
      5          1           0        0.336503    2.172687    0.000000
      6          1           0       -0.897428    1.155497    0.000000
 ---------------------------------------------------------------------

 SCF Done:  E(RHF) =  -33.6499548125     A.U. after   11 cycles
 E2 =    -0.2289383906D+00 EUMP2 =    -0.33878893203060D+02
 CCSD(T)
 CCSD(T)= -0.33895406384D+02

 The electronic state is 1-A'.
 Alpha  occ. eigenvalues --   -1.40360  -1.31579  -0.76901  -0.68793  -0.59198
 Alpha  occ. eigenvalues --   -0.54729  -0.50786  -0.46018
 Alpha virt. eigenvalues --    0.16693   0.25682   0.27675   0.48845   0.74256
 Alpha virt. eigenvalues --    0.77396   0.85290   0.87315   0.94510   1.10225
 Alpha virt. eigenvalues --    1.15144   1.23093   1.29472   1.36455   2.60198

 Mulliken charges:
               1
     1  O   -0.740438
     2  H    0.384672
     3  H    0.334576
     4  O   -0.806717
     5  H    0.448272
     6  H    0.379635
 Sum of Mulliken charges =  -0.00000

 Dipole moment (field-independent basis, Debye):
    X=             -3.5824    Y=              4.3290    Z=              0.0000  Tot=              5.6190
 Quadrupole moment (field-independent basis, Debye-Ang):
   XX=            -10.6949   YY=             -9.3763   ZZ=            -14.9943
   XY=              2.9329   XZ=              0.0000   YZ=              0.0000

 085\MP4DQ=-33.8893581\MP4SDQ=-33.8916274\CCSD=-33.8925288\CCSD(T)=-33.
 Normal termination of Gaussian 16 at Sun Dec 10 06:31:45 2023.
