 Gaussian 16, Revision A.03,
 Gaussian 16:  ES64L-G16RevA.03 25-Dec-2016

 ------------------
 #p CCSD(T)/CEP-31G
 ------------------

 ------------
 H2O_H2O_2110
 ------------
 Symbolic Z-matrix:
 Charge =  0 Multiplicity = 1

                         Standard orientation:
 ---------------------------------------------------------------------
 Center     Atomic      Atomic             Coordinates (Angstroms)
 Number     Number       Type             X           Y           Z
 ---------------------------------------------------------------------
      1          8           0        0.063258    1.947705    0.000000
      2          1           0        0.061902    0.965105    0.000000
      3          1           0       -0.865795    2.267654   -0.000000
      4          8           0        0.063258   -1.772229    0.000000
      5          1           0        0.660352   -2.552604    0.000000
      6          1           0       -0.868582   -2.083968   -0.000000
 ---------------------------------------------------------------------

 SCF Done:  E(RHF) =  -33.6571034168     A.U. after   11 cycles
 E2 =    -0.2285810723D+00 EUMP2 =    -0.33885684489125D+02
 CCSD(T)
 CCSD(T)= -0.33902590914D+02

 The electronic state is 1-A'.
 Alpha  occ. eigenvalues --   -1.37310  -1.33382  -0.72975  -0.68997  -0.57419
 Alpha  occ. eigenvalues --   -0.53191  -0.51950  -0.48011
 Alpha virt. eigenvalues --    0.18031   0.23622   0.28989   0.34498   0.78440
 Alpha virt. eigenvalues --    0.82660   0.83200   0.85445   0.88949   0.89211
 Alpha virt. eigenvalues --    1.15712   1.20038   1.20303   1.32550   2.52545

 Mulliken charges:
               1
     1  O   -0.763780
     2  H    0.402181
     3  H    0.359423
     4  O   -0.759610
     5  H    0.386365
     6  H    0.375421
 Sum of Mulliken charges =  -0.00000

 Dipole moment (field-independent basis, Debye):
    X=             -2.8592    Y=             -4.3074    Z=             -0.0000  Tot=              5.1700
 Quadrupole moment (field-independent basis, Debye-Ang):
   XX=             -9.7776   YY=             -7.5255   ZZ=            -14.9988
   XY=             -4.4624   XZ=              0.0000   YZ=             -0.0000

 1371\MP4DQ=-33.8968816\MP4SDQ=-33.8989566\CCSD=-33.8999828\CCSD(T)=-33
 Normal termination of Gaussian 16 at Sun Dec 10 06:58:46 2023.
