 Gaussian 16, Revision A.03,
 Gaussian 16:  ES64L-G16RevA.03 25-Dec-2016

 ------------------
 #p CCSD(T)/CEP-31G
 ------------------

 ------------
 H2O_H2O_4920
 ------------
 Symbolic Z-matrix:
 Charge =  0 Multiplicity = 1

                         Standard orientation:
 ---------------------------------------------------------------------
 Center     Atomic      Atomic             Coordinates (Angstroms)
 Number     Number       Type             X           Y           Z
 ---------------------------------------------------------------------
      1          8           0        0.026604    3.063357   -0.000000
      2          1           0        0.024714    2.080758   -0.000000
      3          1           0       -0.902274    3.383811   -0.000000
      4          8           0        0.026604   -2.890100    0.000000
      5          1           0        0.975234   -3.146241    0.000000
      6          1           0       -0.523342   -3.704388    0.000000
 ---------------------------------------------------------------------

 SCF Done:  E(RHF) =  -33.6531622718     A.U. after   11 cycles
 E2 =    -0.2283020594D+00 EUMP2 =    -0.33881464331224D+02
 CCSD(T)
 CCSD(T)= -0.33898426357D+02

 The electronic state is 1-A'.
 Alpha  occ. eigenvalues --   -1.36177  -1.34821  -0.71816  -0.70457  -0.55989
 Alpha  occ. eigenvalues --   -0.54604  -0.50770  -0.49416
 Alpha virt. eigenvalues --    0.19668   0.21056   0.29919   0.31331   0.79780
 Alpha virt. eigenvalues --    0.81106   0.82667   0.84093   0.85831   0.87192
 Alpha virt. eigenvalues --    1.16784   1.18142   1.21229   1.22621   2.56762

 Mulliken charges:
               1
     1  O   -0.746454
     2  H    0.376934
     3  H    0.369519
     4  O   -0.746040
     5  H    0.373282
     6  H    0.372760
 Sum of Mulliken charges =   0.00000

 Dipole moment (field-independent basis, Debye):
    X=             -1.2229    Y=             -4.0526    Z=              0.0000  Tot=              4.2331
 Quadrupole moment (field-independent basis, Debye-Ang):
   XX=             -9.5305   YY=             -5.4033   ZZ=            -14.9913
   XY=             -9.6518   XZ=              0.0000   YZ=             -0.0000

 453\MP4DQ=-33.8927921\MP4SDQ=-33.8948161\CCSD=-33.895869\CCSD(T)=-33.8
 Normal termination of Gaussian 16 at Sun Dec 10 07:02:26 2023.
