 Gaussian 16, Revision A.03,
 Gaussian 16:  ES64L-G16RevA.03 25-Dec-2016

 ------------------
 #p CCSD(T)/CEP-31G
 ------------------

 ------------
 H2O_H2O_2993
 ------------
 Symbolic Z-matrix:
 Charge =  0 Multiplicity = 1

                         Standard orientation:
 ---------------------------------------------------------------------
 Center     Atomic      Atomic             Coordinates (Angstroms)
 Number     Number       Type             X           Y           Z
 ---------------------------------------------------------------------
      1          8           0        0.033795    2.297836   -0.000000
      2          1           0        0.031522    1.315237   -0.000000
      3          1           0       -0.894958    2.618652   -0.000000
      4          8           0        0.033795   -2.120317    0.000000
      5          1           0        0.940728   -2.498440    0.000000
      6          1           0       -0.618019   -2.855602    0.000000
 ---------------------------------------------------------------------

 SCF Done:  E(RHF) =  -33.6555103095     A.U. after   11 cycles
 E2 =    -0.2283167067D+00 EUMP2 =    -0.33883827016290D+02
 CCSD(T)
 CCSD(T)= -0.33900729666D+02

 The electronic state is 1-A'.
 Alpha  occ. eigenvalues --   -1.36712  -1.34016  -0.72358  -0.69646  -0.56665
 Alpha  occ. eigenvalues --   -0.53853  -0.51337  -0.48643
 Alpha virt. eigenvalues --    0.18825   0.22311   0.29493   0.32430   0.79229
 Alpha virt. eigenvalues --    0.81837   0.82605   0.84586   0.85506   0.87952
 Alpha virt. eigenvalues --    1.16336   1.19313   1.20744   1.25799   2.55959

 Mulliken charges:
               1
     1  O   -0.755814
     2  H    0.388323
     3  H    0.366658
     4  O   -0.753227
     5  H    0.377985
     6  H    0.376076
 Sum of Mulliken charges =  -0.00000

 Dipole moment (field-independent basis, Debye):
    X=             -1.5391    Y=             -4.2406    Z=              0.0000  Tot=              4.5112
 Quadrupole moment (field-independent basis, Debye-Ang):
   XX=             -9.4307   YY=             -6.6320   ZZ=            -14.9960
   XY=             -6.8180   XZ=              0.0000   YZ=             -0.0000

 338\MP4DQ=-33.8950889\MP4SDQ=-33.8971256\CCSD=-33.8981642\CCSD(T)=-33.
 Normal termination of Gaussian 16 at Sun Dec 10 06:26:56 2023.
