 Gaussian 16, Revision A.03,
 Gaussian 16:  ES64L-G16RevA.03 25-Dec-2016

 ------------------
 #p CCSD(T)/CEP-31G
 ------------------

 ------------
 H2O_H2O_2553
 ------------
 Symbolic Z-matrix:
 Charge =  0 Multiplicity = 1

                         Standard orientation:
 ---------------------------------------------------------------------
 Center     Atomic      Atomic             Coordinates (Angstroms)
 Number     Number       Type             X           Y           Z
 ---------------------------------------------------------------------
      1          8           0        0.085603   -2.113137    0.000000
      2          1           0        0.085297   -1.130535    0.000000
      3          1           0       -0.843790   -2.432093    0.000000
      4          8           0        0.085603    1.963545    0.000000
      5          1           0        0.276999    2.927326    0.000000
      6          1           0       -0.888159    1.832033    0.000000
 ---------------------------------------------------------------------

 SCF Done:  E(RHF) =  -33.6536525097     A.U. after   11 cycles
 E2 =    -0.2285087435D+00 EUMP2 =    -0.33882161253196D+02
 CCSD(T)
 CCSD(T)= -0.33899139133D+02

 The electronic state is 1-A'.
 Alpha  occ. eigenvalues --   -1.37027  -1.34407  -0.72716  -0.69986  -0.56886
 Alpha  occ. eigenvalues --   -0.54155  -0.51615  -0.48989
 Alpha virt. eigenvalues --    0.17503   0.22624   0.29097   0.32360   0.78923
 Alpha virt. eigenvalues --    0.81590   0.82940   0.84572   0.86637   0.88042
 Alpha virt. eigenvalues --    1.15685   1.19078   1.20472   1.29899   2.55664

 Mulliken charges:
               1
     1  O   -0.749396
     2  H    0.386435
     3  H    0.361818
     4  O   -0.748733
     5  H    0.381771
     6  H    0.368105
 Sum of Mulliken charges =  -0.00000

 Dipole moment (field-independent basis, Debye):
    X=             -3.9011    Y=              3.6157    Z=              0.0000  Tot=              5.3190
 Quadrupole moment (field-independent basis, Debye-Ang):
   XX=            -10.8190   YY=             -8.5362   ZZ=            -14.9909
   XY=              3.0621   XZ=              0.0000   YZ=              0.0000

 133\MP4DQ=-33.8934554\MP4SDQ=-33.8955147\CCSD=-33.896551\CCSD(T)=-33.8
 Normal termination of Gaussian 16 at Sun Dec 10 06:18:58 2023.
