 Gaussian 16, Revision A.03,
 Gaussian 16:  ES64L-G16RevA.03 25-Dec-2016

 ------------------
 #p CCSD(T)/CEP-31G
 ------------------

 -----------
 H2O_H2O_466
 -----------
 Symbolic Z-matrix:
 Charge =  0 Multiplicity = 1

                         Standard orientation:
 ---------------------------------------------------------------------
 Center     Atomic      Atomic             Coordinates (Angstroms)
 Number     Number       Type             X           Y           Z
 ---------------------------------------------------------------------
      1          8           0        0.041298    1.291907   -0.000000
      2          1           0        0.037639    0.309313   -0.000000
      3          1           0       -0.887002    1.614032   -0.000000
      4          8           0        0.041298   -1.112127    0.000000
      5          1           0        0.890420   -1.606592    0.000000
      6          1           0       -0.701821   -1.754996    0.000000
 ---------------------------------------------------------------------

 SCF Done:  E(RHF) =  -33.6513988452     A.U. after   11 cycles
 E2 =    -0.2287314289D+00 EUMP2 =    -0.33880130274107D+02
 CCSD(T)
 CCSD(T)= -0.33895587128D+02

 The electronic state is 1-A'.
 Alpha  occ. eigenvalues --   -1.41476  -1.28899  -0.76544  -0.72264  -0.57930
 Alpha  occ. eigenvalues --   -0.55982  -0.47521  -0.43323
 Alpha virt. eigenvalues --    0.17023   0.26651   0.28573   0.56029   0.73860
 Alpha virt. eigenvalues --    0.73987   0.85822   0.89650   0.95098   1.00936
 Alpha virt. eigenvalues --    1.14780   1.17642   1.25274   1.36632   2.72043

 Mulliken charges:
               1
     1  O   -0.773411
     2  H    0.412920
     3  H    0.330298
     4  O   -0.834071
     5  H    0.432140
     6  H    0.432125
 Sum of Mulliken charges =   0.00000

 Dipole moment (field-independent basis, Debye):
    X=             -1.7568    Y=             -5.1546    Z=              0.0000  Tot=              5.4458
 Quadrupole moment (field-independent basis, Debye-Ang):
   XX=             -9.3140   YY=             -9.8399   ZZ=            -15.0054
   XY=             -3.7822   XZ=              0.0000   YZ=             -0.0000

 48\MP4DQ=-33.8895958\MP4SDQ=-33.8917891\CCSD=-33.892553\CCSD(T)=-33.89
 Normal termination of Gaussian 16 at Sun Dec 10 06:27:17 2023.
