 Gaussian 16, Revision A.03,
 Gaussian 16:  ES64L-G16RevA.03 25-Dec-2016

 ------------------
 #p CCSD(T)/CEP-31G
 ------------------

 ------------
 H2O_H2O_3449
 ------------
 Symbolic Z-matrix:
 Charge =  0 Multiplicity = 1

                         Standard orientation:
 ---------------------------------------------------------------------
 Center     Atomic      Atomic             Coordinates (Angstroms)
 Number     Number       Type             X           Y           Z
 ---------------------------------------------------------------------
      1          8           0       -0.013507    2.467419    0.000000
      2          1           0       -0.010684    1.484821    0.000000
      3          1           0        0.915067    2.788754    0.000000
      4          8           0       -0.013507   -2.308153    0.000000
      5          1           0       -0.996104   -2.310975    0.000000
      6          1           0        0.307828   -3.236727    0.000000
 ---------------------------------------------------------------------

 SCF Done:  E(RHF) =  -33.6544461069     A.U. after   11 cycles
 E2 =    -0.2282746007D+00 EUMP2 =    -0.33882720707559D+02
 CCSD(T)
 CCSD(T)= -0.33899650227D+02

 The electronic state is 1-A'.
 Alpha  occ. eigenvalues --   -1.36518  -1.34521  -0.72167  -0.70166  -0.56402
 Alpha  occ. eigenvalues --   -0.54345  -0.51126  -0.49138
 Alpha virt. eigenvalues --    0.18998   0.21703   0.29621   0.31788   0.79435
 Alpha virt. eigenvalues --    0.81360   0.82236   0.84270   0.85474   0.87521
 Alpha virt. eigenvalues --    1.16448   1.18680   1.20884   1.23981   2.56426

 Mulliken charges:
               1
     1  O   -0.751521
     2  H    0.381412
     3  H    0.369869
     4  O   -0.750762
     5  H    0.374830
     6  H    0.376172
 Sum of Mulliken charges =  -0.00000

 Dipole moment (field-independent basis, Debye):
    X=              0.6171    Y=             -3.7680    Z=              0.0000  Tot=              3.8182
 Quadrupole moment (field-independent basis, Debye-Ang):
   XX=             -9.8725   YY=             -7.5064   ZZ=            -14.9937
   XY=              8.9237   XZ=              0.0000   YZ=              0.0000

 265\MP4DQ=-33.8940167\MP4SDQ=-33.8960437\CCSD=-33.8970902\CCSD(T)=-33.
 Normal termination of Gaussian 16 at Sun Dec 10 06:35:06 2023.
