 Gaussian 16, Revision A.03,
 Gaussian 16:  ES64L-G16RevA.03 25-Dec-2016

 ------------------
 #p CCSD(T)/CEP-31G
 ------------------

 ------------
 H2O_H2O_1873
 ------------
 Symbolic Z-matrix:
 Charge =  0 Multiplicity = 1

                         Standard orientation:
 ---------------------------------------------------------------------
 Center     Atomic      Atomic             Coordinates (Angstroms)
 Number     Number       Type             X           Y           Z
 ---------------------------------------------------------------------
      1          8           0       -0.016695    1.841416    0.000000
      2          1           0       -0.013014    0.858822    0.000000
      3          1           0        0.911598    2.163562    0.000000
      4          8           0       -0.016695   -1.678054    0.000000
      5          1           0       -0.996945   -1.745990    0.000000
      6          1           0        0.365475   -2.583290    0.000000
 ---------------------------------------------------------------------

 SCF Done:  E(RHF) =  -33.6589198721     A.U. after   11 cycles
 E2 =    -0.2285780125D+00 EUMP2 =    -0.33887497884623D+02
 CCSD(T)
 CCSD(T)= -0.33904388706D+02

 The electronic state is 1-A'.
 Alpha  occ. eigenvalues --   -1.37472  -1.33279  -0.73173  -0.68974  -0.57717
 Alpha  occ. eigenvalues --   -0.53143  -0.52131  -0.47955
 Alpha virt. eigenvalues --    0.17803   0.24250   0.28957   0.35620   0.78023
 Alpha virt. eigenvalues --    0.81945   0.82951   0.86004   0.88056   0.95134
 Alpha virt. eigenvalues --    1.15683   1.19508   1.20842   1.35895   2.52383

 Mulliken charges:
               1
     1  O   -0.772151
     2  H    0.403088
     3  H    0.366354
     4  O   -0.768785
     5  H    0.383000
     6  H    0.388493
 Sum of Mulliken charges =   0.00000

 Dipole moment (field-independent basis, Debye):
    X=              0.7498    Y=             -4.0432    Z=              0.0000  Tot=              4.1121
 Quadrupole moment (field-independent basis, Debye-Ang):
   XX=             -9.7534   YY=             -8.1663   ZZ=            -15.0022
   XY=              6.4153   XZ=              0.0000   YZ=              0.0000

 79\MP4DQ=-33.8986525\MP4SDQ=-33.9007425\CCSD=-33.9017623\CCSD(T)=-33.9
 Normal termination of Gaussian 16 at Sun Dec 10 06:54:14 2023.
