 Gaussian 16, Revision A.03,
 Gaussian 16:  ES64L-G16RevA.03 25-Dec-2016

 ------------------
 #p CCSD(T)/CEP-31G
 ------------------

 ------------
 H2O_H2O_2525
 ------------
 Symbolic Z-matrix:
 Charge =  0 Multiplicity = 1

                         Standard orientation:
 ---------------------------------------------------------------------
 Center     Atomic      Atomic             Coordinates (Angstroms)
 Number     Number       Type             X           Y           Z
 ---------------------------------------------------------------------
      1          8           0        0.092949   -2.094037    0.000000
      2          1           0        0.092949   -1.111436    0.000000
      3          1           0       -0.836544   -2.412704    0.000000
      4          8           0        0.092949    1.961250    0.000000
      5          1           0        0.092949    2.943851    0.000000
      6          1           0       -0.836544    1.642583    0.000000
 ---------------------------------------------------------------------

 SCF Done:  E(RHF) =  -33.6525389490     A.U. after   11 cycles
 E2 =    -0.2285669082D+00 EUMP2 =    -0.33881105857172D+02
 CCSD(T)
 CCSD(T)= -0.33898118178D+02

 The electronic state is 1-A'.
 Alpha  occ. eigenvalues --   -1.37071  -1.34776  -0.72780  -0.70341  -0.56870
 Alpha  occ. eigenvalues --   -0.54492  -0.51640  -0.49339
 Alpha virt. eigenvalues --    0.16851   0.22675   0.29013   0.32231   0.78887
 Alpha virt. eigenvalues --    0.81288   0.82781   0.84221   0.87005   0.87792
 Alpha virt. eigenvalues --    1.15447   1.18669   1.20498   1.30456   2.56052

 Mulliken charges:
               1
     1  O   -0.745207
     2  H    0.382037
     3  H    0.362249
     4  O   -0.745262
     5  H    0.381440
     6  H    0.364742
 Sum of Mulliken charges =  -0.00000

 Dipole moment (field-independent basis, Debye):
    X=             -4.2382    Y=              3.2094    Z=              0.0000  Tot=              5.3162
 Quadrupole moment (field-independent basis, Debye-Ang):
   XX=            -11.3032   YY=             -9.5717   ZZ=            -14.9877
   XY=              2.2893   XZ=              0.0000   YZ=              0.0000

 6888\MP4DQ=-33.8924251\MP4SDQ=-33.8944873\CCSD=-33.8955247\CCSD(T)=-33
 Normal termination of Gaussian 16 at Sun Dec 10 06:18:28 2023.
