 Gaussian 16, Revision A.03,
 Gaussian 16:  ES64L-G16RevA.03 25-Dec-2016

 ------------------
 #p CCSD(T)/CEP-31G
 ------------------

 ------------
 H2O_H2O_3437
 ------------
 Symbolic Z-matrix:
 Charge =  0 Multiplicity = 1

                         Standard orientation:
 ---------------------------------------------------------------------
 Center     Atomic      Atomic             Coordinates (Angstroms)
 Number     Number       Type             X           Y           Z
 ---------------------------------------------------------------------
      1          8           0        0.055983    2.478085    0.000000
      2          1           0        0.054670    1.495485    0.000000
      3          1           0       -0.873083    2.797994    0.000000
      4          8           0        0.055983   -2.299169    0.000000
      5          1           0        0.749858   -2.994901    0.000000
      6          1           0       -0.827176   -2.729908    0.000000
 ---------------------------------------------------------------------

 SCF Done:  E(RHF) =  -33.6542581739     A.U. after   11 cycles
 E2 =    -0.2283056337D+00 EUMP2 =    -0.33882563807647D+02
 CCSD(T)
 CCSD(T)= -0.33899494389D+02

 The electronic state is 1-A'.
 Alpha  occ. eigenvalues --   -1.36545  -1.34281  -0.72190  -0.69900  -0.56425
 Alpha  occ. eigenvalues --   -0.54082  -0.51152  -0.48887
 Alpha virt. eigenvalues --    0.19146   0.21823   0.29598   0.32018   0.79414
 Alpha virt. eigenvalues --    0.81608   0.82241   0.84656   0.85384   0.87806
 Alpha virt. eigenvalues --    1.16461   1.18839   1.20879   1.23989   2.56417

 Mulliken charges:
               1
     1  O   -0.750753
     2  H    0.384533
     3  H    0.365901
     4  O   -0.749601
     5  H    0.377207
     6  H    0.372714
 Sum of Mulliken charges =  -0.00000

 Dipole moment (field-independent basis, Debye):
    X=             -2.5603    Y=             -4.2424    Z=              0.0000  Tot=              4.9551
 Quadrupole moment (field-independent basis, Debye-Ang):
   XX=             -9.5844   YY=             -6.1707   ZZ=            -14.9935
   XY=             -5.7369   XZ=              0.0000   YZ=              0.0000

 1091\MP4DQ=-33.89386\MP4SDQ=-33.8958884\CCSD=-33.8969341\CCSD(T)=-33.8
 Normal termination of Gaussian 16 at Sun Dec 10 06:34:53 2023.
