 Gaussian 16, Revision A.03,
 Gaussian 16:  ES64L-G16RevA.03 25-Dec-2016

 ------------------
 #p CCSD(T)/CEP-31G
 ------------------

 ------------
 H2O_H2O_3985
 ------------
 Symbolic Z-matrix:
 Charge =  0 Multiplicity = 1

                         Standard orientation:
 ---------------------------------------------------------------------
 Center     Atomic      Atomic             Coordinates (Angstroms)
 Number     Number       Type             X           Y           Z
 ---------------------------------------------------------------------
      1          8           0        0.063223    2.695625   -0.000000
      2          1           0        0.062256    1.713024   -0.000000
      3          1           0       -0.865956    3.015206   -0.000000
      4          8           0        0.063223   -2.520098    0.000000
      5          1           0        0.660626   -3.300237    0.000000
      6          1           0       -0.868494   -2.832206    0.000000
 ---------------------------------------------------------------------

 SCF Done:  E(RHF) =  -33.6534094167     A.U. after   11 cycles
 E2 =    -0.2283061784D+00 EUMP2 =    -0.33881715595068D+02
 CCSD(T)
 CCSD(T)= -0.33898669720D+02

 The electronic state is 1-A'.
 Alpha  occ. eigenvalues --   -1.36383  -1.34564  -0.72027  -0.70185  -0.56213
 Alpha  occ. eigenvalues --   -0.54344  -0.50978  -0.49159
 Alpha virt. eigenvalues --    0.19404   0.21394   0.29715   0.31658   0.79582
 Alpha virt. eigenvalues --    0.81354   0.82389   0.84369   0.85588   0.87521
 Alpha virt. eigenvalues --    1.16588   1.18427   1.21013   1.23076   2.56553

 Mulliken charges:
               1
     1  O   -0.747468
     2  H    0.380665
     3  H    0.366738
     4  O   -0.747014
     5  H    0.375724
     6  H    0.371354
 Sum of Mulliken charges =  -0.00000

 Dipole moment (field-independent basis, Debye):
    X=             -2.8998    Y=             -4.1349    Z=              0.0000  Tot=              5.0504
 Quadrupole moment (field-independent basis, Debye-Ang):
   XX=             -9.7759   YY=             -5.9577   ZZ=            -14.9918
   XY=             -5.5010   XZ=              0.0000   YZ=             -0.0000

 288\MP4DQ=-33.8930355\MP4SDQ=-33.8950604\CCSD=-33.8961113\CCSD(T)=-33.
 Normal termination of Gaussian 16 at Sun Dec 10 06:44:43 2023.
