 Gaussian 16, Revision A.03,
 Gaussian 16:  ES64L-G16RevA.03 25-Dec-2016

 ------------------
 #p CCSD(T)/CEP-31G
 ------------------

 ------------
 H2O_H2O_1568
 ------------
 Symbolic Z-matrix:
 Charge =  0 Multiplicity = 1

                         Standard orientation:
 ---------------------------------------------------------------------
 Center     Atomic      Atomic             Coordinates (Angstroms)
 Number     Number       Type             X           Y           Z
 ---------------------------------------------------------------------
      1          8           0        0.033866    1.729410    0.000000
      2          1           0        0.030806    0.746814    0.000000
      3          1           0       -0.894629    2.050970    0.000000
      4          8           0        0.033866   -1.551945   -0.000000
      5          1           0        0.940497   -1.930796   -0.000000
      6          1           0       -0.618537   -2.286709   -0.000000
 ---------------------------------------------------------------------

 SCF Done:  E(RHF) =  -33.6611687701     A.U. after   11 cycles
 E2 =    -0.2287620320D+00 EUMP2 =    -0.33889930802060D+02
 CCSD(T)
 CCSD(T)= -0.33906716367D+02

 The electronic state is 1-A'.
 Alpha  occ. eigenvalues --   -1.37844  -1.32449  -0.73495  -0.68281  -0.58327
 Alpha  occ. eigenvalues --   -0.52543  -0.52265  -0.47129
 Alpha virt. eigenvalues --    0.17967   0.25056   0.28693   0.38443   0.77320
 Alpha virt. eigenvalues --    0.80764   0.84094   0.86395   0.90061   0.97458
 Alpha virt. eigenvalues --    1.15349   1.19315   1.21365   1.34397   2.50025

 Mulliken charges:
               1
     1  O   -0.780425
     2  H    0.419091
     3  H    0.359278
     4  O   -0.779451
     5  H    0.390260
     6  H    0.391247
 Sum of Mulliken charges =  -0.00000

 Dipole moment (field-independent basis, Debye):
    X=             -1.5156    Y=             -4.4625    Z=             -0.0000  Tot=              4.7129
 Quadrupole moment (field-independent basis, Debye-Ang):
   XX=             -9.4082   YY=             -8.0269   ZZ=            -15.0083
   XY=             -5.2226   XZ=             -0.0000   YZ=              0.0000

 2285\MP4DQ=-33.9009557\MP4SDQ=-33.9030439\CCSD=-33.9040504\CCSD(T)=-33
 Normal termination of Gaussian 16 at Sun Dec 10 06:48:27 2023.
