 Gaussian 16, Revision A.03,
 Gaussian 16:  ES64L-G16RevA.03 25-Dec-2016

 ------------------
 #p CCSD(T)/CEP-31G
 ------------------

 -----------
 H2O_H2O_326
 -----------
 Symbolic Z-matrix:
 Charge =  0 Multiplicity = 1

                         Standard orientation:
 ---------------------------------------------------------------------
 Center     Atomic      Atomic             Coordinates (Angstroms)
 Number     Number       Type             X           Y           Z
 ---------------------------------------------------------------------
      1          8           0        0.090690   -1.219715    0.000000
      2          1           0        0.090523   -0.237114    0.000000
      3          1           0       -0.838748   -1.538540    0.000000
      4          8           0        0.090690    1.081022    0.000000
      5          1           0        0.154789    2.061531    0.000000
      6          1           0       -0.857611    0.823668    0.000000
 ---------------------------------------------------------------------

 SCF Done:  E(RHF) =  -33.6157893344     A.U. after   11 cycles
 E2 =    -0.2288321551D+00 EUMP2 =    -0.33844621489473D+02
 CCSD(T)
 CCSD(T)= -0.33860642669D+02

 The electronic state is 1-A'.
 Alpha  occ. eigenvalues --   -1.43608  -1.30885  -0.81691  -0.69484  -0.58410
 Alpha  occ. eigenvalues --   -0.56811  -0.49499  -0.45092
 Alpha virt. eigenvalues --    0.16212   0.23967   0.28862   0.55779   0.73157
 Alpha virt. eigenvalues --    0.76738   0.87172   0.88893   0.95266   1.10861
 Alpha virt. eigenvalues --    1.12761   1.24146   1.27044   1.46450   2.78115

 Mulliken charges:
               1
     1  O   -0.683109
     2  H    0.279683
     3  H    0.319606
     4  O   -0.763821
     5  H    0.472461
     6  H    0.375180
 Sum of Mulliken charges =   0.00000

 Dipole moment (field-independent basis, Debye):
    X=             -3.8453    Y=              4.3277    Z=              0.0000  Tot=              5.7892
 Quadrupole moment (field-independent basis, Debye-Ang):
   XX=            -11.2047   YY=            -10.1124   ZZ=            -14.9417
   XY=              2.3068   XZ=              0.0000   YZ=              0.0000

 72\MP4DQ=-33.8543167\MP4SDQ=-33.8567887\CCSD=-33.8575381\CCSD(T)=-33.8
 Normal termination of Gaussian 16 at Sun Dec 10 06:24:29 2023.
