 Gaussian 16, Revision A.03,
 Gaussian 16:  ES64L-G16RevA.03 25-Dec-2016

 ------------------
 #p CCSD(T)/CEP-31G
 ------------------

 ------------
 H2O_H2O_1838
 ------------
 Symbolic Z-matrix:
 Charge =  0 Multiplicity = 1

                         Standard orientation:
 ---------------------------------------------------------------------
 Center     Atomic      Atomic             Coordinates (Angstroms)
 Number     Number       Type             X           Y           Z
 ---------------------------------------------------------------------
      1          8           0        0.052339    1.840389    0.000000
      2          1           0        0.050368    0.857790    0.000000
      3          1           0       -0.876512    2.160919   -0.000000
      4          8           0        0.052339   -1.660546    0.000000
      5          1           0        0.789798   -2.309900    0.000000
      6          1           0       -0.801083   -2.147553   -0.000000
 ---------------------------------------------------------------------

 SCF Done:  E(RHF) =  -33.6590954422     A.U. after   11 cycles
 E2 =    -0.2286814076D+00 EUMP2 =    -0.33887776849746D+02
 CCSD(T)
 CCSD(T)= -0.33904630002D+02

 The electronic state is 1-A'.
 Alpha  occ. eigenvalues --   -1.37547  -1.32886  -0.73198  -0.68565  -0.57839
 Alpha  occ. eigenvalues --   -0.52707  -0.52217  -0.47538
 Alpha virt. eigenvalues --    0.18054   0.24327   0.28863   0.36254   0.77970
 Alpha virt. eigenvalues --    0.82286   0.83329   0.85919   0.89709   0.92185
 Alpha virt. eigenvalues --    1.15538   1.20075   1.20537   1.33325   2.50813

 Mulliken charges:
               1
     1  O   -0.772019
     2  H    0.411590
     3  H    0.358287
     4  O   -0.767600
     5  H    0.389405
     6  H    0.380338
 Sum of Mulliken charges =  -0.00000

 Dipole moment (field-independent basis, Debye):
    X=             -2.3511    Y=             -4.4612    Z=             -0.0000  Tot=              5.0428
 Quadrupole moment (field-independent basis, Debye-Ang):
   XX=             -9.5038   YY=             -7.6558   ZZ=            -15.0033
   XY=             -4.7884   XZ=              0.0000   YZ=             -0.0000

 1615\MP4DQ=-33.8988991\MP4SDQ=-33.9009789\CCSD=-33.9019978\CCSD(T)=-33
 Normal termination of Gaussian 16 at Sun Dec 10 06:53:35 2023.
