 Gaussian 16, Revision A.03,
 Gaussian 16:  ES64L-G16RevA.03 25-Dec-2016

 ------------------
 #p CCSD(T)/CEP-31G
 ------------------

 -----------
 H2O_H2O_223
 -----------
 Symbolic Z-matrix:
 Charge =  0 Multiplicity = 1

                         Standard orientation:
 ---------------------------------------------------------------------
 Center     Atomic      Atomic             Coordinates (Angstroms)
 Number     Number       Type             X           Y           Z
 ---------------------------------------------------------------------
      1          8           0        0.016877   -1.183238    0.000000
      2          1           0        0.010998   -0.200654    0.000000
      3          1           0       -0.910693   -1.507460    0.000000
      4          8           0        0.016877    1.019951    0.000000
      5          1           0        0.996974    1.090081    0.000000
      6          1           0       -0.367316    1.924330    0.000000
 ---------------------------------------------------------------------

 SCF Done:  E(RHF) =  -33.6213244988     A.U. after   11 cycles
 E2 =    -0.2273241051D+00 EUMP2 =    -0.33848648603895D+02
 CCSD(T)
 CCSD(T)= -0.33863739150D+02

 The electronic state is 1-A'.
 Alpha  occ. eigenvalues --   -1.44077  -1.28003  -0.81126  -0.72480  -0.57584
 Alpha  occ. eigenvalues --   -0.57152  -0.45753  -0.42294
 Alpha virt. eigenvalues --    0.17005   0.25163   0.29612   0.60116   0.73451
 Alpha virt. eigenvalues --    0.74940   0.89397   0.90778   0.93375   1.03558
 Alpha virt. eigenvalues --    1.13875   1.20402   1.29774   1.41458   2.90537

 Mulliken charges:
               1
     1  O   -0.745396
     2  H    0.313175
     3  H    0.335056
     4  O   -0.818765
     5  H    0.430271
     6  H    0.485659
 Sum of Mulliken charges =  -0.00000

 Dipole moment (field-independent basis, Debye):
    X=             -0.7366    Y=              5.1205    Z=              0.0000  Tot=              5.1732
 Quadrupole moment (field-independent basis, Debye-Ang):
   XX=             -9.6391   YY=            -10.1896   ZZ=            -14.9586
   XY=              3.8940   XZ=              0.0000   YZ=              0.0000

 33\MP4DQ=-33.8576302\MP4SDQ=-33.8599282\CCSD=-33.8606327\CCSD(T)=-33.8
 Normal termination of Gaussian 16 at Sun Dec 10 06:22:26 2023.
