 Gaussian 16, Revision A.03,
 Gaussian 16:  ES64L-G16RevA.03 25-Dec-2016

 ------------------
 #p CCSD(T)/CEP-31G
 ------------------

 -----------
 H2O_H2O_787
 -----------
 Symbolic Z-matrix:
 Charge =  0 Multiplicity = 1

                         Standard orientation:
 ---------------------------------------------------------------------
 Center     Atomic      Atomic             Coordinates (Angstroms)
 Number     Number       Type             X           Y           Z
 ---------------------------------------------------------------------
      1          8           0        0.056078    1.421003   -0.000000
      2          1           0        0.053722    0.438404   -0.000000
      3          1           0       -0.872648    1.741897   -0.000000
      4          8           0        0.056078   -1.242205    0.000000
      5          1           0        0.749214   -1.938673    0.000000
      6          1           0       -0.827538   -1.672007    0.000000
 ---------------------------------------------------------------------

 SCF Done:  E(RHF) =  -33.6605816292     A.U. after   11 cycles
 E2 =    -0.2291374951D+00 EUMP2 =    -0.33889719124288D+02
 CCSD(T)
 CCSD(T)= -0.33905891632D+02

 The electronic state is 1-A'.
 Alpha  occ. eigenvalues --   -1.39743  -1.30509  -0.75255  -0.69135  -0.59146
 Alpha  occ. eigenvalues --   -0.54439  -0.49790  -0.45071
 Alpha virt. eigenvalues --    0.17294   0.27061   0.27550   0.49164   0.74738
 Alpha virt. eigenvalues --    0.75888   0.85220   0.87644   0.96731   1.01375
 Alpha virt. eigenvalues --    1.14940   1.18567   1.22912   1.36579   2.58504

 Mulliken charges:
               1
     1  O   -0.778798
     2  H    0.434576
     3  H    0.338584
     4  O   -0.823036
     5  H    0.427644
     6  H    0.401031
 Sum of Mulliken charges =   0.00000

 Dipole moment (field-independent basis, Debye):
    X=             -2.4108    Y=             -4.8357    Z=              0.0000  Tot=              5.4033
 Quadrupole moment (field-independent basis, Debye-Ang):
   XX=             -9.5388   YY=             -9.1691   ZZ=            -15.0163
   XY=             -3.8925   XZ=              0.0000   YZ=             -0.0000

 217\MP4DQ=-33.8999767\MP4SDQ=-33.9021291\CCSD=-33.9030127\CCSD(T)=-33.
 Normal termination of Gaussian 16 at Sun Dec 10 06:33:19 2023.
