 Gaussian 16, Revision A.03,
 Gaussian 16:  ES64L-G16RevA.03 25-Dec-2016

 ------------------
 #p CCSD(T)/CEP-31G
 ------------------

 ------------
 H2O_H2O_4298
 ------------
 Symbolic Z-matrix:
 Charge =  0 Multiplicity = 1

                         Standard orientation:
 ---------------------------------------------------------------------
 Center     Atomic      Atomic             Coordinates (Angstroms)
 Number     Number       Type             X           Y           Z
 ---------------------------------------------------------------------
      1          8           0       -0.016586    2.808711    0.000000
      2          1           0       -0.014211    1.826113    0.000000
      3          1           0        0.912134    3.129623    0.000000
      4          8           0       -0.016586   -2.645305    0.000000
      5          1           0       -0.996926   -2.711939    0.000000
      6          1           0        0.364380   -3.551048    0.000000
 ---------------------------------------------------------------------

 SCF Done:  E(RHF) =  -33.6535501749     A.U. after   11 cycles
 E2 =    -0.2282836621D+00 EUMP2 =    -0.33881833837048D+02
 CCSD(T)
 CCSD(T)= -0.33898785965D+02

 The electronic state is 1-A'.
 Alpha  occ. eigenvalues --   -1.36289  -1.34756  -0.71931  -0.70396  -0.56122
 Alpha  occ. eigenvalues --   -0.54554  -0.50886  -0.49359
 Alpha virt. eigenvalues --    0.19536   0.21173   0.29826   0.31438   0.79666
 Alpha virt. eigenvalues --    0.81157   0.82495   0.84139   0.85673   0.87240
 Alpha virt. eigenvalues --    1.16687   1.18236   1.21120   1.22772   2.56627

 Mulliken charges:
               1
     1  O   -0.747986
     2  H    0.378037
     3  H    0.369929
     4  O   -0.747553
     5  H    0.373555
     6  H    0.374018
 Sum of Mulliken charges =   0.00000

 Dipole moment (field-independent basis, Debye):
    X=              0.7611    Y=             -3.8342    Z=              0.0000  Tot=              3.9090
 Quadrupole moment (field-independent basis, Debye-Ang):
   XX=             -9.7733   YY=             -6.7260   ZZ=            -14.9920
   XY=              9.8493   XZ=              0.0000   YZ=              0.0000

 4051\MP4DQ=-33.8931534\MP4SDQ=-33.895177\CCSD=-33.8962287\CCSD(T)=-33.
 Normal termination of Gaussian 16 at Sun Dec 10 06:50:22 2023.
