 Gaussian 16, Revision A.03,
 Gaussian 16:  ES64L-G16RevA.03 25-Dec-2016

 ------------------
 #p CCSD(T)/CEP-31G
 ------------------

 ------------
 H2O_H2O_3023
 ------------
 Symbolic Z-matrix:
 Charge =  0 Multiplicity = 1

                         Standard orientation:
 ---------------------------------------------------------------------
 Center     Atomic      Atomic             Coordinates (Angstroms)
 Number     Number       Type             X           Y           Z
 ---------------------------------------------------------------------
      1          8           0       -0.016631    2.300135    0.000000
      2          1           0       -0.013712    1.317538    0.000000
      3          1           0        0.911911    2.621562    0.000000
      4          8           0       -0.016631   -2.136747    0.000000
      5          1           0       -0.996934   -2.203925    0.000000
      6          1           0        0.364837   -3.042279    0.000000
 ---------------------------------------------------------------------

 SCF Done:  E(RHF) =  -33.6552755435     A.U. after   11 cycles
 E2 =    -0.2283017427D+00 EUMP2 =    -0.33883577286207D+02
 CCSD(T)
 CCSD(T)= -0.33900489545D+02

 The electronic state is 1-A'.
 Alpha  occ. eigenvalues --   -1.36688  -1.34255  -0.72340  -0.69899  -0.56621
 Alpha  occ. eigenvalues --   -0.54096  -0.51307  -0.48883
 Alpha virt. eigenvalues --    0.18618   0.22196   0.29480   0.32198   0.79255
 Alpha virt. eigenvalues --    0.81607   0.82464   0.84362   0.85647   0.87729
 Alpha virt. eigenvalues --    1.16291   1.19138   1.20740   1.25920   2.56231

 Mulliken charges:
               1
     1  O   -0.754958
     2  H    0.385240
     3  H    0.369055
     4  O   -0.753221
     5  H    0.376420
     6  H    0.377465
 Sum of Mulliken charges =  -0.00000

 Dipole moment (field-independent basis, Debye):
    X=              0.7570    Y=             -3.8951    Z=              0.0000  Tot=              3.9680
 Quadrupole moment (field-independent basis, Debye-Ang):
   XX=             -9.7666   YY=             -7.4529   ZZ=            -14.9953
   XY=              8.0501   XZ=              0.0000   YZ=              0.0000

 4\MP4DQ=-33.8948481\MP4SDQ=-33.8968836\CCSD=-33.8979237\CCSD(T)=-33.90
 Normal termination of Gaussian 16 at Sun Dec 10 06:27:28 2023.
