 Gaussian 16, Revision A.03,
 Gaussian 16:  ES64L-G16RevA.03 25-Dec-2016

 ------------------
 #p CCSD(T)/CEP-31G
 ------------------

 ------------
 H2O_H2O_2033
 ------------
 Symbolic Z-matrix:
 Charge =  0 Multiplicity = 1

                         Standard orientation:
 ---------------------------------------------------------------------
 Center     Atomic      Atomic             Coordinates (Angstroms)
 Number     Number       Type             X           Y           Z
 ---------------------------------------------------------------------
      1          8           0        0.070216    1.914931   -0.000000
      2          1           0        0.069161    0.932330   -0.000000
      3          1           0       -0.858934    2.234595    0.000000
      4          8           0        0.070216   -1.744715   -0.000000
      5          1           0        0.560603   -2.596200   -0.000000
      6          1           0       -0.894284   -1.932452    0.000000
 ---------------------------------------------------------------------

 SCF Done:  E(RHF) =  -33.6567073612     A.U. after   11 cycles
 E2 =    -0.2286334372D+00 EUMP2 =    -0.33885340798441D+02
 CCSD(T)
 CCSD(T)= -0.33902269388D+02

 The electronic state is 1-A'.
 Alpha  occ. eigenvalues --   -1.37392  -1.33461  -0.73075  -0.69065  -0.57481
 Alpha  occ. eigenvalues --   -0.53247  -0.52022  -0.48078
 Alpha virt. eigenvalues --    0.17818   0.23695   0.28891   0.34672   0.78312
 Alpha virt. eigenvalues --    0.82669   0.82866   0.85313   0.88961   0.90997
 Alpha virt. eigenvalues --    1.15562   1.19782   1.20416   1.33861   2.52424

 Mulliken charges:
               1
     1  O   -0.762532
     2  H    0.401974
     3  H    0.358352
     4  O   -0.759671
     5  H    0.387927
     6  H    0.373950
 Sum of Mulliken charges =  -0.00000

 Dipole moment (field-independent basis, Debye):
    X=             -3.1731    Y=             -4.1930    Z=              0.0000  Tot=              5.2584
 Quadrupole moment (field-independent basis, Debye-Ang):
   XX=            -10.0336   YY=             -7.8015   ZZ=            -14.9977
   XY=             -4.0460   XZ=             -0.0000   YZ=              0.0000

 8037\MP4DQ=-33.8965443\MP4SDQ=-33.8986275\CCSD=-33.8996532\CCSD(T)=-33
 Normal termination of Gaussian 16 at Sun Dec 10 06:57:14 2023.
