 Gaussian 16, Revision A.03,
 Gaussian 16:  ES64L-G16RevA.03 25-Dec-2016

 ------------------
 #p CCSD(T)/CEP-31G
 ------------------

 -----------
 H2O_H2O_970
 -----------
 Symbolic Z-matrix:
 Charge =  0 Multiplicity = 1

                         Standard orientation:
 ---------------------------------------------------------------------
 Center     Atomic      Atomic             Coordinates (Angstroms)
 Number     Number       Type             X           Y           Z
 ---------------------------------------------------------------------
      1          8           0        0.026792    1.487741    0.000000
      2          1           0        0.022776    0.505147    0.000000
      3          1           0       -0.901392    1.810203    0.000000
      4          8           0        0.026792   -1.314599   -0.000000
      5          1           0        0.974865   -1.572791   -0.000000
      6          1           0       -0.524914   -2.127695   -0.000000
 ---------------------------------------------------------------------

 SCF Done:  E(RHF) =  -33.6627333528     A.U. after   11 cycles
 E2 =    -0.2288321723D+00 EUMP2 =    -0.33891565525087D+02
 CCSD(T)
 CCSD(T)= -0.33908006123D+02

 The electronic state is 1-A'.
 Alpha  occ. eigenvalues --   -1.39060  -1.31139  -0.74781  -0.68231  -0.59401
 Alpha  occ. eigenvalues --   -0.53774  -0.50664  -0.45800
 Alpha virt. eigenvalues --    0.17622   0.26708   0.27851   0.45835   0.75351
 Alpha virt. eigenvalues --    0.77340   0.86274   0.86623   0.93007   1.04804
 Alpha virt. eigenvalues --    1.16173   1.18315   1.23302   1.36472   2.54017

 Mulliken charges:
               1
     1  O   -0.785427
     2  H    0.426525
     3  H    0.353267
     4  O   -0.814881
     5  H    0.401645
     6  H    0.418872
 Sum of Mulliken charges =   0.00000

 Dipole moment (field-independent basis, Debye):
    X=             -1.1924    Y=             -4.5919    Z=             -0.0000  Tot=              4.7442
 Quadrupole moment (field-independent basis, Debye-Ang):
   XX=             -9.4758   YY=             -8.8621   ZZ=            -15.0177
   XY=             -4.6985   XZ=             -0.0000   YZ=              0.0000

 64\MP4DQ=-33.902148\MP4SDQ=-33.9042748\CCSD=-33.9052128\CCSD(T)=-33.90
 Normal termination of Gaussian 16 at Sun Dec 10 06:36:45 2023.
