 Gaussian 16, Revision A.03,
 Gaussian 16:  ES64L-G16RevA.03 25-Dec-2016

 ------------------
 #p CCSD(T)/CEP-31G
 ------------------

 -----------
 H2O_H2O_332
 -----------
 Symbolic Z-matrix:
 Charge =  0 Multiplicity = 1

                         Standard orientation:
 ---------------------------------------------------------------------
 Center     Atomic      Atomic             Coordinates (Angstroms)
 Number     Number       Type             X           Y           Z
 ---------------------------------------------------------------------
      1          8           0        0.073596   -1.235007    0.000000
      2          1           0        0.072165   -0.252407    0.000000
      3          1           0       -0.855432   -1.555027    0.000000
      4          8           0        0.073596    1.068171    0.000000
      5          1           0        0.506905    1.950072    0.000000
      6          1           0       -0.901166    1.192052    0.000000
 ---------------------------------------------------------------------

 SCF Done:  E(RHF) =  -33.6336367572     A.U. after   11 cycles
 E2 =    -0.2285389271D+00 EUMP2 =    -0.33862175684291D+02
 CCSD(T)
 CCSD(T)= -0.33877679531D+02

 The electronic state is 1-A'.
 Alpha  occ. eigenvalues --   -1.42870  -1.29209  -0.79304  -0.72144  -0.57310
 Alpha  occ. eigenvalues --   -0.56810  -0.47565  -0.43455
 Alpha virt. eigenvalues --    0.16437   0.25154   0.28951   0.57403   0.73468
 Alpha virt. eigenvalues --    0.74973   0.86756   0.89856   0.96594   1.07050
 Alpha virt. eigenvalues --    1.13994   1.22858   1.24367   1.35673   2.84453

 Mulliken charges:
               1
     1  O   -0.733924
     2  H    0.367670
     3  H    0.316278
     4  O   -0.828314
     5  H    0.476993
     6  H    0.401297
 Sum of Mulliken charges =  -0.00000

 Dipole moment (field-independent basis, Debye):
    X=             -3.0448    Y=              5.0199    Z=              0.0000  Tot=              5.8711
 Quadrupole moment (field-independent basis, Debye-Ang):
   XX=            -10.1551   YY=             -9.9755   ZZ=            -14.9715
   XY=              3.1900   XZ=              0.0000   YZ=              0.0000

 2\MP4DQ=-33.8715229\MP4SDQ=-33.873853\CCSD=-33.8746013\CCSD(T)=-33.877
 Normal termination of Gaussian 16 at Sun Dec 10 06:24:36 2023.
