 Gaussian 16, Revision A.03,
 Gaussian 16:  ES64L-G16RevA.03 25-Dec-2016

 ------------------
 #p CCSD(T)/CEP-31G
 ------------------

 ------------
 H2O_H2O_4903
 ------------
 Symbolic Z-matrix:
 Charge =  0 Multiplicity = 1

                         Standard orientation:
 ---------------------------------------------------------------------
 Center     Atomic      Atomic             Coordinates (Angstroms)
 Number     Number       Type             X           Y           Z
 ---------------------------------------------------------------------
      1          8           0        0.085596   -3.050507    0.000000
      2          1           0        0.085386   -2.067905    0.000000
      3          1           0       -0.843829   -3.369371    0.000000
      4          8           0        0.085596    2.900898    0.000000
      5          1           0        0.277087    3.864660    0.000000
      6          1           0       -0.888178    2.769482    0.000000
 ---------------------------------------------------------------------

 SCF Done:  E(RHF) =  -33.6522380020     A.U. after   11 cycles
 E2 =    -0.2283482617D+00 EUMP2 =    -0.33880586263763D+02
 CCSD(T)
 CCSD(T)= -0.33897574712D+02

 The electronic state is 1-A'.
 Alpha  occ. eigenvalues --   -1.36218  -1.35079  -0.71862  -0.70701  -0.55981
 Alpha  occ. eigenvalues --   -0.54823  -0.50795  -0.49655
 Alpha virt. eigenvalues --    0.19558   0.20757   0.29823   0.31004   0.79763
 Alpha virt. eigenvalues --    0.80883   0.82727   0.83897   0.85814   0.87048
 Alpha virt. eigenvalues --    1.16704   1.17841   1.21156   1.22328   2.56694

 Mulliken charges:
               1
     1  O   -0.742918
     2  H    0.375145
     3  H    0.367772
     4  O   -0.743068
     5  H    0.373980
     6  H    0.369089
 Sum of Mulliken charges =  -0.00000

 Dipole moment (field-independent basis, Debye):
    X=             -3.9404    Y=              3.5037    Z=              0.0000  Tot=              5.2728
 Quadrupole moment (field-independent basis, Debye-Ang):
   XX=            -10.7994   YY=             -7.8293   ZZ=            -14.9891
   XY=              3.3977   XZ=              0.0000   YZ=              0.0000

 908\MP4DQ=-33.8919332\MP4SDQ=-33.8939597\CCSD=-33.8950143\CCSD(T)=-33.
 Normal termination of Gaussian 16 at Sun Dec 10 07:01:42 2023.
