 Gaussian 16, Revision A.03,
 Gaussian 16:  ES64L-G16RevA.03 25-Dec-2016

 ------------------
 #p CCSD(T)/CEP-31G
 ------------------

 ------------
 H2O_H2O_1937
 ------------
 Symbolic Z-matrix:
 Charge =  0 Multiplicity = 1

                         Standard orientation:
 ---------------------------------------------------------------------
 Center     Atomic      Atomic             Coordinates (Angstroms)
 Number     Number       Type             X           Y           Z
 ---------------------------------------------------------------------
      1          8           0        0.056023    1.879745   -0.000000
      2          1           0        0.054271    0.897145   -0.000000
      3          1           0       -0.872900    2.200068   -0.000000
      4          8           0        0.056023   -1.700878    0.000000
      5          1           0        0.749588   -2.396921    0.000000
      6          1           0       -0.827328   -2.131223    0.000000
 ---------------------------------------------------------------------

 SCF Done:  E(RHF) =  -33.6583754267     A.U. after   11 cycles
 E2 =    -0.2286401849D+00 EUMP2 =    -0.33887015611631D+02
 CCSD(T)
 CCSD(T)= -0.33903889966D+02

 The electronic state is 1-A'.
 Alpha  occ. eigenvalues --   -1.37454  -1.33061  -0.73110  -0.68711  -0.57677
 Alpha  occ. eigenvalues --   -0.52881  -0.52113  -0.47706
 Alpha virt. eigenvalues --    0.18061   0.24069   0.28917   0.35560   0.78160
 Alpha virt. eigenvalues --    0.82700   0.83074   0.85767   0.89405   0.90960
 Alpha virt. eigenvalues --    1.15614   1.20147   1.20373   1.33089   2.51393

 Mulliken charges:
               1
     1  O   -0.769071
     2  H    0.408145
     3  H    0.358707
     4  O   -0.764430
     5  H    0.388272
     6  H    0.378377
 Sum of Mulliken charges =  -0.00000

 Dipole moment (field-independent basis, Debye):
    X=             -2.5223    Y=             -4.4191    Z=              0.0000  Tot=              5.0883
 Quadrupole moment (field-independent basis, Debye-Ang):
   XX=             -9.5789   YY=             -7.5768   ZZ=            -15.0017
   XY=             -4.7034   XZ=              0.0000   YZ=             -0.0000

 268\MP4DQ=-33.8981676\MP4SDQ=-33.9002458\CCSD=-33.9012679\CCSD(T)=-33.
 Normal termination of Gaussian 16 at Sun Dec 10 06:55:27 2023.
