 Gaussian 16, Revision A.03,
 Gaussian 16:  ES64L-G16RevA.03 25-Dec-2016

 ------------------
 #p CCSD(T)/CEP-31G
 ------------------

 ------------
 H2O_H2O_3142
 ------------
 Symbolic Z-matrix:
 Charge =  0 Multiplicity = 1

                         Standard orientation:
 ---------------------------------------------------------------------
 Center     Atomic      Atomic             Coordinates (Angstroms)
 Number     Number       Type             X           Y           Z
 ---------------------------------------------------------------------
      1          8           0        0.037446    2.358451   -0.000000
      2          1           0        0.035369    1.375852   -0.000000
      3          1           0       -0.891372    2.679081   -0.000000
      4          8           0        0.037446   -2.179487    0.000000
      5          1           0        0.917794   -2.615942    0.000000
      6          1           0       -0.660924   -2.870707    0.000000
 ---------------------------------------------------------------------

 SCF Done:  E(RHF) =  -33.6551601552     A.U. after   11 cycles
 E2 =    -0.2283051043D+00 EUMP2 =    -0.33883465259505D+02
 CCSD(T)
 CCSD(T)= -0.33900374132D+02

 The electronic state is 1-A'.
 Alpha  occ. eigenvalues --   -1.36648  -1.34091  -0.72292  -0.69719  -0.56579
 Alpha  occ. eigenvalues --   -0.53920  -0.51268  -0.48713
 Alpha virt. eigenvalues --    0.18962   0.22150   0.29548   0.32287   0.79299
 Alpha virt. eigenvalues --    0.81770   0.82392   0.84655   0.85423   0.87909
 Alpha virt. eigenvalues --    1.16392   1.19169   1.20806   1.25028   2.56182

 Mulliken charges:
               1
     1  O   -0.754338
     2  H    0.387088
     3  H    0.366618
     4  O   -0.752197
     5  H    0.377593
     6  H    0.375237
 Sum of Mulliken charges =  -0.00000

 Dipole moment (field-independent basis, Debye):
    X=             -1.7077    Y=             -4.2628    Z=              0.0000  Tot=              4.5921
 Quadrupole moment (field-independent basis, Debye-Ang):
   XX=             -9.4112   YY=             -6.4190   ZZ=            -14.9954
   XY=             -6.7410   XZ=              0.0000   YZ=             -0.0000

 9832\MP4DQ=-33.8947375\MP4SDQ=-33.8967704\CCSD=-33.8978114\CCSD(T)=-33
 Normal termination of Gaussian 16 at Sun Dec 10 06:29:37 2023.
