 Gaussian 16, Revision A.03,
 Gaussian 16:  ES64L-G16RevA.03 25-Dec-2016

 ------------------
 #p CCSD(T)/CEP-31G
 ------------------

 ------------
 H2O_H2O_4893
 ------------
 Symbolic Z-matrix:
 Charge =  0 Multiplicity = 1

                         Standard orientation:
 ---------------------------------------------------------------------
 Center     Atomic      Atomic             Coordinates (Angstroms)
 Number     Number       Type             X           Y           Z
 ---------------------------------------------------------------------
      1          8           0        0.033743    3.055721   -0.000000
      2          1           0        0.032050    2.073121   -0.000000
      3          1           0       -0.895200    3.375988    0.000000
      4          8           0        0.033743   -2.878162   -0.000000
      5          1           0        0.940900   -3.255750   -0.000000
      6          1           0       -0.617636   -3.613832    0.000000
 ---------------------------------------------------------------------

 SCF Done:  E(RHF) =  -33.6531636811     A.U. after   11 cycles
 E2 =    -0.2283034823D+00 EUMP2 =    -0.33881467163351D+02
 CCSD(T)
 CCSD(T)= -0.33898428853D+02

 The electronic state is 1-A'.
 Alpha  occ. eigenvalues --   -1.36183  -1.34780  -0.71821  -0.70414  -0.55995
 Alpha  occ. eigenvalues --   -0.54562  -0.50775  -0.49375
 Alpha virt. eigenvalues --    0.19662   0.21100   0.29913   0.31377   0.79775
 Alpha virt. eigenvalues --    0.81147   0.82659   0.84135   0.85829   0.87240
 Alpha virt. eigenvalues --    1.16778   1.18182   1.21223   1.22665   2.56756

 Mulliken charges:
               1
     1  O   -0.746464
     2  H    0.377336
     3  H    0.369126
     4  O   -0.746009
     5  H    0.373534
     6  H    0.372477
 Sum of Mulliken charges =  -0.00000

 Dipole moment (field-independent basis, Debye):
    X=             -1.5511    Y=             -4.1544    Z=              0.0000  Tot=              4.4346
 Quadrupole moment (field-independent basis, Debye-Ang):
   XX=             -9.4381   YY=             -5.0158   ZZ=            -14.9914
   XY=             -8.9022   XZ=             -0.0000   YZ=              0.0000

 79\MP4DQ=-33.8927947\MP4SDQ=-33.8948187\CCSD=-33.8958715\CCSD(T)=-33.8
 Normal termination of Gaussian 16 at Sun Dec 10 07:01:22 2023.
