 Gaussian 16, Revision A.03,
 Gaussian 16:  ES64L-G16RevA.03 25-Dec-2016

 ------------------
 #p CCSD(T)/CEP-31G
 ------------------

 ------------
 H2O_H2O_2860
 ------------
 Symbolic Z-matrix:
 Charge =  0 Multiplicity = 1

                         Standard orientation:
 ---------------------------------------------------------------------
 Center     Atomic      Atomic             Coordinates (Angstroms)
 Number     Number       Type             X           Y           Z
 ---------------------------------------------------------------------
      1          8           0        0.063241    2.246875   -0.000000
      2          1           0        0.062073    1.264275   -0.000000
      3          1           0       -0.865872    2.566647   -0.000000
      4          8           0        0.063241   -2.071375    0.000000
      5          1           0        0.660483   -2.851635    0.000000
      6          1           0       -0.868540   -2.383291    0.000000
 ---------------------------------------------------------------------

 SCF Done:  E(RHF) =  -33.6549967009     A.U. after   11 cycles
 E2 =    -0.2283734735D+00 EUMP2 =    -0.33883370174474D+02
 CCSD(T)
 CCSD(T)= -0.33900290172D+02

 The electronic state is 1-A'.
 Alpha  occ. eigenvalues --   -1.36808  -1.34021  -0.72461  -0.69628  -0.56735
 Alpha  occ. eigenvalues --   -0.53826  -0.51423  -0.48633
 Alpha virt. eigenvalues --    0.18602   0.22370   0.29347   0.32489   0.79145
 Alpha virt. eigenvalues --    0.81862   0.82903   0.84864   0.85176   0.88134
 Alpha virt. eigenvalues --    1.16207   1.19312   1.20626   1.26584   2.55676

 Mulliken charges:
               1
     1  O   -0.753950
     2  H    0.389290
     3  H    0.363657
     4  O   -0.751778
     5  H    0.379879
     6  H    0.372903
 Sum of Mulliken charges =   0.00000

 Dipole moment (field-independent basis, Debye):
    X=             -2.8825    Y=             -4.2094    Z=             -0.0000  Tot=              5.1018
 Quadrupole moment (field-independent basis, Debye-Ang):
   XX=             -9.7773   YY=             -6.8692   ZZ=            -14.9948
   XY=             -4.8780   XZ=              0.0000   YZ=             -0.0000

 887\MP4DQ=-33.8946388\MP4SDQ=-33.8966814\CCSD=-33.8977192\CCSD(T)=-33.
 Normal termination of Gaussian 16 at Sun Dec 10 06:24:28 2023.
