 Gaussian 16, Revision A.03,
 Gaussian 16:  ES64L-G16RevA.03 25-Dec-2016

 ------------------
 #p CCSD(T)/CEP-31G
 ------------------

 ------------
 H2O_H2O_4615
 ------------
 Symbolic Z-matrix:
 Charge =  0 Multiplicity = 1

                         Standard orientation:
 ---------------------------------------------------------------------
 Center     Atomic      Atomic             Coordinates (Angstroms)
 Number     Number       Type             X           Y           Z
 ---------------------------------------------------------------------
      1          8           0        0.044824    2.947590    0.000000
      2          1           0        0.043395    1.964990    0.000000
      3          1           0       -0.884205    3.267608   -0.000000
      4          8           0        0.044824   -2.767156    0.000000
      5          1           0        0.861033   -3.314247    0.000000
      6          1           0       -0.737402   -3.361823   -0.000000
 ---------------------------------------------------------------------

 SCF Done:  E(RHF) =  -33.6532595750     A.U. after   11 cycles
 E2 =    -0.2283017870D+00 EUMP2 =    -0.33881561362070D+02
 CCSD(T)
 CCSD(T)= -0.33898520012D+02

 The electronic state is 1-A'.
 Alpha  occ. eigenvalues --   -1.36234  -1.34688  -0.71873  -0.70318  -0.56053
 Alpha  occ. eigenvalues --   -0.54471  -0.50828  -0.49283
 Alpha virt. eigenvalues --    0.19609   0.21209   0.29867   0.31489   0.79725
 Alpha virt. eigenvalues --    0.81235   0.82587   0.84226   0.85772   0.87340
 Alpha virt. eigenvalues --    1.16731   1.18278   1.21175   1.22777   2.56704

 Mulliken charges:
               1
     1  O   -0.746856
     2  H    0.378480
     3  H    0.368368
     4  O   -0.746334
     5  H    0.374177
     6  H    0.372165
 Sum of Mulliken charges =  -0.00000

 Dipole moment (field-independent basis, Debye):
    X=             -2.0592    Y=             -4.2289    Z=             -0.0000  Tot=              4.7036
 Quadrupole moment (field-independent basis, Debye-Ang):
   XX=             -9.4288   YY=             -5.0002   ZZ=            -14.9916
   XY=             -7.5760   XZ=              0.0000   YZ=             -0.0000

 1393\MP4DQ=-33.8928864\MP4SDQ=-33.8949103\CCSD=-33.8959627\CCSD(T)=-33
 Normal termination of Gaussian 16 at Sun Dec 10 06:56:04 2023.
