 Gaussian 16, Revision A.03,
 Gaussian 16:  ES64L-G16RevA.03 25-Dec-2016

 ------------------
 #p CCSD(T)/CEP-31G
 ------------------

 -----------
 H2O_H2O_846
 -----------
 Symbolic Z-matrix:
 Charge =  0 Multiplicity = 1

                         Standard orientation:
 ---------------------------------------------------------------------
 Center     Atomic      Atomic             Coordinates (Angstroms)
 Number     Number       Type             X           Y           Z
 ---------------------------------------------------------------------
      1          8           0       -0.023362    1.436341    0.000000
      2          1           0       -0.018982    0.453749    0.000000
      3          1           0        0.904701    1.759147    0.000000
      4          8           0       -0.023362   -1.266038    0.000000
      5          1           0       -0.986220   -1.462027    0.000000
      6          1           0        0.474298   -2.113292    0.000000
 ---------------------------------------------------------------------

 SCF Done:  E(RHF) =  -33.6614643742     A.U. after   11 cycles
 E2 =    -0.2287070490D+00 EUMP2 =    -0.33890171423197D+02
 CCSD(T)
 CCSD(T)= -0.33906493944D+02

 The electronic state is 1-A'.
 Alpha  occ. eigenvalues --   -1.39480  -1.30822  -0.75315  -0.68473  -0.59485
 Alpha  occ. eigenvalues --   -0.54156  -0.50215  -0.45463
 Alpha virt. eigenvalues --    0.17536   0.27018   0.27626   0.47817   0.74915
 Alpha virt. eigenvalues --    0.76845   0.86374   0.87239   0.93171   1.05549
 Alpha virt. eigenvalues --    1.16127   1.19725   1.24031   1.37086   2.57053

 Mulliken charges:
               1
     1  O   -0.782044
     2  H    0.419767
     3  H    0.352384
     4  O   -0.823323
     5  H    0.404127
     6  H    0.429090
 Sum of Mulliken charges =  -0.00000

 Dipole moment (field-independent basis, Debye):
    X=              1.0416    Y=             -4.6018    Z=              0.0000  Tot=              4.7182
 Quadrupole moment (field-independent basis, Debye-Ang):
   XX=             -9.5401   YY=             -9.0577   ZZ=            -15.0173
   XY=              4.6299   XZ=              0.0000   YZ=              0.0000

 295\MP4DQ=-33.9006057\MP4SDQ=-33.9027512\CCSD=-33.9036668\CCSD(T)=-33.
 Normal termination of Gaussian 16 at Sun Dec 10 06:34:26 2023.
