 Gaussian 16, Revision A.03,
 Gaussian 16:  ES64L-G16RevA.03 25-Dec-2016

 ------------------
 #p CCSD(T)/CEP-31G
 ------------------

 -----------
 H2O_H2O_164
 -----------
 Symbolic Z-matrix:
 Charge =  0 Multiplicity = 1

                         Standard orientation:
 ---------------------------------------------------------------------
 Center     Atomic      Atomic             Coordinates (Angstroms)
 Number     Number       Type             X           Y           Z
 ---------------------------------------------------------------------
      1          8           0        0.048749    1.172477   -0.000000
      2          1           0        0.045270    0.189882   -0.000000
      3          1           0       -0.879609    1.494433   -0.000000
      4          8           0        0.048749   -0.992268    0.000000
      5          1           0        0.826176   -1.593195    0.000000
      6          1           0       -0.771825   -1.532790    0.000000
 ---------------------------------------------------------------------

 SCF Done:  E(RHF) =  -33.6177230303     A.U. after   11 cycles
 E2 =    -0.2280052583D+00 EUMP2 =    -0.33845728288557D+02
 CCSD(T)
 CCSD(T)= -0.33860411063D+02

 The electronic state is 1-A'.
 Alpha  occ. eigenvalues --   -1.44621  -1.27158  -0.78516  -0.77794  -0.58280
 Alpha  occ. eigenvalues --   -0.55263  -0.44532  -0.41210
 Alpha virt. eigenvalues --    0.16371   0.25397   0.29984   0.61385   0.73326
 Alpha virt. eigenvalues --    0.73369   0.86158   0.91508   0.92412   1.06073
 Alpha virt. eigenvalues --    1.12917   1.16218   1.28347   1.35028   2.90592

 Mulliken charges:
               1
     1  O   -0.753165
     2  H    0.345089
     3  H    0.308889
     4  O   -0.798757
     5  H    0.457709
     6  H    0.440236
 Sum of Mulliken charges =  -0.00000

 Dipole moment (field-independent basis, Debye):
    X=             -1.9851    Y=             -5.6134    Z=              0.0000  Tot=              5.9540
 Quadrupole moment (field-independent basis, Debye-Ang):
   XX=             -9.3336   YY=            -10.5664   ZZ=            -14.9519
   XY=             -3.3869   XZ=              0.0000   YZ=             -0.0000

 \MP4DQ=-33.8542584\MP4SDQ=-33.8565736\CCSD=-33.8571924\CCSD(T)=-33.860
 Normal termination of Gaussian 16 at Sun Dec 10 06:21:16 2023.
