 Gaussian 16, Revision A.03,
 Gaussian 16:  ES64L-G16RevA.03 25-Dec-2016

 ------------------
 #p CCSD(T)/CEP-31G
 ------------------

 ------------
 H2O_H2O_1308
 ------------
 Symbolic Z-matrix:
 Charge =  0 Multiplicity = 1

                         Standard orientation:
 ---------------------------------------------------------------------
 Center     Atomic      Atomic             Coordinates (Angstroms)
 Number     Number       Type             X           Y           Z
 ---------------------------------------------------------------------
      1          8           0        0.070233    1.625731   -0.000000
      2          1           0        0.068980    0.643130   -0.000000
      3          1           0       -0.858853    1.945583   -0.000000
      4          8           0        0.070233   -1.455543    0.000000
      5          1           0        0.560448   -2.307127    0.000000
      6          1           0       -0.894305   -1.643087    0.000000
 ---------------------------------------------------------------------

 SCF Done:  E(RHF) =  -33.6593931297     A.U. after   11 cycles
 E2 =    -0.2289743152D+00 EUMP2 =    -0.33888367444923D+02
 CCSD(T)
 CCSD(T)= -0.33905171811D+02

 The electronic state is 1-A'.
 Alpha  occ. eigenvalues --   -1.38347  -1.32392  -0.74094  -0.68333  -0.58682
 Alpha  occ. eigenvalues --   -0.53002  -0.52054  -0.47002
 Alpha virt. eigenvalues --    0.17473   0.25368   0.28156   0.40547   0.76483
 Alpha virt. eigenvalues --    0.79770   0.84787   0.85393   0.91938   1.04779
 Alpha virt. eigenvalues --    1.14999   1.18324   1.21491   1.36365   2.50151

 Mulliken charges:
               1
     1  O   -0.772700
     2  H    0.421088
     3  H    0.349395
     4  O   -0.786187
     5  H    0.408894
     6  H    0.379510
 Sum of Mulliken charges =   0.00000

 Dipole moment (field-independent basis, Debye):
    X=             -3.1127    Y=             -4.3767    Z=              0.0000  Tot=              5.3707
 Quadrupole moment (field-independent basis, Debye-Ang):
   XX=            -10.0338   YY=             -8.4761   ZZ=            -15.0053
   XY=             -3.7492   XZ=              0.0000   YZ=             -0.0000

 6333\MP4DQ=-33.899337\MP4SDQ=-33.9014651\CCSD=-33.9024582\CCSD(T)=-33.
 Normal termination of Gaussian 16 at Sun Dec 10 06:43:16 2023.
