 Gaussian 16, Revision A.03,
 Gaussian 16:  ES64L-G16RevA.03 25-Dec-2016

 ------------------
 #p CCSD(T)/CEP-31G
 ------------------

 -----------
 H2O_H2O_974
 -----------
 Symbolic Z-matrix:
 Charge =  0 Multiplicity = 1

                         Standard orientation:
 ---------------------------------------------------------------------
 Center     Atomic      Atomic             Coordinates (Angstroms)
 Number     Number       Type             X           Y           Z
 ---------------------------------------------------------------------
      1          8           0        0.013668   -1.480177    0.000000
      2          1           0        0.008856   -0.497587    0.000000
      3          1           0       -0.914254   -1.803391    0.000000
      4          8           0        0.013668    1.320966    0.000000
      5          1           0        0.996258    1.325777    0.000000
      6          1           0       -0.309546    2.248887    0.000000
 ---------------------------------------------------------------------

 SCF Done:  E(RHF) =  -33.6605900835     A.U. after   11 cycles
 E2 =    -0.2286011085D+00 EUMP2 =    -0.33889191192079D+02
 CCSD(T)
 CCSD(T)= -0.33905786855D+02

 The electronic state is 1-A'.
 Alpha  occ. eigenvalues --   -1.39079  -1.31649  -0.75166  -0.68128  -0.59477
 Alpha  occ. eigenvalues --   -0.53712  -0.51191  -0.46319
 Alpha virt. eigenvalues --    0.17568   0.26467   0.27845   0.45078   0.75280
 Alpha virt. eigenvalues --    0.78245   0.86297   0.86407   0.90912   1.10623
 Alpha virt. eigenvalues --    1.15834   1.21158   1.24727   1.36976   2.54556

 Mulliken charges:
               1
     1  O   -0.778236
     2  H    0.406373
     3  H    0.360529
     4  O   -0.811458
     5  H    0.396710
     6  H    0.426083
 Sum of Mulliken charges =   0.00000

 Dipole moment (field-independent basis, Debye):
    X=             -0.6127    Y=              4.2546    Z=              0.0000  Tot=              4.2985
 Quadrupole moment (field-independent basis, Debye-Ang):
   XX=             -9.8348   YY=             -8.9996   ZZ=            -15.0124
   XY=              5.2196   XZ=              0.0000   YZ=              0.0000

 042\MP4DQ=-33.8998998\MP4SDQ=-33.9020614\CCSD=-33.9030144\CCSD(T)=-33.
 Normal termination of Gaussian 16 at Sun Dec 10 06:36:50 2023.
