 Gaussian 16, Revision A.03,
 Gaussian 16:  ES64L-G16RevA.03 25-Dec-2016

 ------------------
 #p CCSD(T)/CEP-31G
 ------------------

 ------------
 H2O_H2O_2941
 ------------
 Symbolic Z-matrix:
 Charge =  0 Multiplicity = 1

                         Standard orientation:
 ---------------------------------------------------------------------
 Center     Atomic      Atomic             Coordinates (Angstroms)
 Number     Number       Type             X           Y           Z
 ---------------------------------------------------------------------
      1          8           0        0.041147    2.279194   -0.000000
      2          1           0        0.039138    1.296595   -0.000000
      3          1           0       -0.887693    2.599760    0.000000
      4          8           0        0.041147   -2.099275   -0.000000
      5          1           0        0.891098   -2.592314   -0.000000
      6          1           0       -0.700892   -2.743391    0.000000
 ---------------------------------------------------------------------

 SCF Done:  E(RHF) =  -33.6555541266     A.U. after   11 cycles
 E2 =    -0.2283302517D+00 EUMP2 =    -0.33883884378342D+02
 CCSD(T)
 CCSD(T)= -0.33900786198D+02

 The electronic state is 1-A'.
 Alpha  occ. eigenvalues --   -1.36744  -1.33951  -0.72389  -0.69576  -0.56701
 Alpha  occ. eigenvalues --   -0.53785  -0.51369  -0.48577
 Alpha virt. eigenvalues --    0.18804   0.22387   0.29480   0.32500   0.79197
 Alpha virt. eigenvalues --    0.81903   0.82746   0.84646   0.85425   0.88038
 Alpha virt. eigenvalues --    1.16310   1.19383   1.20731   1.25980   2.55813

 Mulliken charges:
               1
     1  O   -0.756011
     2  H    0.389359
     3  H    0.365713
     4  O   -0.753201
     5  H    0.378635
     6  H    0.375504
 Sum of Mulliken charges =   0.00000

 Dipole moment (field-independent basis, Debye):
    X=             -1.8738    Y=             -4.3044    Z=              0.0000  Tot=              4.6946
 Quadrupole moment (field-independent basis, Debye-Ang):
   XX=             -9.4078   YY=             -6.5451   ZZ=            -14.9961
   XY=             -6.3075   XZ=             -0.0000   YZ=              0.0000

 884\MP4DQ=-33.8951433\MP4SDQ=-33.8971818\CCSD=-33.8982196\CCSD(T)=-33.
 Normal termination of Gaussian 16 at Sun Dec 10 06:25:56 2023.
