 Gaussian 16, Revision A.03,
 Gaussian 16:  ES64L-G16RevA.03 25-Dec-2016

 ------------------
 #p CCSD(T)/CEP-31G
 ------------------

 ------------
 H2O_H2O_2660
 ------------
 Symbolic Z-matrix:
 Charge =  0 Multiplicity = 1

                         Standard orientation:
 ---------------------------------------------------------------------
 Center     Atomic      Atomic             Coordinates (Angstroms)
 Number     Number       Type             X           Y           Z
 ---------------------------------------------------------------------
      1          8           0        0.063245    2.167097    0.000000
      2          1           0        0.062032    1.184496    0.000000
      3          1           0       -0.865854    2.486910    0.000000
      4          8           0        0.063245   -1.991602    0.000000
      5          1           0        0.660453   -2.771890    0.000000
      6          1           0       -0.868549   -2.303477    0.000000
 ---------------------------------------------------------------------

 SCF Done:  E(RHF) =  -33.6554460862     A.U. after   11 cycles
 E2 =    -0.2284118243D+00 EUMP2 =    -0.33883857910522D+02
 CCSD(T)
 CCSD(T)= -0.33900773999D+02

 The electronic state is 1-A'.
 Alpha  occ. eigenvalues --   -1.36920  -1.33880  -0.72576  -0.69485  -0.56880
 Alpha  occ. eigenvalues --   -0.53689  -0.51541  -0.48496
 Alpha virt. eigenvalues --    0.18421   0.22648   0.29265   0.32805   0.79015
 Alpha virt. eigenvalues --    0.82010   0.83454   0.84889   0.85346   0.88272
 Alpha virt. eigenvalues --    1.16101   1.19520   1.20545   1.28021   2.55088

 Mulliken charges:
               1
     1  O   -0.755997
     2  H    0.391861
     3  H    0.362780
     4  O   -0.753106
     5  H    0.381073
     6  H    0.373389
 Sum of Mulliken charges =  -0.00000

 Dipole moment (field-independent basis, Debye):
    X=             -2.8779    Y=             -4.2311    Z=              0.0000  Tot=              5.1171
 Quadrupole moment (field-independent basis, Debye-Ang):
   XX=             -9.7776   YY=             -7.0363   ZZ=            -14.9956
   XY=             -4.7668   XZ=              0.0000   YZ=              0.0000

 603\MP4DQ=-33.8951118\MP4SDQ=-33.8971621\CCSD=-33.8981966\CCSD(T)=-33.
 Normal termination of Gaussian 16 at Sun Dec 10 06:20:53 2023.
