 Gaussian 16, Revision A.03,
 Gaussian 16:  ES64L-G16RevA.03 25-Dec-2016

 ------------------
 #p CCSD(T)/CEP-31G
 ------------------

 ------------
 H2O_H2O_1098
 ------------
 Symbolic Z-matrix:
 Charge =  0 Multiplicity = 1

                         Standard orientation:
 ---------------------------------------------------------------------
 Center     Atomic      Atomic             Coordinates (Angstroms)
 Number     Number       Type             X           Y           Z
 ---------------------------------------------------------------------
      1          8           0       -0.016760    1.532275    0.000000
      2          1           0       -0.012295    0.549684    0.000000
      3          1           0        0.911276    1.855162    0.000000
      4          8           0       -0.016760   -1.368940    0.000000
      5          1           0       -0.996955   -1.437659    0.000000
      6          1           0        0.366133   -2.273871    0.000000
 ---------------------------------------------------------------------

 SCF Done:  E(RHF) =  -33.6616633537     A.U. after   11 cycles
 E2 =    -0.2286912069D+00 EUMP2 =    -0.33890354560630D+02
 CCSD(T)
 CCSD(T)= -0.33907011837D+02

 The electronic state is 1-A'.
 Alpha  occ. eigenvalues --   -1.38720  -1.31844  -0.74623  -0.68145  -0.59238
 Alpha  occ. eigenvalues --   -0.53393  -0.51483  -0.46527
 Alpha virt. eigenvalues --    0.17635   0.26208   0.28037   0.43380   0.75744
 Alpha virt. eigenvalues --    0.78620   0.85759   0.86399   0.90785   1.09518
 Alpha virt. eigenvalues --    1.16458   1.18729   1.22984   1.36850   2.52593

 Mulliken charges:
               1
     1  O   -0.782032
     2  H    0.414579
     3  H    0.360397
     4  O   -0.805078
     5  H    0.394651
     6  H    0.417484
 Sum of Mulliken charges =   0.00000

 Dipole moment (field-independent basis, Debye):
    X=              0.7510    Y=             -4.2904    Z=              0.0000  Tot=              4.3557
 Quadrupole moment (field-independent basis, Debye-Ang):
   XX=             -9.7342   YY=             -8.8061   ZZ=            -15.0128
   XY=              5.2643   XZ=              0.0000   YZ=              0.0000

 2\MP4DQ=-33.9011579\MP4SDQ=-33.9032974\CCSD=-33.9042669\CCSD(T)=-33.90
 Normal termination of Gaussian 16 at Sun Dec 10 06:39:10 2023.
