 Gaussian 16, Revision A.03,
 Gaussian 16:  ES64L-G16RevA.03 25-Dec-2016

 ------------------
 #p CCSD(T)/CEP-31G
 ------------------

 -----------
 H2O_H2O_116
 -----------
 Symbolic Z-matrix:
 Charge =  0 Multiplicity = 1

                         Standard orientation:
 ---------------------------------------------------------------------
 Center     Atomic      Atomic             Coordinates (Angstroms)
 Number     Number       Type             X           Y           Z
 ---------------------------------------------------------------------
      1          8           0        0.041342    1.152281   -0.000000
      2          1           0        0.037202    0.169688   -0.000000
      3          1           0       -0.886801    1.474860   -0.000000
      4          8           0        0.041342   -0.972541    0.000000
      5          1           0        0.890223   -1.467422    0.000000
      6          1           0       -0.702092   -1.615047    0.000000
 ---------------------------------------------------------------------

 SCF Done:  E(RHF) =  -33.6082166259     A.U. after   11 cycles
 E2 =    -0.2276040743D+00 EUMP2 =    -0.33835820700196D+02
 CCSD(T)
 CCSD(T)= -0.33850371668D+02

 The electronic state is 1-A'.
 Alpha  occ. eigenvalues --   -1.45339  -1.26749  -0.79693  -0.78061  -0.58737
 Alpha  occ. eigenvalues --   -0.54825  -0.43797  -0.40733
 Alpha virt. eigenvalues --    0.16349   0.25191   0.30257   0.62013   0.73286
 Alpha virt. eigenvalues --    0.73454   0.85863   0.91861   0.92070   1.05266
 Alpha virt. eigenvalues --    1.13591   1.16614   1.29640   1.35730   2.92823

 Mulliken charges:
               1
     1  O   -0.752304
     2  H    0.319563
     3  H    0.308789
     4  O   -0.783154
     5  H    0.453083
     6  H    0.454023
 Sum of Mulliken charges =   0.00000

 Dipole moment (field-independent basis, Debye):
    X=             -1.6906    Y=             -5.7018    Z=              0.0000  Tot=              5.9471
 Quadrupole moment (field-independent basis, Debye-Ang):
   XX=             -9.2638   YY=            -10.6747   ZZ=            -14.9393
   XY=             -3.3637   XZ=              0.0000   YZ=             -0.0000

 12\MP4DQ=-33.8442114\MP4SDQ=-33.846536\CCSD=-33.847133\CCSD(T)=-33.850
 Normal termination of Gaussian 16 at Sun Dec 10 06:20:19 2023.
