 Gaussian 16, Revision A.03,
 Gaussian 16:  ES64L-G16RevA.03 25-Dec-2016

 ------------------
 #p CCSD(T)/CEP-31G
 ------------------

 ------------
 H2O_H2O_2299
 ------------
 Symbolic Z-matrix:
 Charge =  0 Multiplicity = 1

                         Standard orientation:
 ---------------------------------------------------------------------
 Center     Atomic      Atomic             Coordinates (Angstroms)
 Number     Number       Type             X           Y           Z
 ---------------------------------------------------------------------
      1          8           0       -0.013561    2.008703    0.000000
      2          1           0       -0.010067    1.026108    0.000000
      3          1           0        0.914793    2.330672    0.000000
      4          8           0       -0.013561   -1.849456    0.000000
      5          1           0       -0.996156   -1.852949    0.000000
      6          1           0        0.308408   -2.777810    0.000000
 ---------------------------------------------------------------------

 SCF Done:  E(RHF) =  -33.6570624120     A.U. after   11 cycles
 E2 =    -0.2284414888D+00 EUMP2 =    -0.33885503900780D+02
 CCSD(T)
 CCSD(T)= -0.33902411710D+02

 The electronic state is 1-A'.
 Alpha  occ. eigenvalues --   -1.37104  -1.33829  -0.72783  -0.69488  -0.57170
 Alpha  occ. eigenvalues --   -0.53697  -0.51743  -0.48484
 Alpha virt. eigenvalues --    0.17844   0.23349   0.29216   0.33509   0.78700
 Alpha virt. eigenvalues --    0.82124   0.82798   0.85131   0.87742   0.89025
 Alpha virt. eigenvalues --    1.15890   1.19755   1.20530   1.32544   2.54599

 Mulliken charges:
               1
     1  O   -0.763537
     2  H    0.393094
     3  H    0.368560
     4  O   -0.759794
     5  H    0.379254
     6  H    0.382424
 Sum of Mulliken charges =   0.00000

 Dipole moment (field-independent basis, Debye):
    X=              0.6117    Y=             -3.8697    Z=              0.0000  Tot=              3.9178
 Quadrupole moment (field-independent basis, Debye-Ang):
   XX=             -9.8628   YY=             -8.0834   ZZ=            -14.9983
   XY=              7.2350   XZ=              0.0000   YZ=              0.0000

 MP4DQ=-33.8967226\MP4SDQ=-33.8987898\CCSD=-33.8998176\CCSD(T)=-33.9024
 Normal termination of Gaussian 16 at Sun Dec 10 07:03:44 2023.
