 Gaussian 16, Revision A.03,
 Gaussian 16:  ES64L-G16RevA.03 25-Dec-2016

 ------------------
 #p CCSD(T)/CEP-31G
 ------------------

 ------------
 H2O_H2O_3972
 ------------
 Symbolic Z-matrix:
 Charge =  0 Multiplicity = 1

                         Standard orientation:
 ---------------------------------------------------------------------
 Center     Atomic      Atomic             Coordinates (Angstroms)
 Number     Number       Type             X           Y           Z
 ---------------------------------------------------------------------
      1          8           0       -0.019831    2.681092    0.000000
      2          1           0       -0.017443    1.698493    0.000000
      3          1           0        0.908885    3.002016    0.000000
      4          8           0       -0.019831   -2.513974    0.000000
      5          1           0       -0.993712   -2.644596    0.000000
      6          1           0        0.419570   -3.392856    0.000000
 ---------------------------------------------------------------------

 SCF Done:  E(RHF) =  -33.6538872714     A.U. after   11 cycles
 E2 =    -0.2282761612D+00 EUMP2 =    -0.33882163432617D+02
 CCSD(T)
 CCSD(T)= -0.33899105938D+02

 The electronic state is 1-A'.
 Alpha  occ. eigenvalues --   -1.36364  -1.34616  -0.72006  -0.70255  -0.56217
 Alpha  occ. eigenvalues --   -0.54423  -0.50965  -0.49224
 Alpha virt. eigenvalues --    0.19426   0.21372   0.29759   0.31625   0.79590
 Alpha virt. eigenvalues --    0.81284   0.82367   0.84263   0.85587   0.87386
 Alpha virt. eigenvalues --    1.16624   1.18412   1.21038   1.23070   2.56561

 Mulliken charges:
               1
     1  O   -0.749304
     2  H    0.379773
     3  H    0.369470
     4  O   -0.748671
     5  H    0.374278
     6  H    0.374455
 Sum of Mulliken charges =  -0.00000

 Dipole moment (field-independent basis, Debye):
    X=              0.9086    Y=             -3.9321    Z=              0.0000  Tot=              4.0357
 Quadrupole moment (field-independent basis, Debye-Ang):
   XX=             -9.6786   YY=             -6.6137   ZZ=            -14.9927
   XY=              9.0877   XZ=              0.0000   YZ=              0.0000

 5\MP4DQ=-33.8934747\MP4SDQ=-33.8954984\CCSD=-33.8965487\CCSD(T)=-33.89
 Normal termination of Gaussian 16 at Sun Dec 10 06:44:29 2023.
