 Gaussian 16, Revision A.03,
 Gaussian 16:  ES64L-G16RevA.03 25-Dec-2016

 ------------------
 #p CCSD(T)/CEP-31G
 ------------------

 ------------
 H2O_H2O_3602
 ------------
 Symbolic Z-matrix:
 Charge =  0 Multiplicity = 1

                         Standard orientation:
 ---------------------------------------------------------------------
 Center     Atomic      Atomic             Coordinates (Angstroms)
 Number     Number       Type             X           Y           Z
 ---------------------------------------------------------------------
      1          8           0        0.088231   -2.529095    0.000000
      2          1           0        0.088068   -1.546494    0.000000
      3          1           0       -0.841209   -2.847916    0.000000
      4          8           0        0.088231    2.384773    0.000000
      5          1           0        0.216324    3.358990    0.000000
      6          1           0       -0.874873    2.189996    0.000000
 ---------------------------------------------------------------------

 SCF Done:  E(RHF) =  -33.6525005820     A.U. after   11 cycles
 E2 =    -0.2283598083D+00 EUMP2 =    -0.33880860390341D+02
 CCSD(T)
 CCSD(T)= -0.33897843271D+02

 The electronic state is 1-A'.
 Alpha  occ. eigenvalues --   -1.36534  -1.34890  -0.72192  -0.70497  -0.56318
 Alpha  occ. eigenvalues --   -0.54632  -0.51112  -0.49465
 Alpha virt. eigenvalues --    0.18787   0.21322   0.29525   0.31280   0.79461
 Alpha virt. eigenvalues --    0.81067   0.82345   0.84073   0.85423   0.87423
 Alpha virt. eigenvalues --    1.16277   1.18218   1.20846   1.23220   2.56061

 Mulliken charges:
               1
     1  O   -0.743999
     2  H    0.378240
     3  H    0.365646
     4  O   -0.744473
     5  H    0.376725
     6  H    0.367862
 Sum of Mulliken charges =  -0.00000

 Dipole moment (field-independent basis, Debye):
    X=             -4.0465    Y=              3.4154    Z=              0.0000  Tot=              5.2952
 Quadrupole moment (field-independent basis, Debye-Ang):
   XX=            -10.9715   YY=             -8.6514   ZZ=            -14.9892
   XY=              2.9093   XZ=              0.0000   YZ=              0.0000

 59\MP4DQ=-33.8921984\MP4SDQ=-33.8942278\CCSD=-33.8952791\CCSD(T)=-33.8
 Normal termination of Gaussian 16 at Sun Dec 10 06:37:49 2023.
