 Gaussian 16, Revision A.03,
 Gaussian 16:  ES64L-G16RevA.03 25-Dec-2016

 ------------------
 #p CCSD(T)/CEP-31G
 ------------------

 ------------
 H2O_H2O_4033
 ------------
 Symbolic Z-matrix:
 Charge =  0 Multiplicity = 1

                         Standard orientation:
 ---------------------------------------------------------------------
 Center     Atomic      Atomic             Coordinates (Angstroms)
 Number     Number       Type             X           Y           Z
 ---------------------------------------------------------------------
      1          8           0        0.070188    2.712708    0.000000
      2          1           0        0.069453    1.730107    0.000000
      3          1           0       -0.859066    3.032070    0.000000
      4          8           0        0.070188   -2.542447   -0.000000
      5          1           0        0.560853   -3.393772   -0.000000
      6          1           0       -0.894251   -2.730499   -0.000000
 ---------------------------------------------------------------------

 SCF Done:  E(RHF) =  -33.6531520870     A.U. after   11 cycles
 E2 =    -0.2283154534D+00 EUMP2 =    -0.33881467540396D+02
 CCSD(T)
 CCSD(T)= -0.33898429225D+02

 The electronic state is 1-A'.
 Alpha  occ. eigenvalues --   -1.36378  -1.34652  -0.72024  -0.70272  -0.56194
 Alpha  occ. eigenvalues --   -0.54423  -0.50969  -0.49242
 Alpha virt. eigenvalues --    0.19390   0.21294   0.29702   0.31552   0.79592
 Alpha virt. eigenvalues --    0.81276   0.82425   0.84289   0.85594   0.87461
 Alpha virt. eigenvalues --    1.16582   1.18325   1.21003   1.22970   2.56545

 Mulliken charges:
               1
     1  O   -0.746481
     2  H    0.379809
     3  H    0.366622
     4  O   -0.746256
     5  H    0.375667
     6  H    0.370639
 Sum of Mulliken charges =  -0.00000

 Dipole moment (field-independent basis, Debye):
    X=             -3.2209    Y=             -4.0097    Z=             -0.0000  Tot=              5.1431
 Quadrupole moment (field-independent basis, Debye-Ang):
   XX=            -10.0251   YY=             -6.3432   ZZ=            -14.9912
   XY=             -4.8969   XZ=             -0.0000   YZ=              0.0000

 047\MP4DQ=-33.8927932\MP4SDQ=-33.8948185\CCSD=-33.8958701\CCSD(T)=-33.
 Normal termination of Gaussian 16 at Sun Dec 10 06:45:35 2023.
