 Gaussian 16, Revision A.03,
 Gaussian 16:  ES64L-G16RevA.03 25-Dec-2016

 ------------------
 #p CCSD(T)/CEP-31G
 ------------------

 ------------
 H2O_H2O_1454
 ------------
 Symbolic Z-matrix:
 Charge =  0 Multiplicity = 1

                         Standard orientation:
 ---------------------------------------------------------------------
 Center     Atomic      Atomic             Coordinates (Angstroms)
 Number     Number       Type             X           Y           Z
 ---------------------------------------------------------------------
      1          8           0        0.082816   -1.677034    0.000000
      2          1           0        0.082278   -0.694433    0.000000
      3          1           0       -0.846502   -1.996209    0.000000
      4          8           0        0.082816    1.522543    0.000000
      5          1           0        0.336613    2.471803    0.000000
      6          1           0       -0.897446    1.454768    0.000000
 ---------------------------------------------------------------------

 SCF Done:  E(RHF) =  -33.6561189367     A.U. after   11 cycles
 E2 =    -0.2289638984D+00 EUMP2 =    -0.33885082835150D+02
 CCSD(T)
 CCSD(T)= -0.33902057954D+02

 The electronic state is 1-A'.
 Alpha  occ. eigenvalues --   -1.38155  -1.33281  -0.74019  -0.68902  -0.58259
 Alpha  occ. eigenvalues --   -0.52947  -0.52747  -0.47856
 Alpha virt. eigenvalues --    0.17102   0.24725   0.28187   0.38228   0.76865
 Alpha virt. eigenvalues --    0.80892   0.83808   0.85067   0.90087   1.05578
 Alpha virt. eigenvalues --    1.15155   1.17755   1.21532   1.38931   2.50514

 Mulliken charges:
               1
     1  O   -0.761240
     2  H    0.405390
     3  H    0.351757
     4  O   -0.770235
     5  H    0.403101
     6  H    0.371227
 Sum of Mulliken charges =   0.00000

 Dipole moment (field-independent basis, Debye):
    X=             -3.7079    Y=              3.9427    Z=              0.0000  Tot=              5.4123
 Quadrupole moment (field-independent basis, Debye-Ang):
   XX=            -10.6758   YY=             -8.7657   ZZ=            -14.9962
   XY=              3.0961   XZ=              0.0000   YZ=              0.0000

 044\MP4DQ=-33.8962157\MP4SDQ=-33.8983616\CCSD=-33.8993696\CCSD(T)=-33.
 Normal termination of Gaussian 16 at Sun Dec 10 06:46:10 2023.
