 Gaussian 16, Revision A.03,
 Gaussian 16:  ES64L-G16RevA.03 25-Dec-2016

 ------------------
 #p CCSD(T)/CEP-31G
 ------------------

 -----------
 H2O_H2O_146
 -----------
 Symbolic Z-matrix:
 Charge =  0 Multiplicity = 1

                         Standard orientation:
 ---------------------------------------------------------------------
 Center     Atomic      Atomic             Coordinates (Angstroms)
 Number     Number       Type             X           Y           Z
 ---------------------------------------------------------------------
      1          8           0       -0.023461    1.157103    0.000000
      2          1           0       -0.017940    0.174517    0.000000
      3          1           0        0.904226    1.480987    0.000000
      4          8           0       -0.023461   -0.986854    0.000000
      5          1           0       -0.986090   -1.183962    0.000000
      6          1           0        0.475184   -1.833530    0.000000
 ---------------------------------------------------------------------

 SCF Done:  E(RHF) =  -33.6106408571     A.U. after   11 cycles
 E2 =    -0.2272293993D+00 EUMP2 =    -0.33837870256402D+02
 CCSD(T)
 CCSD(T)= -0.33852628976D+02

 The electronic state is 1-A'.
 Alpha  occ. eigenvalues --   -1.45036  -1.27202  -0.81505  -0.74684  -0.58336
 Alpha  occ. eigenvalues --   -0.55904  -0.44479  -0.41336
 Alpha virt. eigenvalues --    0.16737   0.24981   0.30043   0.61557   0.73370
 Alpha virt. eigenvalues --    0.74188   0.88819   0.91460   0.92730   1.02625
 Alpha virt. eigenvalues --    1.13367   1.19799   1.30199   1.39380   2.93505

 Mulliken charges:
               1
     1  O   -0.748240
     2  H    0.303369
     3  H    0.324063
     4  O   -0.799445
     5  H    0.438366
     6  H    0.481887
 Sum of Mulliken charges =  -0.00000

 Dipole moment (field-independent basis, Debye):
    X=              1.0009    Y=             -5.4258    Z=              0.0000  Tot=              5.5173
 Quadrupole moment (field-independent basis, Debye-Ang):
   XX=             -9.4431   YY=            -10.4382   ZZ=            -14.9432
   XY=              3.6036   XZ=              0.0000   YZ=              0.0000

 99\MP4DQ=-33.8465001\MP4SDQ=-33.8488065\CCSD=-33.8494543\CCSD(T)=-33.8
 Normal termination of Gaussian 16 at Sun Dec 10 06:20:55 2023.
