 Gaussian 16, Revision A.03,
 Gaussian 16:  ES64L-G16RevA.03 25-Dec-2016

 ------------------
 #p CCSD(T)/CEP-31G
 ------------------

 ------------
 H2O_H2O_3806
 ------------
 Symbolic Z-matrix:
 Charge =  0 Multiplicity = 1

                         Standard orientation:
 ---------------------------------------------------------------------
 Center     Atomic      Atomic             Coordinates (Angstroms)
 Number     Number       Type             X           Y           Z
 ---------------------------------------------------------------------
      1          8           0        0.076753    2.619135    0.000000
      2          1           0        0.076211    1.636534    0.000000
      3          1           0       -0.852564    2.938314    0.000000
      4          8           0        0.076753   -2.455917   -0.000000
      5          1           0        0.452278   -3.363929   -0.000000
      6          1           0       -0.903969   -2.516668   -0.000000
 ---------------------------------------------------------------------

 SCF Done:  E(RHF) =  -33.6530583526     A.U. after   11 cycles
 E2 =    -0.2283266442D+00 EUMP2 =    -0.33881384996771D+02
 CCSD(T)
 CCSD(T)= -0.33898349858D+02

 The electronic state is 1-A'.
 Alpha  occ. eigenvalues --   -1.36449  -1.34677  -0.72098  -0.70291  -0.56260
 Alpha  occ. eigenvalues --   -0.54441  -0.51037  -0.49263
 Alpha virt. eigenvalues --    0.19220   0.21330   0.29616   0.31536   0.79529
 Alpha virt. eigenvalues --    0.81256   0.82360   0.84275   0.85504   0.87500
 Alpha virt. eigenvalues --    1.16496   1.18331   1.20913   1.23133   2.56455

 Mulliken charges:
               1
     1  O   -0.746132
     2  H    0.379994
     3  H    0.366047
     4  O   -0.746106
     5  H    0.376274
     6  H    0.369922
 Sum of Mulliken charges =   0.00000

 Dipole moment (field-independent basis, Debye):
    X=             -3.5202    Y=             -3.8530    Z=             -0.0000  Tot=              5.2190
 Quadrupole moment (field-independent basis, Debye-Ang):
   XX=            -10.3198   YY=             -7.0535   ZZ=            -14.9909
   XY=             -4.1854   XZ=             -0.0000   YZ=              0.0000

 66\MP4DQ=-33.8927115\MP4SDQ=-33.8947382\CCSD=-33.8957892\CCSD(T)=-33.8
 Normal termination of Gaussian 16 at Sun Dec 10 06:41:30 2023.
