 Gaussian 16, Revision A.03,
 Gaussian 16:  ES64L-G16RevA.03 25-Dec-2016

 ------------------
 #p CCSD(T)/CEP-31G
 ------------------

 ------------
 H2O_H2O_1391
 ------------
 Symbolic Z-matrix:
 Charge =  0 Multiplicity = 1

                         Standard orientation:
 ---------------------------------------------------------------------
 Center     Atomic      Atomic             Coordinates (Angstroms)
 Number     Number       Type             X           Y           Z
 ---------------------------------------------------------------------
      1          8           0        0.041219    1.660903    0.000000
      2          1           0        0.038420    0.678306    0.000000
      3          1           0       -0.887362    1.982216   -0.000000
      4          8           0        0.041219   -1.481050    0.000000
      5          1           0        0.890774   -1.974774    0.000000
      6          1           0       -0.701337   -2.124569   -0.000000
 ---------------------------------------------------------------------

 SCF Done:  E(RHF) =  -33.6620920457     A.U. after   11 cycles
 E2 =    -0.2288963587D+00 EUMP2 =    -0.33890988404406D+02
 CCSD(T)
 CCSD(T)= -0.33907695505D+02

 The electronic state is 1-A'.
 Alpha  occ. eigenvalues --   -1.38122  -1.32059  -0.73750  -0.68077  -0.58686
 Alpha  occ. eigenvalues --   -0.52839  -0.51817  -0.46732
 Alpha virt. eigenvalues --    0.17888   0.25511   0.28494   0.40342   0.76805
 Alpha virt. eigenvalues --    0.79765   0.84775   0.86146   0.91759   0.98608
 Alpha virt. eigenvalues --    1.15130   1.19375   1.21585   1.34135   2.49728

 Mulliken charges:
               1
     1  O   -0.783356
     2  H    0.426612
     3  H    0.355309
     4  O   -0.787124
     5  H    0.395966
     6  H    0.392593
 Sum of Mulliken charges =   0.00000

 Dipole moment (field-independent basis, Debye):
    X=             -1.8339    Y=             -4.5715    Z=             -0.0000  Tot=              4.9257
 Quadrupole moment (field-independent basis, Debye-Ang):
   XX=             -9.3797   YY=             -8.2094   ZZ=            -15.0115
   XY=             -4.7834   XZ=              0.0000   YZ=             -0.0000

 9\MP4DQ=-33.9019126\MP4SDQ=-33.9040042\CCSD=-33.9049957\CCSD(T)=-33.90
 Normal termination of Gaussian 16 at Sun Dec 10 06:44:55 2023.
