 Gaussian 16, Revision A.03,
 Gaussian 16:  ES64L-G16RevA.03 25-Dec-2016

 ------------------
 #p CCSD(T)/CEP-31G
 ------------------

 -----------
 H2O_H2O_932
 -----------
 Symbolic Z-matrix:
 Charge =  0 Multiplicity = 1

                         Standard orientation:
 ---------------------------------------------------------------------
 Center     Atomic      Atomic             Coordinates (Angstroms)
 Number     Number       Type             X           Y           Z
 ---------------------------------------------------------------------
      1          8           0        0.073575    1.474352   -0.000000
      2          1           0        0.072390    0.491751   -0.000000
      3          1           0       -0.855534    1.794139   -0.000000
      4          8           0        0.073575   -1.307479    0.000000
      5          1           0        0.507106   -2.189270    0.000000
      6          1           0       -0.901155   -1.431605    0.000000
 ---------------------------------------------------------------------

 SCF Done:  E(RHF) =  -33.6580298259     A.U. after   11 cycles
 E2 =    -0.2290383976D+00 EUMP2 =    -0.33887068223548D+02
 CCSD(T)
 CCSD(T)= -0.33903655792D+02

 The electronic state is 1-A'.
 Alpha  occ. eigenvalues --   -1.39312  -1.31644  -0.75223  -0.68476  -0.59195
 Alpha  occ. eigenvalues --   -0.53920  -0.51076  -0.46193
 Alpha virt. eigenvalues --    0.17130   0.26178   0.27572   0.45580   0.75141
 Alpha virt. eigenvalues --    0.77773   0.85209   0.86463   0.94122   1.09100
 Alpha virt. eigenvalues --    1.16804   1.18956   1.22361   1.36627   2.54298

 Mulliken charges:
               1
     1  O   -0.766232
     2  H    0.419234
     3  H    0.341041
     4  O   -0.807902
     5  H    0.430489
     6  H    0.383370
 Sum of Mulliken charges =  -0.00000

 Dipole moment (field-independent basis, Debye):
    X=             -3.2046    Y=             -4.4718    Z=              0.0000  Tot=              5.5015
 Quadrupole moment (field-independent basis, Debye-Ang):
   XX=            -10.1844   YY=             -8.9623   ZZ=            -15.0069
   XY=             -3.4617   XZ=              0.0000   YZ=             -0.0000

 561\MP4DQ=-33.8977282\MP4SDQ=-33.8999078\CCSD=-33.9008508\CCSD(T)=-33.
 Normal termination of Gaussian 16 at Sun Dec 10 06:36:02 2023.
