 Gaussian 16, Revision A.03,
 Gaussian 16:  ES64L-G16RevA.03 25-Dec-2016

 ------------------
 #p CCSD(T)/CEP-31G
 ------------------

 ------------
 H2O_H2O_1160
 ------------
 Symbolic Z-matrix:
 Charge =  0 Multiplicity = 1

                         Standard orientation:
 ---------------------------------------------------------------------
 Center     Atomic      Atomic             Coordinates (Angstroms)
 Number     Number       Type             X           Y           Z
 ---------------------------------------------------------------------
      1          8           0        0.063289    1.568750    0.000000
      2          1           0        0.061586    0.586150    0.000000
      3          1           0       -0.865651    1.889027    0.000000
      4          8           0        0.063289   -1.393318   -0.000000
      5          1           0        0.660107   -2.173904   -0.000000
      6          1           0       -0.868661   -1.704728   -0.000000
 ---------------------------------------------------------------------

 SCF Done:  E(RHF) =  -33.6610001690     A.U. after   11 cycles
 E2 =    -0.2290527946D+00 EUMP2 =    -0.33890052963561D+02
 CCSD(T)
 CCSD(T)= -0.33906706585D+02

 The electronic state is 1-A'.
 Alpha  occ. eigenvalues --   -1.38628  -1.31824  -0.74313  -0.68175  -0.59007
 Alpha  occ. eigenvalues --   -0.53318  -0.51434  -0.46442
 Alpha virt. eigenvalues --    0.17524   0.25899   0.28035   0.42779   0.76008
 Alpha virt. eigenvalues --    0.78634   0.85432   0.85591   0.93466   1.03799
 Alpha virt. eigenvalues --    1.15021   1.18661   1.21714   1.35553   2.50967

 Mulliken charges:
               1
     1  O   -0.778024
     2  H    0.429338
     3  H    0.347184
     4  O   -0.797395
     5  H    0.413222
     6  H    0.385676
 Sum of Mulliken charges =  -0.00000

 Dipole moment (field-independent basis, Debye):
    X=             -2.7811    Y=             -4.5573    Z=             -0.0000  Tot=              5.3389
 Quadrupole moment (field-independent basis, Debye-Ang):
   XX=             -9.7649   YY=             -8.5798   ZZ=            -15.0107
   XY=             -3.9466   XZ=              0.0000   YZ=              0.0000

 \MP4DQ=-33.9008607\MP4SDQ=-33.9029856\CCSD=-33.9039557\CCSD(T)=-33.906
 Normal termination of Gaussian 16 at Sun Dec 10 06:40:21 2023.
