 Gaussian 16, Revision A.03,
 Gaussian 16:  ES64L-G16RevA.03 25-Dec-2016

 ------------------
 #p CCSD(T)/CEP-31G
 ------------------

 ----------
 H2O_H2O_19
 ----------
 Symbolic Z-matrix:
 Charge =  0 Multiplicity = 1

                         Standard orientation:
 ---------------------------------------------------------------------
 Center     Atomic      Atomic             Coordinates (Angstroms)
 Number     Number       Type             X           Y           Z
 ---------------------------------------------------------------------
      1          8           0        0.030444    1.110057   -0.000000
      2          1           0        0.025234    0.127470   -0.000000
      3          1           0       -0.897346    1.433648   -0.000000
      4          8           0        0.030444   -0.934626    0.000000
      5          1           0        0.959212   -1.255402    0.000000
      6          1           0       -0.574201   -1.709164    0.000000
 ---------------------------------------------------------------------

 SCF Done:  E(RHF) =  -33.5808035092     A.U. after   11 cycles
 E2 =    -0.2266795438D+00 EUMP2 =    -0.33807483052913D+02
 CCSD(T)
 CCSD(T)= -0.33821867103D+02

 The electronic state is 1-A'.
 Alpha  occ. eigenvalues --   -1.47165  -1.26121  -0.83027  -0.77682  -0.59721
 Alpha  occ. eigenvalues --   -0.54074  -0.42451  -0.39956
 Alpha virt. eigenvalues --    0.16310   0.24477   0.30755   0.62764   0.73213
 Alpha virt. eigenvalues --    0.73679   0.86157   0.92012   0.92428   1.05413
 Alpha virt. eigenvalues --    1.12234   1.18640   1.31694   1.40466   2.99851

 Mulliken charges:
               1
     1  O   -0.742554
     2  H    0.244562
     3  H    0.308868
     4  O   -0.740282
     5  H    0.450956
     6  H    0.478450
 Sum of Mulliken charges =  -0.00000

 Dipole moment (field-independent basis, Debye):
    X=             -1.2504    Y=             -5.8100    Z=              0.0000  Tot=              5.9430
 Quadrupole moment (field-independent basis, Debye-Ang):
   XX=             -9.2932   YY=            -10.8321   ZZ=            -14.9040
   XY=             -3.3199   XZ=              0.0000   YZ=             -0.0000

 83\MP4DQ=-33.8156623\MP4SDQ=-33.818037\CCSD=-33.818602\CCSD(T)=-33.821
 Normal termination of Gaussian 16 at Sun Dec 10 06:18:24 2023.
