 Gaussian 16, Revision A.03,
 Gaussian 16:  ES64L-G16RevA.03 25-Dec-2016

 ------------------
 #p CCSD(T)/CEP-31G
 ------------------

 -----------
 H2O_H2O_936
 -----------
 Symbolic Z-matrix:
 Charge =  0 Multiplicity = 1

                         Standard orientation:
 ---------------------------------------------------------------------
 Center     Atomic      Atomic             Coordinates (Angstroms)
 Number     Number       Type             X           Y           Z
 ---------------------------------------------------------------------
      1          8           0        0.059711    1.480046   -0.000000
      2          1           0        0.057680    0.497447   -0.000000
      3          1           0       -0.869121    1.800634   -0.000000
      4          8           0        0.059711   -1.302697    0.000000
      5          1           0        0.706057   -2.042793    0.000000
      6          1           0       -0.850000   -1.674086    0.000000
 ---------------------------------------------------------------------

 SCF Done:  E(RHF) =  -33.6613357357     A.U. after   11 cycles
 E2 =    -0.2291307134D+00 EUMP2 =    -0.33890466449046D+02
 CCSD(T)
 CCSD(T)= -0.33906876974D+02

 The electronic state is 1-A'.
 Alpha  occ. eigenvalues --   -1.39221  -1.31104  -0.74840  -0.68477  -0.59246
 Alpha  occ. eigenvalues --   -0.53923  -0.50553  -0.45697
 Alpha virt. eigenvalues --    0.17397   0.26600   0.27721   0.46352   0.75232
 Alpha virt. eigenvalues --    0.77013   0.85294   0.86773   0.95455   1.02994
 Alpha virt. eigenvalues --    1.15155   1.18653   1.22311   1.36076   2.54431

 Mulliken charges:
               1
     1  O   -0.779168
     2  H    0.434118
     3  H    0.342371
     4  O   -0.813019
     5  H    0.422356
     6  H    0.393342
 Sum of Mulliken charges =   0.00000

 Dipole moment (field-independent basis, Debye):
    X=             -2.5907    Y=             -4.7100    Z=              0.0000  Tot=              5.3755
 Quadrupole moment (field-independent basis, Debye-Ang):
   XX=             -9.6439   YY=             -8.9051   ZZ=            -15.0149
   XY=             -3.9172   XZ=              0.0000   YZ=             -0.0000

 221\MP4DQ=-33.9009917\MP4SDQ=-33.9031314\CCSD=-33.904057\CCSD(T)=-33.9
 Normal termination of Gaussian 16 at Sun Dec 10 06:36:07 2023.
