 Gaussian 16, Revision A.03,
 Gaussian 16:  ES64L-G16RevA.03 25-Dec-2016

 ------------------
 #p CCSD(T)/CEP-31G
 ------------------

 -----------
 H2O_H2O_556
 -----------
 Symbolic Z-matrix:
 Charge =  0 Multiplicity = 1

                         Standard orientation:
 ---------------------------------------------------------------------
 Center     Atomic      Atomic             Coordinates (Angstroms)
 Number     Number       Type             X           Y           Z
 ---------------------------------------------------------------------
      1          8           0        0.076800   -1.322740    0.000000
      2          1           0        0.075693   -0.340139    0.000000
      3          1           0       -0.852334   -1.642454    0.000000
      4          8           0        0.076800    1.159610    0.000000
      5          1           0        0.451802    2.067839    0.000000
      6          1           0       -0.903957    1.219797    0.000000
 ---------------------------------------------------------------------

 SCF Done:  E(RHF) =  -33.6479191572     A.U. after   11 cycles
 E2 =    -0.2288146619D+00 EUMP2 =    -0.33876733819137D+02
 CCSD(T)
 CCSD(T)= -0.33892839618D+02

 The electronic state is 1-A'.
 Alpha  occ. eigenvalues --   -1.41099  -1.30527  -0.77474  -0.69828  -0.58710
 Alpha  occ. eigenvalues --   -0.55424  -0.49475  -0.44925
 Alpha virt. eigenvalues --    0.16690   0.25766   0.28032   0.52397   0.73919
 Alpha virt. eigenvalues --    0.76141   0.85648   0.88424   0.96153   1.08220
 Alpha virt. eigenvalues --    1.15400   1.23047   1.25377   1.36230   2.68862

 Mulliken charges:
               1
     1  O   -0.743372
     2  H    0.391084
     3  H    0.328090
     4  O   -0.825808
     5  H    0.460270
     6  H    0.389736
 Sum of Mulliken charges =   0.00000

 Dipole moment (field-independent basis, Debye):
    X=             -3.2603    Y=              4.6710    Z=              0.0000  Tot=              5.6963
 Quadrupole moment (field-independent basis, Debye-Ang):
   XX=            -10.3415   YY=             -9.5320   ZZ=            -14.9936
   XY=              3.1841   XZ=              0.0000   YZ=              0.0000

 341\MP4DQ=-33.8867719\MP4SDQ=-33.8890446\CCSD=-33.889892\CCSD(T)=-33.8
 Normal termination of Gaussian 16 at Sun Dec 10 06:28:59 2023.
