 Gaussian 16, Revision A.03,
 Gaussian 16:  ES64L-G16RevA.03 25-Dec-2016

 ------------------
 #p CCSD(T)/CEP-31G
 ------------------

 ------------
 H2O_H2O_3228
 ------------
 Symbolic Z-matrix:
 Charge =  0 Multiplicity = 1

                         Standard orientation:
 ---------------------------------------------------------------------
 Center     Atomic      Atomic             Coordinates (Angstroms)
 Number     Number       Type             X           Y           Z
 ---------------------------------------------------------------------
      1          8           0        0.085601   -2.382382    0.000000
      2          1           0        0.085330   -1.399780    0.000000
      3          1           0       -0.843805   -2.701304    0.000000
      4          8           0        0.085601    2.232784    0.000000
      5          1           0        0.277032    3.196558    0.000000
      6          1           0       -0.888166    2.101308    0.000000
 ---------------------------------------------------------------------

 SCF Done:  E(RHF) =  -33.6529485732     A.U. after   11 cycles
 E2 =    -0.2283764607D+00 EUMP2 =    -0.33881325033907D+02
 CCSD(T)
 CCSD(T)= -0.33898297532D+02

 The electronic state is 1-A'.
 Alpha  occ. eigenvalues --   -1.36670  -1.34696  -0.72333  -0.70297  -0.56478
 Alpha  occ. eigenvalues --   -0.54446  -0.51253  -0.49276
 Alpha virt. eigenvalues --    0.18417   0.21721   0.29400   0.31568   0.79325
 Alpha virt. eigenvalues --    0.81250   0.82335   0.84250   0.85366   0.87676
 Alpha virt. eigenvalues --    1.16120   1.18571   1.20710   1.24551   2.56212

 Mulliken charges:
               1
     1  O   -0.745816
     2  H    0.380935
     3  H    0.364558
     4  O   -0.746082
     5  H    0.378138
     6  H    0.368267
 Sum of Mulliken charges =  -0.00000

 Dipole moment (field-independent basis, Debye):
    X=             -3.9182    Y=              3.5601    Z=              0.0000  Tot=              5.2941
 Quadrupole moment (field-independent basis, Debye-Ang):
   XX=            -10.8106   YY=             -8.3346   ZZ=            -14.9901
   XY=              3.1611   XZ=              0.0000   YZ=              0.0000

 45\MP4DQ=-33.8926484\MP4SDQ=-33.8946825\CCSD=-33.8957297\CCSD(T)=-33.8
 Normal termination of Gaussian 16 at Sun Dec 10 06:31:10 2023.
