 Gaussian 16, Revision A.03,
 Gaussian 16:  ES64L-G16RevA.03 25-Dec-2016

 ------------------
 #p CCSD(T)/CEP-31G
 ------------------

 -----------
 H2O_H2O_169
 -----------
 Symbolic Z-matrix:
 Charge =  0 Multiplicity = 1

                         Standard orientation:
 ---------------------------------------------------------------------
 Center     Atomic      Atomic             Coordinates (Angstroms)
 Number     Number       Type             X           Y           Z
 ---------------------------------------------------------------------
      1          8           0        0.030418    1.169897   -0.000000
      2          1           0        0.025496    0.187308   -0.000000
      3          1           0       -0.897467    1.493216    0.000000
      4          8           0        0.030418   -0.994448   -0.000000
      5          1           0        0.959280   -1.314952   -0.000000
      6          1           0       -0.574002   -1.769163    0.000000
 ---------------------------------------------------------------------

 SCF Done:  E(RHF) =  -33.6172981147     A.U. after   11 cycles
 E2 =    -0.2275640891D+00 EUMP2 =    -0.33844862203741D+02
 CCSD(T)
 CCSD(T)= -0.33859595589D+02

 The electronic state is 1-A'.
 Alpha  occ. eigenvalues --   -1.44602  -1.27185  -0.80246  -0.75576  -0.58174
 Alpha  occ. eigenvalues --   -0.55749  -0.44567  -0.41309
 Alpha virt. eigenvalues --    0.16642   0.25300   0.29963   0.61373   0.73380
 Alpha virt. eigenvalues --    0.73831   0.87506   0.91447   0.92557   1.02487
 Alpha virt. eigenvalues --    1.13918   1.18951   1.29387   1.36755   2.90219

 Mulliken charges:
               1
     1  O   -0.754846
     2  H    0.329037
     3  H    0.319706
     4  O   -0.803133
     5  H    0.441011
     6  H    0.468225
 Sum of Mulliken charges =  -0.00000

 Dipole moment (field-independent basis, Debye):
    X=             -1.2817    Y=             -5.5056    Z=              0.0000  Tot=              5.6529
 Quadrupole moment (field-independent basis, Debye-Ang):
   XX=             -9.3264   YY=            -10.4618   ZZ=            -14.9528
   XY=             -3.5216   XZ=             -0.0000   YZ=              0.0000

 86\MP4DQ=-33.8534833\MP4SDQ=-33.8557705\CCSD=-33.8564114\CCSD(T)=-33.8
 Normal termination of Gaussian 16 at Sun Dec 10 06:21:22 2023.
