 Gaussian 16, Revision A.03,
 Gaussian 16:  ES64L-G16RevA.03 25-Dec-2016

 ------------------
 #p CCSD(T)/CEP-31G
 ------------------

 ------------
 H2O_H2O_1804
 ------------
 Symbolic Z-matrix:
 Charge =  0 Multiplicity = 1

                         Standard orientation:
 ---------------------------------------------------------------------
 Center     Atomic      Atomic             Coordinates (Angstroms)
 Number     Number       Type             X           Y           Z
 ---------------------------------------------------------------------
      1          8           0        0.082813   -1.816645    0.000000
      2          1           0        0.082318   -0.834044    0.000000
      3          1           0       -0.846520   -2.135780    0.000000
      4          8           0        0.082813    1.662147    0.000000
      5          1           0        0.336650    2.611395    0.000000
      6          1           0       -0.897452    1.594414    0.000000
 ---------------------------------------------------------------------

 SCF Done:  E(RHF) =  -33.6554661039     A.U. after   11 cycles
 E2 =    -0.2288040787D+00 EUMP2 =    -0.33884270182655D+02
 CCSD(T)
 CCSD(T)= -0.33901264033D+02

 The electronic state is 1-A'.
 Alpha  occ. eigenvalues --   -1.37668  -1.33712  -0.73431  -0.69280  -0.57693
 Alpha  occ. eigenvalues --   -0.53436  -0.52266  -0.48298
 Alpha virt. eigenvalues --    0.17206   0.23991   0.28584   0.35432   0.77824
 Alpha virt. eigenvalues --    0.82109   0.82775   0.85010   0.88926   0.96865
 Alpha virt. eigenvalues --    1.15211   1.18704   1.20894   1.37552   2.52106

 Mulliken charges:
               1
     1  O   -0.758599
     2  H    0.399796
     3  H    0.356086
     4  O   -0.759611
     5  H    0.392355
     6  H    0.369973
 Sum of Mulliken charges =  -0.00000

 Dipole moment (field-independent basis, Debye):
    X=             -3.7373    Y=              3.8512    Z=              0.0000  Tot=              5.3665
 Quadrupole moment (field-independent basis, Debye-Ang):
   XX=            -10.6665   YY=             -8.5834   ZZ=            -14.9941
   XY=              3.1651   XZ=              0.0000   YZ=              0.0000

 7591\MP4DQ=-33.8954875\MP4SDQ=-33.8975996\CCSD=-33.8986212\CCSD(T)=-33
 Normal termination of Gaussian 16 at Sun Dec 10 06:52:56 2023.
