 Gaussian 16, Revision A.03,
 Gaussian 16:  ES64L-G16RevA.03 25-Dec-2016

 ------------------
 #p CCSD(T)/CEP-31G
 ------------------

 ------------
 H2O_H2O_1125
 ------------
 Symbolic Z-matrix:
 Charge =  0 Multiplicity = 1

                         Standard orientation:
 ---------------------------------------------------------------------
 Center     Atomic      Atomic             Coordinates (Angstroms)
 Number     Number       Type             X           Y           Z
 ---------------------------------------------------------------------
      1          8           0        0.092949   -1.535609    0.000000
      2          1           0        0.092949   -0.553007    0.000000
      3          1           0       -0.836544   -1.854275    0.000000
      4          8           0        0.092949    1.402821    0.000000
      5          1           0        0.092950    2.385424    0.000000
      6          1           0       -0.836544    1.084155    0.000000
 ---------------------------------------------------------------------

 SCF Done:  E(RHF) =  -33.6506890362     A.U. after   11 cycles
 E2 =    -0.2293624617D+00 EUMP2 =    -0.33880051497854D+02
 CCSD(T)
 CCSD(T)= -0.33897083244D+02

 The electronic state is 1-A'.
 Alpha  occ. eigenvalues --   -1.38966  -1.33684  -0.75427  -0.68992  -0.58722
 Alpha  occ. eigenvalues --   -0.53412  -0.53211  -0.48167
 Alpha virt. eigenvalues --    0.16510   0.24899   0.27816   0.41120   0.75525
 Alpha virt. eigenvalues --    0.80178   0.84574   0.84628   0.90082   1.11940
 Alpha virt. eigenvalues --    1.15047   1.22587   1.23039   1.38984   2.50415

 Mulliken charges:
               1
     1  O   -0.741521
     2  H    0.380311
     3  H    0.348020
     4  O   -0.760760
     5  H    0.411365
     6  H    0.362586
 Sum of Mulliken charges =  -0.00000

 Dipole moment (field-independent basis, Debye):
    X=             -4.1366    Y=              3.5121    Z=              0.0000  Tot=              5.4264
 Quadrupole moment (field-independent basis, Debye-Ang):
   XX=            -11.3554   YY=             -9.6246   ZZ=            -14.9864
   XY=              2.2371   XZ=              0.0000   YZ=              0.0000

 51\MP4DQ=-33.8911072\MP4SDQ=-33.8933415\CCSD=-33.8943082\CCSD(T)=-33.8
 Normal termination of Gaussian 16 at Sun Dec 10 06:39:40 2023.
