 Gaussian 16, Revision A.03,
 Gaussian 16:  ES64L-G16RevA.03 25-Dec-2016

 ------------------
 #p CCSD(T)/CEP-31G
 ------------------

 -----------
 H2O_H2O_712
 -----------
 Symbolic Z-matrix:
 Charge =  0 Multiplicity = 1

                         Standard orientation:
 ---------------------------------------------------------------------
 Center     Atomic      Atomic             Coordinates (Angstroms)
 Number     Number       Type             X           Y           Z
 ---------------------------------------------------------------------
      1          8           0        0.056083    1.391084   -0.000000
      2          1           0        0.053673    0.408485   -0.000000
      3          1           0       -0.872626    1.712029   -0.000000
      4          8           0        0.056083   -1.212292    0.000000
      5          1           0        0.749181   -1.908799    0.000000
      6          1           0       -0.827556   -1.642046    0.000000
 ---------------------------------------------------------------------

 SCF Done:  E(RHF) =  -33.6593107030     A.U. after   11 cycles
 E2 =    -0.2291134116D+00 EUMP2 =    -0.33888424114624D+02
 CCSD(T)
 CCSD(T)= -0.33904469618D+02

 The electronic state is 1-A'.
 Alpha  occ. eigenvalues --   -1.40068  -1.30223  -0.75533  -0.69630  -0.58983
 Alpha  occ. eigenvalues --   -0.54740  -0.49393  -0.44757
 Alpha virt. eigenvalues --    0.17210   0.27083   0.27616   0.50613   0.74498
 Alpha virt. eigenvalues --    0.75425   0.85202   0.88072   0.96881   1.01503
 Alpha virt. eigenvalues --    1.14837   1.18419   1.23211   1.36713   2.61200

 Mulliken charges:
               1
     1  O   -0.776767
     2  H    0.432437
     3  H    0.336004
     4  O   -0.827353
     5  H    0.431865
     6  H    0.403815
 Sum of Mulliken charges =   0.00000

 Dipole moment (field-independent basis, Debye):
    X=             -2.3976    Y=             -4.8912    Z=              0.0000  Tot=              5.4472
 Quadrupole moment (field-independent basis, Debye-Ang):
   XX=             -9.5338   YY=             -9.3113   ZZ=            -15.0152
   XY=             -3.8345   XZ=              0.0000   YZ=             -0.0000

 4\MP4DQ=-33.8985334\MP4SDQ=-33.9006979\CCSD=-33.9015586\CCSD(T)=-33.90
 Normal termination of Gaussian 16 at Sun Dec 10 06:31:54 2023.
