 Gaussian 16, Revision A.03,
 Gaussian 16:  ES64L-G16RevA.03 25-Dec-2016

 ------------------
 #p CCSD(T)/CEP-31G
 ------------------

 ------------
 H2O_H2O_2738
 ------------
 Symbolic Z-matrix:
 Charge =  0 Multiplicity = 1

                         Standard orientation:
 ---------------------------------------------------------------------
 Center     Atomic      Atomic             Coordinates (Angstroms)
 Number     Number       Type             X           Y           Z
 ---------------------------------------------------------------------
      1          8           0        0.052309    2.199396   -0.000000
      2          1           0        0.050673    1.216795   -0.000000
      3          1           0       -0.876652    2.519609   -0.000000
      4          8           0        0.052309   -2.019517    0.000000
      5          1           0        0.789988   -2.668620    0.000000
      6          1           0       -0.800948   -2.506815    0.000000
 ---------------------------------------------------------------------

 SCF Done:  E(RHF) =  -33.6557662626     A.U. after   11 cycles
 E2 =    -0.2283765112D+00 EUMP2 =    -0.33884142773851D+02
 CCSD(T)
 CCSD(T)= -0.33901045216D+02

 The electronic state is 1-A'.
 Alpha  occ. eigenvalues --   -1.36862  -1.33827  -0.72511  -0.69442  -0.56839
 Alpha  occ. eigenvalues --   -0.53654  -0.51489  -0.48452
 Alpha virt. eigenvalues --    0.18609   0.22624   0.29368   0.32766   0.79071
 Alpha virt. eigenvalues --    0.82038   0.83398   0.84630   0.85358   0.88218
 Alpha virt. eigenvalues --    1.16195   1.19552   1.20624   1.27224   2.55247

 Mulliken charges:
               1
     1  O   -0.757081
     2  H    0.391856
     3  H    0.363938
     4  O   -0.753745
     5  H    0.380205
     6  H    0.374828
 Sum of Mulliken charges =  -0.00000

 Dipole moment (field-independent basis, Debye):
    X=             -2.3797    Y=             -4.3266    Z=              0.0000  Tot=              4.9379
 Quadrupole moment (field-independent basis, Debye-Ang):
   XX=             -9.5118   YY=             -6.7375   ZZ=            -14.9965
   XY=             -5.4726   XZ=              0.0000   YZ=             -0.0000

 6375\MP4DQ=-33.8953915\MP4SDQ=-33.8974374\CCSD=-33.8984723\CCSD(T)=-33
 Normal termination of Gaussian 16 at Sun Dec 10 06:22:17 2023.
