 Gaussian 16, Revision A.03,
 Gaussian 16:  ES64L-G16RevA.03 25-Dec-2016

 ------------------
 #p CCSD(T)/CEP-31G
 ------------------

 -----------
 H2O_H2O_529
 -----------
 Symbolic Z-matrix:
 Charge =  0 Multiplicity = 1

                         Standard orientation:
 ---------------------------------------------------------------------
 Center     Atomic      Atomic             Coordinates (Angstroms)
 Number     Number       Type             X           Y           Z
 ---------------------------------------------------------------------
      1          8           0        0.082829   -1.308059    0.000000
      2          1           0        0.082129   -0.325458    0.000000
      3          1           0       -0.846437   -1.627387    0.000000
      4          8           0        0.082829    1.153595    0.000000
      5          1           0        0.336470    2.102896    0.000000
      6          1           0       -0.897421    1.085660    0.000000
 ---------------------------------------------------------------------

 SCF Done:  E(RHF) =  -33.6426499276     A.U. after   11 cycles
 E2 =    -0.2287742323D+00 EUMP2 =    -0.33871424159977D+02
 CCSD(T)
 CCSD(T)= -0.33887650328D+02

 The electronic state is 1-A'.
 Alpha  occ. eigenvalues --   -1.41410  -1.30911  -0.78274  -0.69458  -0.58816
 Alpha  occ. eigenvalues --   -0.55556  -0.49856  -0.45271
 Alpha virt. eigenvalues --    0.16530   0.25273   0.28123   0.52395   0.73760
 Alpha virt. eigenvalues --    0.76634   0.85782   0.88292   0.95652   1.09490
 Alpha virt. eigenvalues --    1.14664   1.23450   1.28953   1.38169   2.69264

 Mulliken charges:
               1
     1  O   -0.727354
     2  H    0.365201
     3  H    0.327646
     4  O   -0.812460
     5  H    0.463358
     6  H    0.383609
 Sum of Mulliken charges =   0.00000

 Dipole moment (field-independent basis, Debye):
    X=             -3.5339    Y=              4.4889    Z=              0.0000  Tot=              5.7130
 Quadrupole moment (field-independent basis, Debye-Ang):
   XX=            -10.6921   YY=             -9.6129   ZZ=            -14.9840
   XY=              2.8826   XZ=              0.0000   YZ=              0.0000

 6\MP4DQ=-33.8815286\MP4SDQ=-33.8838474\CCSD=-33.8846948\CCSD(T)=-33.88
 Normal termination of Gaussian 16 at Sun Dec 10 06:28:29 2023.
