 Gaussian 16, Revision A.03,
 Gaussian 16:  ES64L-G16RevA.03 25-Dec-2016

 ------------------
 #p CCSD(T)/CEP-31G
 ------------------

 ------------
 H2O_H2O_2760
 ------------
 Symbolic Z-matrix:
 Charge =  0 Multiplicity = 1

                         Standard orientation:
 ---------------------------------------------------------------------
 Center     Atomic      Atomic             Coordinates (Angstroms)
 Number     Number       Type             X           Y           Z
 ---------------------------------------------------------------------
      1          8           0        0.063243    2.206986   -0.000000
      2          1           0        0.062053    1.224385   -0.000000
      3          1           0       -0.865863    2.526778   -0.000000
      4          8           0        0.063243   -2.031488    0.000000
      5          1           0        0.660468   -2.811762    0.000000
      6          1           0       -0.868545   -2.343384    0.000000
 ---------------------------------------------------------------------

 SCF Done:  E(RHF) =  -33.6552131511     A.U. after   11 cycles
 E2 =    -0.2283912797D+00 EUMP2 =    -0.33883604430788D+02
 CCSD(T)
 CCSD(T)= -0.33900522281D+02

 The electronic state is 1-A'.
 Alpha  occ. eigenvalues --   -1.36862  -1.33953  -0.72517  -0.69559  -0.56805
 Alpha  occ. eigenvalues --   -0.53760  -0.51480  -0.48566
 Alpha virt. eigenvalues --    0.18510   0.22504   0.29306   0.32634   0.79084
 Alpha virt. eigenvalues --    0.81932   0.83172   0.84870   0.85230   0.88200
 Alpha virt. eigenvalues --    1.16156   1.19416   1.20586   1.27270   2.55407

 Mulliken charges:
               1
     1  O   -0.754926
     2  H    0.390514
     3  H    0.363237
     4  O   -0.752405
     5  H    0.380446
     6  H    0.373135
 Sum of Mulliken charges =   0.00000

 Dipole moment (field-independent basis, Debye):
    X=             -2.8803    Y=             -4.2199    Z=              0.0000  Tot=              5.1092
 Quadrupole moment (field-independent basis, Debye-Ang):
   XX=             -9.7774   YY=             -6.9522   ZZ=            -14.9952
   XY=             -4.8224   XZ=              0.0000   YZ=             -0.0000

 42\MP4DQ=-33.8948659\MP4SDQ=-33.8969122\CCSD=-33.8979484\CCSD(T)=-33.9
 Normal termination of Gaussian 16 at Sun Dec 10 06:22:41 2023.
