 Gaussian 16, Revision A.03,
 Gaussian 16:  ES64L-G16RevA.03 25-Dec-2016

 ------------------
 #p CCSD(T)/CEP-31G
 ------------------

 ------------
 H2O_H2O_2973
 ------------
 Symbolic Z-matrix:
 Charge =  0 Multiplicity = 1

                         Standard orientation:
 ---------------------------------------------------------------------
 Center     Atomic      Atomic             Coordinates (Angstroms)
 Number     Number       Type             X           Y           Z
 ---------------------------------------------------------------------
      1          8           0       -0.016634    2.280191    0.000000
      2          1           0       -0.013688    1.297594    0.000000
      3          1           0        0.911900    2.601643    0.000000
      4          8           0       -0.016634   -2.116804    0.000000
      5          1           0       -0.996935   -2.184008    0.000000
      6          1           0        0.364859   -3.022326    0.000000
 ---------------------------------------------------------------------

 SCF Done:  E(RHF) =  -33.6553808863     A.U. after   11 cycles
 E2 =    -0.2283072330D+00 EUMP2 =    -0.33883688119288D+02
 CCSD(T)
 CCSD(T)= -0.33900598896D+02

 The electronic state is 1-A'.
 Alpha  occ. eigenvalues --   -1.36711  -1.34226  -0.72364  -0.69871  -0.56651
 Alpha  occ. eigenvalues --   -0.54070  -0.51332  -0.48857
 Alpha virt. eigenvalues --    0.18563   0.22261   0.29463   0.32250   0.79229
 Alpha virt. eigenvalues --    0.81634   0.82527   0.84368   0.85697   0.87744
 Alpha virt. eigenvalues --    1.16267   1.19192   1.20725   1.26238   2.56173

 Mulliken charges:
               1
     1  O   -0.755419
     2  H    0.385693
     3  H    0.368996
     4  O   -0.753542
     5  H    0.376598
     6  H    0.377675
 Sum of Mulliken charges =   0.00000

 Dipole moment (field-independent basis, Debye):
    X=              0.7567    Y=             -3.8991    Z=              0.0000  Tot=              3.9719
 Quadrupole moment (field-independent basis, Debye-Ang):
   XX=             -9.7663   YY=             -7.4815   ZZ=            -14.9954
   XY=              7.9795   XZ=              0.0000   YZ=              0.0000

 2014\MP4DQ=-33.8949558\MP4SDQ=-33.8969927\CCSD=-33.898032\CCSD(T)=-33.
 Normal termination of Gaussian 16 at Sun Dec 10 06:26:31 2023.
