 Gaussian 16, Revision A.03,
 Gaussian 16:  ES64L-G16RevA.03 25-Dec-2016

 ------------------
 #p CCSD(T)/CEP-31G
 ------------------

 -----------
 H2O_H2O_561
 -----------
 Symbolic Z-matrix:
 Charge =  0 Multiplicity = 1

                         Standard orientation:
 ---------------------------------------------------------------------
 Center     Atomic      Atomic             Coordinates (Angstroms)
 Number     Number       Type             X           Y           Z
 ---------------------------------------------------------------------
      1          8           0        0.059734    1.330453    0.000000
      2          1           0        0.057457    0.347854    0.000000
      3          1           0       -0.869019    1.651272    0.000000
      4          8           0        0.059734   -1.153133   -0.000000
      5          1           0        0.705895   -1.893390   -0.000000
      6          1           0       -0.850070   -1.524297   -0.000000
 ---------------------------------------------------------------------

 SCF Done:  E(RHF) =  -33.6541464819     A.U. after   11 cycles
 E2 =    -0.2289972255D+00 EUMP2 =    -0.33883143707382D+02
 CCSD(T)
 CCSD(T)= -0.33898925645D+02

 The electronic state is 1-A'.
 Alpha  occ. eigenvalues --   -1.40892  -1.29683  -0.76341  -0.70871  -0.58431
 Alpha  occ. eigenvalues --   -0.55444  -0.48572  -0.44132
 Alpha virt. eigenvalues --    0.16973   0.26646   0.28083   0.53528   0.74052
 Alpha virt. eigenvalues --    0.74793   0.85357   0.88897   0.96428   1.03485
 Alpha virt. eigenvalues --    1.14647   1.18255   1.23770   1.36350   2.68221

 Mulliken charges:
               1
     1  O   -0.768179
     2  H    0.421766
     3  H    0.329228
     4  O   -0.833850
     5  H    0.444691
     6  H    0.406345
 Sum of Mulliken charges =   0.00000

 Dipole moment (field-independent basis, Debye):
    X=             -2.5185    Y=             -4.9917    Z=             -0.0000  Tot=              5.5911
 Quadrupole moment (field-independent basis, Debye-Ang):
   XX=             -9.6204   YY=             -9.5995   ZZ=            -15.0073
   XY=             -3.6564   XZ=             -0.0000   YZ=              0.0000

 953\MP4DQ=-33.8929305\MP4SDQ=-33.8951341\CCSD=-33.8959461\CCSD(T)=-33.
 Normal termination of Gaussian 16 at Sun Dec 10 06:29:05 2023.
