 Gaussian 16, Revision A.03,
 Gaussian 16:  ES64L-G16RevA.03 25-Dec-2016

 ------------------
 #p CCSD(T)/CEP-31G
 ------------------

 ----------
 H2O_H2O_11
 ----------
 Symbolic Z-matrix:
 Charge =  0 Multiplicity = 1

                         Standard orientation:
 ---------------------------------------------------------------------
 Center     Atomic      Atomic             Coordinates (Angstroms)
 Number     Number       Type             X           Y           Z
 ---------------------------------------------------------------------
      1          8           0        0.059778    1.111041    0.000000
      2          1           0        0.057013    0.128444    0.000000
      3          1           0       -0.868815    1.432322    0.000000
      4          8           0        0.059778   -0.933780    0.000000
      5          1           0        0.705570   -1.674360    0.000000
      6          1           0       -0.850211   -1.304493    0.000000
 ---------------------------------------------------------------------

 SCF Done:  E(RHF) =  -33.5789223978     A.U. after   11 cycles
 E2 =    -0.2273655589D+00 EUMP2 =    -0.33806287956781D+02
 CCSD(T)
 CCSD(T)= -0.33820728902D+02

 The electronic state is 1-A'.
 Alpha  occ. eigenvalues --   -1.47308  -1.26422  -0.82691  -0.78550  -0.59847
 Alpha  occ. eigenvalues --   -0.53596  -0.42850  -0.40174
 Alpha virt. eigenvalues --    0.15879   0.24272   0.30794   0.62461   0.73111
 Alpha virt. eigenvalues --    0.73681   0.86282   0.92010   0.92289   1.09247
 Alpha virt. eigenvalues --    1.11166   1.17560   1.30813   1.36934   3.04903

 Mulliken charges:
               1
     1  O   -0.728149
     2  H    0.258643
     3  H    0.292908
     4  O   -0.739761
     5  H    0.481180
     6  H    0.435179
 Sum of Mulliken charges =  -0.00000

 Dipole moment (field-independent basis, Debye):
    X=             -2.3661    Y=             -5.8380    Z=              0.0000  Tot=              6.2992
 Quadrupole moment (field-independent basis, Debye-Ang):
   XX=             -9.5498   YY=            -10.8946   ZZ=            -14.8965
   XY=             -3.1541   XZ=              0.0000   YZ=              0.0000

 5\MP4DQ=-33.8144144\MP4SDQ=-33.8168756\CCSD=-33.8174265\CCSD(T)=-33.82
 Normal termination of Gaussian 16 at Sun Dec 10 06:18:14 2023.
