 Gaussian 16, Revision A.03,
 Gaussian 16:  ES64L-G16RevA.03 25-Dec-2016

 ------------------
 #p CCSD(T)/CEP-31G
 ------------------

 ------------
 H2O_H2O_1812
 ------------
 Symbolic Z-matrix:
 Charge =  0 Multiplicity = 1

                         Standard orientation:
 ---------------------------------------------------------------------
 Center     Atomic      Atomic             Coordinates (Angstroms)
 Number     Number       Type             X           Y           Z
 ---------------------------------------------------------------------
      1          8           0        0.056028    1.829883    0.000000
      2          1           0        0.054225    0.847283    0.000000
      3          1           0       -0.872879    2.150254    0.000000
      4          8           0        0.056028   -1.651022   -0.000000
      5          1           0        0.749556   -2.347099   -0.000000
      6          1           0       -0.827346   -2.081322   -0.000000
 ---------------------------------------------------------------------

 SCF Done:  E(RHF) =  -33.6589725942     A.U. after   11 cycles
 E2 =    -0.2287027821D+00 EUMP2 =    -0.33887675376286D+02
 CCSD(T)
 CCSD(T)= -0.33904534033D+02

 The electronic state is 1-A'.
 Alpha  occ. eigenvalues --   -1.37581  -1.32891  -0.73237  -0.68570  -0.57868
 Alpha  occ. eigenvalues --   -0.52702  -0.52248  -0.47539
 Alpha virt. eigenvalues --    0.18002   0.24353   0.28824   0.36376   0.77912
 Alpha virt. eigenvalues --    0.82188   0.83363   0.85812   0.89868   0.92780
 Alpha virt. eigenvalues --    1.15484   1.20040   1.20527   1.33632   2.50740

 Mulliken charges:
               1
     1  O   -0.771586
     2  H    0.411928
     3  H    0.357548
     4  O   -0.767889
     5  H    0.390480
     6  H    0.379520
 Sum of Mulliken charges =  -0.00000

 Dipole moment (field-independent basis, Debye):
    X=             -2.5159    Y=             -4.4437    Z=             -0.0000  Tot=              5.1064
 Quadrupole moment (field-independent basis, Debye-Ang):
   XX=             -9.5770   YY=             -7.7147   ZZ=            -15.0030
   XY=             -4.6174   XZ=              0.0000   YZ=             -0.0000

 614\MP4DQ=-33.8987972\MP4SDQ=-33.9008799\CCSD=-33.9018984\CCSD(T)=-33.
 Normal termination of Gaussian 16 at Sun Dec 10 06:53:05 2023.
