 Gaussian 16, Revision A.03,
 Gaussian 16:  ES64L-G16RevA.03 25-Dec-2016

 ------------------
 #p CCSD(T)/CEP-31G
 ------------------

 ------------
 H2O_H2O_2926
 ------------
 Symbolic Z-matrix:
 Charge =  0 Multiplicity = 1

                         Standard orientation:
 ---------------------------------------------------------------------
 Center     Atomic      Atomic             Coordinates (Angstroms)
 Number     Number       Type             X           Y           Z
 ---------------------------------------------------------------------
      1          8           0        0.090685   -2.256804    0.000000
      2          1           0        0.090597   -1.274202    0.000000
      3          1           0       -0.838780   -2.575553    0.000000
      4          8           0        0.090685    2.118096    0.000000
      5          1           0        0.154863    3.098599    0.000000
      6          1           0       -0.857636    1.860818    0.000000
 ---------------------------------------------------------------------

 SCF Done:  E(RHF) =  -33.6526378542     A.U. after   11 cycles
 E2 =    -0.2284403668D+00 EUMP2 =    -0.33881078221046D+02
 CCSD(T)
 CCSD(T)= -0.33898067457D+02

 The electronic state is 1-A'.
 Alpha  occ. eigenvalues --   -1.36825  -1.34791  -0.72503  -0.70380  -0.56621
 Alpha  occ. eigenvalues --   -0.54524  -0.51401  -0.49362
 Alpha virt. eigenvalues --    0.17633   0.22089   0.29256   0.31641   0.79177
 Alpha virt. eigenvalues --    0.81186   0.82521   0.84156   0.85591   0.87682
 Alpha virt. eigenvalues --    1.15745   1.18652   1.20592   1.26427   2.56031

 Mulliken charges:
               1
     1  O   -0.744848
     2  H    0.380596
     3  H    0.363750
     4  O   -0.745245
     5  H    0.379275
     6  H    0.366472
 Sum of Mulliken charges =  -0.00000

 Dipole moment (field-independent basis, Debye):
    X=             -4.1459    Y=              3.3195    Z=              0.0000  Tot=              5.3111
 Quadrupole moment (field-independent basis, Debye-Ang):
   XX=            -11.1404   YY=             -9.1665   ZZ=            -14.9888
   XY=              2.5694   XZ=              0.0000   YZ=              0.0000

 6634\MP4DQ=-33.8924043\MP4SDQ=-33.8944471\CCSD=-33.8954912\CCSD(T)=-33
 Normal termination of Gaussian 16 at Sun Dec 10 06:25:40 2023.
