 Gaussian 16, Revision A.03,
 Gaussian 16:  ES64L-G16RevA.03 25-Dec-2016

 ------------------
 #p CCSD(T)/CEP-31G
 ------------------

 -----------
 H2O_H2O_355
 -----------
 Symbolic Z-matrix:
 Charge =  0 Multiplicity = 1

                         Standard orientation:
 ---------------------------------------------------------------------
 Center     Atomic      Atomic             Coordinates (Angstroms)
 Number     Number       Type             X           Y           Z
 ---------------------------------------------------------------------
      1          8           0        0.079890   -1.240713    0.000000
      2          1           0        0.078933   -0.258112    0.000000
      3          1           0       -0.849293   -1.560284    0.000000
      4          8           0        0.079890    1.081727    0.000000
      5          1           0        0.394831    2.012490    0.000000
      6          1           0       -0.902704    1.077791    0.000000
 ---------------------------------------------------------------------

 SCF Done:  E(RHF) =  -33.6317392179     A.U. after   11 cycles
 E2 =    -0.2285212407D+00 EUMP2 =    -0.33860260458595D+02
 CCSD(T)
 CCSD(T)= -0.33876012110D+02

 The electronic state is 1-A'.
 Alpha  occ. eigenvalues --   -1.42796  -1.29817  -0.79761  -0.71041  -0.57774
 Alpha  occ. eigenvalues --   -0.56625  -0.48329  -0.44071
 Alpha virt. eigenvalues --    0.16376   0.24826   0.28802   0.56406   0.73437
 Alpha virt. eigenvalues --    0.75643   0.86734   0.89437   0.96776   1.08248
 Alpha virt. eigenvalues --    1.14092   1.23898   1.25637   1.38345   2.82537

 Mulliken charges:
               1
     1  O   -0.720561
     2  H    0.349216
     3  H    0.318306
     4  O   -0.818990
     5  H    0.479318
     6  H    0.392712
 Sum of Mulliken charges =  -0.00000

 Dipole moment (field-independent basis, Debye):
    X=             -3.3383    Y=              4.8028    Z=              0.0000  Tot=              5.8490
 Quadrupole moment (field-independent basis, Debye-Ang):
   XX=            -10.5020   YY=             -9.8959   ZZ=            -14.9674
   XY=              2.9647   XZ=              0.0000   YZ=              0.0000

 7\MP4DQ=-33.8698253\MP4SDQ=-33.8721854\CCSD=-33.8729599\CCSD(T)=-33.87
 Normal termination of Gaussian 16 at Sun Dec 10 06:25:03 2023.
