 Gaussian 16, Revision A.03,
 Gaussian 16:  ES64L-G16RevA.03 25-Dec-2016

 ------------------
 #p CCSD(T)/CEP-31G
 ------------------

 -----------
 H2O_H2O_727
 -----------
 Symbolic Z-matrix:
 Charge =  0 Multiplicity = 1

                         Standard orientation:
 ---------------------------------------------------------------------
 Center     Atomic      Atomic             Coordinates (Angstroms)
 Number     Number       Type             X           Y           Z
 ---------------------------------------------------------------------
      1          8           0        0.088241   -1.382310    0.000000
      2          1           0        0.087935   -0.399709    0.000000
      3          1           0       -0.841153   -1.701266    0.000000
      4          8           0        0.088241    1.238014    0.000000
      5          1           0        0.216194    2.212248    0.000000
      6          1           0       -0.874834    1.043096    0.000000
 ---------------------------------------------------------------------

 SCF Done:  E(RHF) =  -33.6467750441     A.U. after   11 cycles
 E2 =    -0.2290863347D+00 EUMP2 =    -0.33875861378762D+02
 CCSD(T)
 CCSD(T)= -0.33892538083D+02

 The electronic state is 1-A'.
 Alpha  occ. eigenvalues --   -1.40362  -1.32201  -0.77232  -0.68544  -0.59300
 Alpha  occ. eigenvalues --   -0.54637  -0.51458  -0.46618
 Alpha virt. eigenvalues --    0.16555   0.25322   0.27709   0.47838   0.74212
 Alpha virt. eigenvalues --    0.78064   0.85175   0.86880   0.93362   1.11197
 Alpha virt. eigenvalues --    1.14348   1.23447   1.33141   1.36853   2.57555

 Mulliken charges:
               1
     1  O   -0.729334
     2  H    0.365660
     3  H    0.336456
     4  O   -0.787524
     5  H    0.442310
     6  H    0.372431
 Sum of Mulliken charges =   0.00000

 Dipole moment (field-independent basis, Debye):
    X=             -3.8451    Y=              4.0522    Z=              0.0000  Tot=              5.5861
 Quadrupole moment (field-independent basis, Debye-Ang):
   XX=            -11.0452   YY=             -9.5208   ZZ=            -14.9874
   XY=              2.5822   XZ=              0.0000   YZ=              0.0000

 P4DQ=-33.8864559\MP4SDQ=-33.8887553\CCSD=-33.8896599\CCSD(T)=-33.89253
 Normal termination of Gaussian 16 at Sun Dec 10 06:32:12 2023.
