 Gaussian 16, Revision A.03,
 Gaussian 16:  ES64L-G16RevA.03 25-Dec-2016

 ------------------
 #p CCSD(T)/CEP-31G
 ------------------

 -----------
 H2O_H2O_228
 -----------
 Symbolic Z-matrix:
 Charge =  0 Multiplicity = 1

                         Standard orientation:
 ---------------------------------------------------------------------
 Center     Atomic      Atomic             Coordinates (Angstroms)
 Number     Number       Type             X           Y           Z
 ---------------------------------------------------------------------
      1          8           0        0.085623   -1.185725    0.000000
      2          1           0        0.085061   -0.203123    0.000000
      3          1           0       -0.843688   -1.504922    0.000000
      4          8           0        0.085623    1.036177    0.000000
      5          1           0        0.276768    2.000009    0.000000
      6          1           0       -0.888104    0.904413    0.000000
 ---------------------------------------------------------------------

 SCF Done:  E(RHF) =  -33.6094065334     A.U. after   11 cycles
 E2 =    -0.2283585908D+00 EUMP2 =    -0.33837765124206D+02
 CCSD(T)
 CCSD(T)= -0.33853386383D+02

 The electronic state is 1-A'.
 Alpha  occ. eigenvalues --   -1.44530  -1.29679  -0.82290  -0.71231  -0.57579
 Alpha  occ. eigenvalues --   -0.57211  -0.47896  -0.43818
 Alpha virt. eigenvalues --    0.16124   0.23808   0.29350   0.58401   0.73152
 Alpha virt. eigenvalues --    0.75756   0.88033   0.89817   0.96769   1.09434
 Alpha virt. eigenvalues --    1.12628   1.22950   1.26044   1.44679   2.91141

 Mulliken charges:
               1
     1  O   -0.690588
     2  H    0.283510
     3  H    0.311715
     4  O   -0.783098
     5  H    0.490034
     6  H    0.388426
 Sum of Mulliken charges =   0.00000

 Dipole moment (field-independent basis, Debye):
    X=             -3.5620    Y=              4.7529    Z=              0.0000  Tot=              5.9396
 Quadrupole moment (field-independent basis, Debye-Ang):
   XX=            -10.8446   YY=            -10.1707   ZZ=            -14.9324
   XY=              2.6149   XZ=              0.0000   YZ=              0.0000

 64\MP4DQ=-33.8470603\MP4SDQ=-33.8495294\CCSD=-33.8502476\CCSD(T)=-33.8
 Normal termination of Gaussian 16 at Sun Dec 10 06:22:32 2023.
