 Gaussian 16, Revision A.03,
 Gaussian 16:  ES64L-G16RevA.03 25-Dec-2016

 ------------------
 #p CCSD(T)/CEP-31G
 ------------------

 ------------
 H2O_H2O_1608
 ------------
 Symbolic Z-matrix:
 Charge =  0 Multiplicity = 1

                         Standard orientation:
 ---------------------------------------------------------------------
 Center     Atomic      Atomic             Coordinates (Angstroms)
 Number     Number       Type             X           Y           Z
 ---------------------------------------------------------------------
      1          8           0        0.070225    1.745401   -0.000000
      2          1           0        0.069062    0.762800   -0.000000
      3          1           0       -0.858890    2.065167   -0.000000
      4          8           0        0.070225   -1.575200    0.000000
      5          1           0        0.560519   -2.426739    0.000000
      6          1           0       -0.894295   -1.762832    0.000000
 ---------------------------------------------------------------------

 SCF Done:  E(RHF) =  -33.6583313934     A.U. after   11 cycles
 E2 =    -0.2288351724D+00 EUMP2 =    -0.33887166565781D+02
 CCSD(T)
 CCSD(T)= -0.33904058837D+02

 The electronic state is 1-A'.
 Alpha  occ. eigenvalues --   -1.37864  -1.32917  -0.73575  -0.68611  -0.58124
 Alpha  occ. eigenvalues --   -0.52660  -0.52509  -0.47537
 Alpha virt. eigenvalues --    0.17625   0.24636   0.28524   0.37521   0.77393
 Alpha virt. eigenvalues --    0.81315   0.83701   0.85451   0.90345   0.98705
 Alpha virt. eigenvalues --    1.15111   1.19136   1.20949   1.36085   2.50369

 Mulliken charges:
               1
     1  O   -0.769417
     2  H    0.413303
     3  H    0.353899
     4  O   -0.771970
     5  H    0.397713
     6  H    0.376473
 Sum of Mulliken charges =   0.00000

 Dipole moment (field-independent basis, Debye):
    X=             -3.1442    Y=             -4.2843    Z=              0.0000  Tot=              5.3143
 Quadrupole moment (field-independent basis, Debye-Ang):
   XX=            -10.0345   YY=             -8.1745   ZZ=            -15.0015
   XY=             -3.8707   XZ=              0.0000   YZ=             -0.0000

 5514\MP4DQ=-33.8982747\MP4SDQ=-33.9003821\CCSD=-33.9013957\CCSD(T)=-33
 Normal termination of Gaussian 16 at Sun Dec 10 06:49:15 2023.
