 Gaussian 16, Revision A.03,
 Gaussian 16:  ES64L-G16RevA.03 25-Dec-2016

 ------------------
 #p CCSD(T)/CEP-31G
 ------------------

 -----------
 H2O_H2O_286
 -----------
 Symbolic Z-matrix:
 Charge =  0 Multiplicity = 1

                         Standard orientation:
 ---------------------------------------------------------------------
 Center     Atomic      Atomic             Coordinates (Angstroms)
 Number     Number       Type             X           Y           Z
 ---------------------------------------------------------------------
      1          8           0        0.059753    1.220748   -0.000000
      2          1           0        0.057256    0.238150   -0.000000
      3          1           0       -0.868927    1.541776   -0.000000
      4          8           0        0.059753   -1.043455    0.000000
      5          1           0        0.705749   -1.783858    0.000000
      6          1           0       -0.850134   -1.414415    0.000000
 ---------------------------------------------------------------------

 SCF Done:  E(RHF) =  -33.6339584928     A.U. after   11 cycles
 E2 =    -0.2285376845D+00 EUMP2 =    -0.33862496177243D+02
 CCSD(T)
 CCSD(T)= -0.33877596239D+02

 The electronic state is 1-A'.
 Alpha  occ. eigenvalues --   -1.43163  -1.28233  -0.78360  -0.74466  -0.57213
 Alpha  occ. eigenvalues --   -0.56536  -0.46281  -0.42445
 Alpha virt. eigenvalues --    0.16520   0.25671   0.29286   0.59139   0.73470
 Alpha virt. eigenvalues --    0.73825   0.86464   0.90560   0.94351   1.06176
 Alpha virt. eigenvalues --    1.12698   1.17839   1.25894   1.34786   2.84909

 Mulliken charges:
               1
     1  O   -0.752613
     2  H    0.381133
     3  H    0.314278
     4  O   -0.825409
     5  H    0.463318
     6  H    0.419292
 Sum of Mulliken charges =  -0.00000

 Dipole moment (field-independent basis, Debye):
    X=             -2.4488    Y=             -5.3318    Z=              0.0000  Tot=              5.8673
 Quadrupole moment (field-independent basis, Debye-Ang):
   XX=             -9.5916   YY=            -10.2136   ZZ=            -14.9747
   XY=             -3.4310   XZ=              0.0000   YZ=             -0.0000

 3\MP4DQ=-33.8714769\MP4SDQ=-33.8737671\CCSD=-33.8744582\CCSD(T)=-33.87
 Normal termination of Gaussian 16 at Sun Dec 10 06:23:41 2023.
