 Gaussian 16, Revision A.03,
 Gaussian 16:  ES64L-G16RevA.03 25-Dec-2016

 ------------------
 #p CCSD(T)/CEP-31G
 ------------------

 ------------
 H2O_H2O_3003
 ------------
 Symbolic Z-matrix:
 Charge =  0 Multiplicity = 1

                         Standard orientation:
 ---------------------------------------------------------------------
 Center     Atomic      Atomic             Coordinates (Angstroms)
 Number     Number       Type             X           Y           Z
 ---------------------------------------------------------------------
      1          8           0        0.085601   -2.292634    0.000000
      2          1           0        0.085320   -1.310032    0.000000
      3          1           0       -0.843800   -2.611566    0.000000
      4          8           0        0.085601    2.143038    0.000000
      5          1           0        0.277022    3.106814    0.000000
      6          1           0       -0.888162    2.011551    0.000000
 ---------------------------------------------------------------------

 SCF Done:  E(RHF) =  -33.6531452698     A.U. after   11 cycles
 E2 =    -0.2284052577D+00 EUMP2 =    -0.33881550527487D+02
 CCSD(T)
 CCSD(T)= -0.33898521854D+02

 The electronic state is 1-A'.
 Alpha  occ. eigenvalues --   -1.36772  -1.34613  -0.72441  -0.70208  -0.56593
 Alpha  occ. eigenvalues --   -0.54363  -0.51357  -0.49193
 Alpha virt. eigenvalues --    0.18097   0.21990   0.29309   0.31740   0.79220
 Alpha virt. eigenvalues --    0.81336   0.82483   0.84335   0.85438   0.87792
 Alpha virt. eigenvalues --    1.15978   1.18765   1.20623   1.25847   2.56210

 Mulliken charges:
               1
     1  O   -0.746723
     2  H    0.382401
     3  H    0.363797
     4  O   -0.746789
     5  H    0.379122
     6  H    0.368192
 Sum of Mulliken charges =   0.00000

 Dipole moment (field-independent basis, Debye):
    X=             -3.9134    Y=              3.5754    Z=              0.0000  Tot=              5.3008
 Quadrupole moment (field-independent basis, Debye-Ang):
   XX=            -10.8130   YY=             -8.4004   ZZ=            -14.9903
   XY=              3.1284   XZ=              0.0000   YZ=              0.0000

 217\MP4DQ=-33.8928656\MP4SDQ=-33.8949055\CCSD=-33.8959495\CCSD(T)=-33.
 Normal termination of Gaussian 16 at Sun Dec 10 06:27:07 2023.
