 Gaussian 16, Revision A.03,
 Gaussian 16:  ES64L-G16RevA.03 25-Dec-2016

 ------------------
 #p CCSD(T)/CEP-31G
 ------------------

 ------------
 H2O_H2O_1392
 ------------
 Symbolic Z-matrix:
 Charge =  0 Multiplicity = 1

                         Standard orientation:
 ---------------------------------------------------------------------
 Center     Atomic      Atomic             Coordinates (Angstroms)
 Number     Number       Type             X           Y           Z
 ---------------------------------------------------------------------
      1          8           0        0.037530    1.660383    0.000000
      2          1           0        0.034531    0.677786    0.000000
      3          1           0       -0.890986    1.981885    0.000000
      4          8           0        0.037530   -1.481489   -0.000000
      5          1           0        0.917468   -1.918770   -0.000000
      6          1           0       -0.661489   -2.172053   -0.000000
 ---------------------------------------------------------------------

 SCF Done:  E(RHF) =  -33.6621516504     A.U. after   11 cycles
 E2 =    -0.2288724916D+00 EUMP2 =    -0.33891024141930D+02
 CCSD(T)
 CCSD(T)= -0.33907735013D+02

 The electronic state is 1-A'.
 Alpha  occ. eigenvalues --   -1.38115  -1.32075  -0.73750  -0.68090  -0.58685
 Alpha  occ. eigenvalues --   -0.52831  -0.51840  -0.46753
 Alpha virt. eigenvalues --    0.17892   0.25517   0.28501   0.40304   0.76806
 Alpha virt. eigenvalues --    0.79760   0.84760   0.86246   0.91440   0.99197
 Alpha virt. eigenvalues --    1.15174   1.19174   1.21693   1.34330   2.49812

 Mulliken charges:
               1
     1  O   -0.783704
     2  H    0.425799
     3  H    0.356273
     4  O   -0.787530
     5  H    0.394732
     6  H    0.394430
 Sum of Mulliken charges =   0.00000

 Dipole moment (field-independent basis, Debye):
    X=             -1.6721    Y=             -4.5481    Z=             -0.0000  Tot=              4.8457
 Quadrupole moment (field-independent basis, Debye-Ang):
   XX=             -9.3813   YY=             -8.2218   ZZ=            -15.0115
   XY=             -4.8984   XZ=             -0.0000   YZ=              0.0000

 2\MP4DQ=-33.9019521\MP4SDQ=-33.9040445\CCSD=-33.9050367\CCSD(T)=-33.90
 Normal termination of Gaussian 16 at Sun Dec 10 06:44:56 2023.
