 Gaussian 16, Revision A.03,
 Gaussian 16:  ES64L-G16RevA.03 25-Dec-2016

 ------------------
 #p CCSD(T)/CEP-31G
 ------------------

 ------------
 H2O_H2O_4382
 ------------
 Symbolic Z-matrix:
 Charge =  0 Multiplicity = 1

                         Standard orientation:
 ---------------------------------------------------------------------
 Center     Atomic      Atomic             Coordinates (Angstroms)
 Number     Number       Type             X           Y           Z
 ---------------------------------------------------------------------
      1          8           0        0.073525    2.850522    0.000000
      2          1           0        0.072929    1.867921    0.000000
      3          1           0       -0.855775    3.169752    0.000000
      4          8           0        0.073525   -2.683561   -0.000000
      5          1           0        0.507584   -3.565093   -0.000000
      6          1           0       -0.901131   -2.808271   -0.000000
 ---------------------------------------------------------------------

 SCF Done:  E(RHF) =  -33.6528243507     A.U. after   11 cycles
 E2 =    -0.2283236907D+00 EUMP2 =    -0.33881148041457D+02
 CCSD(T)
 CCSD(T)= -0.33898119217D+02

 The electronic state is 1-A'.
 Alpha  occ. eigenvalues --   -1.36301  -1.34792  -0.71945  -0.70414  -0.56097
 Alpha  occ. eigenvalues --   -0.54554  -0.50887  -0.49378
 Alpha virt. eigenvalues --    0.19492   0.21101   0.29769   0.31365   0.79671
 Alpha virt. eigenvalues --    0.81148   0.82560   0.84154   0.85694   0.87312
 Alpha virt. eigenvalues --    1.16646   1.18156   1.21083   1.22697   2.56618

 Mulliken charges:
               1
     1  O   -0.745206
     2  H    0.378051
     3  H    0.367140
     4  O   -0.745120
     5  H    0.374918
     6  H    0.370217
 Sum of Mulliken charges =  -0.00000

 Dipole moment (field-independent basis, Debye):
    X=             -3.3784    Y=             -3.9212    Z=             -0.0000  Tot=              5.1759
 Quadrupole moment (field-independent basis, Debye-Ang):
   XX=            -10.1662   YY=             -6.3897   ZZ=            -14.9905
   XY=             -4.7032   XZ=              0.0000   YZ=             -0.0000

 9\MP4DQ=-33.8924818\MP4SDQ=-33.8945071\CCSD=-33.8955601\CCSD(T)=-33.89
 Normal termination of Gaussian 16 at Sun Dec 10 06:51:52 2023.
