 Gaussian 16, Revision A.03,
 Gaussian 16:  ES64L-G16RevA.03 25-Dec-2016

 ------------------
 #p CCSD(T)/CEP-31G
 ------------------

 ------------
 H2O_H2O_1290
 ------------
 Symbolic Z-matrix:
 Charge =  0 Multiplicity = 1

                         Standard orientation:
 ---------------------------------------------------------------------
 Center     Atomic      Atomic             Coordinates (Angstroms)
 Number     Number       Type             X           Y           Z
 ---------------------------------------------------------------------
      1          8           0        0.044937    1.621269    0.000000
      2          1           0        0.042271    0.638672    0.000000
      3          1           0       -0.883688    1.942457    0.000000
      4          8           0        0.044937   -1.440948   -0.000000
      5          1           0        0.860456   -1.989067   -0.000000
      6          1           0       -0.738037   -2.034630   -0.000000
 ---------------------------------------------------------------------

 SCF Done:  E(RHF) =  -33.6624641072     A.U. after   11 cycles
 E2 =    -0.2289715122D+00 EUMP2 =    -0.33891435619393D+02
 CCSD(T)
 CCSD(T)= -0.33908088758D+02

 The electronic state is 1-A'.
 Alpha  occ. eigenvalues --   -1.38308  -1.31839  -0.73923  -0.68028  -0.58879
 Alpha  occ. eigenvalues --   -0.53033  -0.51553  -0.46505
 Alpha virt. eigenvalues --    0.17815   0.25768   0.28362   0.41540   0.76480
 Alpha virt. eigenvalues --    0.79129   0.85192   0.85962   0.92800   0.99176
 Alpha virt. eigenvalues --    1.15019   1.19405   1.21715   1.34262   2.49982

 Mulliken charges:
               1
     1  O   -0.784324
     2  H    0.430265
     3  H    0.352903
     4  O   -0.792191
     5  H    0.400027
     6  H    0.393320
 Sum of Mulliken charges =   0.00000

 Dipole moment (field-independent basis, Debye):
    X=             -1.9908    Y=             -4.6168    Z=             -0.0000  Tot=              5.0277
 Quadrupole moment (field-independent basis, Debye-Ang):
   XX=             -9.3930   YY=             -8.3455   ZZ=            -15.0131
   XY=             -4.5758   XZ=             -0.0000   YZ=              0.0000

 863\MP4DQ=-33.9022898\MP4SDQ=-33.9043859\CCSD=-33.9053661\CCSD(T)=-33.
 Normal termination of Gaussian 16 at Sun Dec 10 06:42:54 2023.
