 Gaussian 16, Revision A.03,
 Gaussian 16:  ES64L-G16RevA.03 25-Dec-2016

 ------------------
 #p CCSD(T)/CEP-31G
 ------------------

 ------------
 H2O_H2O_2041
 ------------
 Symbolic Z-matrix:
 Charge =  0 Multiplicity = 1

                         Standard orientation:
 ---------------------------------------------------------------------
 Center     Atomic      Atomic             Coordinates (Angstroms)
 Number     Number       Type             X           Y           Z
 ---------------------------------------------------------------------
      1          8           0        0.041183    1.920189   -0.000000
      2          1           0        0.038780    0.937590   -0.000000
      3          1           0       -0.887528    2.241127    0.000000
      4          8           0        0.041183   -1.740303   -0.000000
      5          1           0        0.890937   -2.233683   -0.000000
      6          1           0       -0.701114   -2.384121    0.000000
 ---------------------------------------------------------------------

 SCF Done:  E(RHF) =  -33.6585666090     A.U. after   11 cycles
 E2 =    -0.2285615613D+00 EUMP2 =    -0.33887128170239D+02
 CCSD(T)
 CCSD(T)= -0.33903992753D+02

 The electronic state is 1-A'.
 Alpha  occ. eigenvalues --   -1.37336  -1.33115  -0.72984  -0.68772  -0.57554
 Alpha  occ. eigenvalues --   -0.52967  -0.52001  -0.47773
 Alpha virt. eigenvalues --    0.18194   0.23927   0.29049   0.35074   0.78344
 Alpha virt. eigenvalues --    0.82916   0.82940   0.86148   0.88251   0.89991
 Alpha virt. eigenvalues --    1.15775   1.20082   1.20517   1.32316   2.51933

 Mulliken charges:
               1
     1  O   -0.769647
     2  H    0.405716
     3  H    0.361633
     4  O   -0.763647
     5  H    0.384987
     6  H    0.380959
 Sum of Mulliken charges =   0.00000

 Dipole moment (field-independent basis, Debye):
    X=             -1.8561    Y=             -4.4221    Z=              0.0000  Tot=              4.7958
 Quadrupole moment (field-independent basis, Debye-Ang):
   XX=             -9.3989   YY=             -7.4264   ZZ=            -15.0021
   XY=             -5.4341   XZ=             -0.0000   YZ=              0.0000

 4\MP4DQ=-33.8982872\MP4SDQ=-33.9003587\CCSD=-33.901382\CCSD(T)=-33.903
 Normal termination of Gaussian 16 at Sun Dec 10 06:57:24 2023.
