 Gaussian 16, Revision A.03,
 Gaussian 16:  ES64L-G16RevA.03 25-Dec-2016

 ------------------
 #p CCSD(T)/CEP-31G
 ------------------

 ------------
 H2O_H2O_3294
 ------------
 Symbolic Z-matrix:
 Charge =  0 Multiplicity = 1

                         Standard orientation:
 ---------------------------------------------------------------------
 Center     Atomic      Atomic             Coordinates (Angstroms)
 Number     Number       Type             X           Y           Z
 ---------------------------------------------------------------------
      1          8           0        0.030183    2.416463    0.000000
      2          1           0        0.027895    1.433864    0.000000
      3          1           0       -0.898566    2.737292    0.000000
      4          8           0        0.030183   -2.240851    0.000000
      5          1           0        0.959901   -2.558863    0.000000
      6          1           0       -0.572157   -3.017184    0.000000
 ---------------------------------------------------------------------

 SCF Done:  E(RHF) =  -33.6549005817     A.U. after   11 cycles
 E2 =    -0.2282885029D+00 EUMP2 =    -0.33883189084575D+02
 CCSD(T)
 CCSD(T)= -0.33900104184D+02

 The electronic state is 1-A'.
 Alpha  occ. eigenvalues --   -1.36580  -1.34220  -0.72224  -0.69854  -0.56494
 Alpha  occ. eigenvalues --   -0.54048  -0.51197  -0.48840
 Alpha virt. eigenvalues --    0.19055   0.21968   0.29584   0.32135   0.79368
 Alpha virt. eigenvalues --    0.81646   0.82263   0.84561   0.85468   0.87781
 Alpha virt. eigenvalues --    1.16447   1.18987   1.20842   1.24505   2.56361

 Mulliken charges:
               1
     1  O   -0.753285
     2  H    0.385171
     3  H    0.367677
     4  O   -0.751617
     5  H    0.376631
     6  H    0.375423
 Sum of Mulliken charges =   0.00000

 Dipole moment (field-independent basis, Debye):
    X=             -1.3776    Y=             -4.1698    Z=              0.0000  Tot=              4.3915
 Quadrupole moment (field-independent basis, Debye-Ang):
   XX=             -9.4703   YY=             -6.4959   ZZ=            -14.9948
   XY=             -7.4009   XZ=              0.0000   YZ=              0.0000

 17\MP4DQ=-33.8944705\MP4SDQ=-33.8965001\CCSD=-33.8975435\CCSD(T)=-33.9
 Normal termination of Gaussian 16 at Sun Dec 10 06:32:21 2023.
