 Gaussian 16, Revision A.03,
 Gaussian 16:  ES64L-G16RevA.03 25-Dec-2016

 ------------------
 #p CCSD(T)/CEP-31G
 ------------------

 ------------
 H2O_H2O_1754
 ------------
 Symbolic Z-matrix:
 Charge =  0 Multiplicity = 1

                         Standard orientation:
 ---------------------------------------------------------------------
 Center     Atomic      Atomic             Coordinates (Angstroms)
 Number     Number       Type             X           Y           Z
 ---------------------------------------------------------------------
      1          8           0        0.082813   -1.796701    0.000000
      2          1           0        0.082312   -0.814099    0.000000
      3          1           0       -0.846517   -2.115841    0.000000
      4          8           0        0.082813    1.642203    0.000000
      5          1           0        0.336646    2.591452    0.000000
      6          1           0       -0.897451    1.574466    0.000000
 ---------------------------------------------------------------------

 SCF Done:  E(RHF) =  -33.6555763532     A.U. after   11 cycles
 E2 =    -0.2288283553D+00 EUMP2 =    -0.33884404708567D+02
 CCSD(T)
 CCSD(T)= -0.33901398619D+02

 The electronic state is 1-A'.
 Alpha  occ. eigenvalues --   -1.37727  -1.33659  -0.73501  -0.69229  -0.57765
 Alpha  occ. eigenvalues --   -0.53377  -0.52325  -0.48244
 Alpha virt. eigenvalues --    0.17191   0.24093   0.28534   0.35765   0.77706
 Alpha virt. eigenvalues --    0.81963   0.82898   0.85025   0.89054   0.97986
 Alpha virt. eigenvalues --    1.15176   1.18592   1.20972   1.37890   2.51836

 Mulliken charges:
               1
     1  O   -0.759127
     2  H    0.400720
     3  H    0.355554
     4  O   -0.760827
     5  H    0.393579
     6  H    0.370100
 Sum of Mulliken charges =  -0.00000

 Dipole moment (field-independent basis, Debye):
    X=             -3.7338    Y=              3.8623    Z=              0.0000  Tot=              5.3720
 Quadrupole moment (field-independent basis, Debye-Ang):
   XX=            -10.6677   YY=             -8.6079   ZZ=            -14.9944
   XY=              3.1552   XZ=              0.0000   YZ=              0.0000

 8871\MP4DQ=-33.8956135\MP4SDQ=-33.89773\CCSD=-33.8987502\CCSD(T)=-33.9
 Normal termination of Gaussian 16 at Sun Dec 10 06:52:00 2023.
