 Gaussian 16, Revision A.03,
 Gaussian 16:  ES64L-G16RevA.03 25-Dec-2016

 ------------------
 #p CCSD(T)/CEP-31G
 ------------------

 ------------
 H2O_H2O_4158
 ------------
 Symbolic Z-matrix:
 Charge =  0 Multiplicity = 1

                         Standard orientation:
 ---------------------------------------------------------------------
 Center     Atomic      Atomic             Coordinates (Angstroms)
 Number     Number       Type             X           Y           Z
 ---------------------------------------------------------------------
      1          8           0        0.070187    2.762569    0.000000
      2          1           0        0.069466    1.779968    0.000000
      3          1           0       -0.859072    3.081918   -0.000000
      4          8           0        0.070187   -2.592306    0.000000
      5          1           0        0.560863   -3.443624    0.000000
      6          1           0       -0.894249   -2.780370   -0.000000
 ---------------------------------------------------------------------

 SCF Done:  E(RHF) =  -33.6530638206     A.U. after   11 cycles
 E2 =    -0.2283164107D+00 EUMP2 =    -0.33881380231307D+02
 CCSD(T)
 CCSD(T)= -0.33898344439D+02

 The electronic state is 1-A'.
 Alpha  occ. eigenvalues --   -1.36348  -1.34691  -0.71992  -0.70311  -0.56158
 Alpha  occ. eigenvalues --   -0.54459  -0.50937  -0.49279
 Alpha virt. eigenvalues --    0.19437   0.21235   0.29731   0.31499   0.79623
 Alpha virt. eigenvalues --    0.81241   0.82473   0.84250   0.85633   0.87413
 Alpha virt. eigenvalues --    1.16609   1.18276   1.21037   1.22871   2.56575

 Mulliken charges:
               1
     1  O   -0.746137
     2  H    0.379260
     3  H    0.366843
     4  O   -0.745936
     5  H    0.375376
     6  H    0.370593
 Sum of Mulliken charges =  -0.00000

 Dipole moment (field-independent basis, Debye):
    X=             -3.2223    Y=             -4.0054    Z=             -0.0000  Tot=              5.1406
 Quadrupole moment (field-independent basis, Debye-Ang):
   XX=            -10.0248   YY=             -6.2548   ZZ=            -14.9910
   XY=             -4.9498   XZ=              0.0000   YZ=             -0.0000

 9624\MP4DQ=-33.8927083\MP4SDQ=-33.8947334\CCSD=-33.8957855\CCSD(T)=-33
 Normal termination of Gaussian 16 at Sun Dec 10 06:47:50 2023.
