 Gaussian 16, Revision A.03,
 Gaussian 16:  ES64L-G16RevA.03 25-Dec-2016

 ------------------
 #p CCSD(T)/CEP-31G
 ------------------

 ------------
 H2O_H2O_3430
 ------------
 Symbolic Z-matrix:
 Charge =  0 Multiplicity = 1

                         Standard orientation:
 ---------------------------------------------------------------------
 Center     Atomic      Atomic             Coordinates (Angstroms)
 Number     Number       Type             X           Y           Z
 ---------------------------------------------------------------------
      1          8           0        0.079850    2.467300    0.000000
      2          1           0        0.079384    1.484699    0.000000
      3          1           0       -0.849492    2.786407    0.000000
      4          8           0        0.079850   -2.308235    0.000000
      5          1           0        0.395255   -3.238839    0.000000
      6          1           0       -0.902746   -2.304790    0.000000
 ---------------------------------------------------------------------

 SCF Done:  E(RHF) =  -33.6531997433     A.U. after   11 cycles
 E2 =    -0.2283451338D+00 EUMP2 =    -0.33881544877136D+02
 CCSD(T)
 CCSD(T)= -0.33898507208D+02

 The electronic state is 1-A'.
 Alpha  occ. eigenvalues --   -1.36578  -1.34611  -0.72234  -0.70219  -0.56399
 Alpha  occ. eigenvalues --   -0.54374  -0.51167  -0.49197
 Alpha virt. eigenvalues --    0.18856   0.21572   0.29481   0.31647   0.79406
 Alpha virt. eigenvalues --    0.81320   0.82287   0.84342   0.85377   0.87660
 Alpha virt. eigenvalues --    1.16331   1.18521   1.20775   1.23884   2.56355

 Mulliken charges:
               1
     1  O   -0.746715
     2  H    0.381378
     3  H    0.365102
     4  O   -0.746730
     5  H    0.377464
     6  H    0.369501
 Sum of Mulliken charges =  -0.00000

 Dipole moment (field-independent basis, Debye):
    X=             -3.6570    Y=             -3.7733    Z=              0.0000  Tot=              5.2547
 Quadrupole moment (field-independent basis, Debye-Ang):
   XX=            -10.4806   YY=             -7.5666   ZZ=            -14.9909
   XY=             -3.7803   XZ=              0.0000   YZ=              0.0000

 1191\MP4DQ=-33.8928648\MP4SDQ=-33.8948951\CCSD=-33.8959434\CCSD(T)=-33
 Normal termination of Gaussian 16 at Sun Dec 10 06:34:46 2023.
