 Gaussian 16, Revision A.03,
 Gaussian 16:  ES64L-G16RevA.03 25-Dec-2016

 ------------------
 #p CCSD(T)/CEP-31G
 ------------------

 ------------
 H2O_H2O_1234
 ------------
 Symbolic Z-matrix:
 Charge =  0 Multiplicity = 1

                         Standard orientation:
 ---------------------------------------------------------------------
 Center     Atomic      Atomic             Coordinates (Angstroms)
 Number     Number       Type             X           Y           Z
 ---------------------------------------------------------------------
      1          8           0        0.066803    1.597365   -0.000000
      2          1           0        0.065332    0.614764   -0.000000
      3          1           0       -0.862211    1.917422   -0.000000
      4          8           0        0.066803   -1.424327    0.000000
      5          1           0        0.611484   -2.242147    0.000000
      6          1           0       -0.883459   -1.674342    0.000000
 ---------------------------------------------------------------------

 SCF Done:  E(RHF) =  -33.6602342470     A.U. after   11 cycles
 E2 =    -0.2290117254D+00 EUMP2 =    -0.33889245972419D+02
 CCSD(T)
 CCSD(T)= -0.33905979754D+02

 The electronic state is 1-A'.
 Alpha  occ. eigenvalues --   -1.38480  -1.32110  -0.74199  -0.68227  -0.58852
 Alpha  occ. eigenvalues --   -0.53153  -0.51749  -0.46725
 Alpha virt. eigenvalues --    0.17507   0.25631   0.28098   0.41631   0.76249
 Alpha virt. eigenvalues --    0.79221   0.85185   0.85423   0.92676   1.04507
 Alpha virt. eigenvalues --    1.15018   1.18463   1.21586   1.35859   2.50431

 Mulliken charges:
               1
     1  O   -0.775485
     2  H    0.425389
     3  H    0.348292
     4  O   -0.791802
     5  H    0.411223
     6  H    0.382384
 Sum of Mulliken charges =  -0.00000

 Dipole moment (field-independent basis, Debye):
    X=             -2.9481    Y=             -4.4718    Z=              0.0000  Tot=              5.3562
 Quadrupole moment (field-independent basis, Debye-Ang):
   XX=             -9.8934   YY=             -8.5136   ZZ=            -15.0081
   XY=             -3.8584   XZ=              0.0000   YZ=             -0.0000

 421\MP4DQ=-33.9001398\MP4SDQ=-33.902266\CCSD=-33.9032487\CCSD(T)=-33.9
 Normal termination of Gaussian 16 at Sun Dec 10 06:41:48 2023.
