 Gaussian 16, Revision A.03,
 Gaussian 16:  ES64L-G16RevA.03 25-Dec-2016

 ------------------
 #p CCSD(T)/CEP-31G
 ------------------

 ------------
 H2O_H2O_1591
 ------------
 Symbolic Z-matrix:
 Charge =  0 Multiplicity = 1

                         Standard orientation:
 ---------------------------------------------------------------------
 Center     Atomic      Atomic             Coordinates (Angstroms)
 Number     Number       Type             X           Y           Z
 ---------------------------------------------------------------------
      1          8           0        0.041207    1.740684   -0.000000
      2          1           0        0.038543    0.758086   -0.000000
      3          1           0       -0.887419    2.061869   -0.000000
      4          8           0        0.041207   -1.560820    0.000000
      5          1           0        0.890830   -2.054426    0.000000
      6          1           0       -0.701260   -2.204441    0.000000
 ---------------------------------------------------------------------

 SCF Done:  E(RHF) =  -33.6609586302     A.U. after   11 cycles
 E2 =    -0.2287851182D+00 EUMP2 =    -0.33889743748467D+02
 CCSD(T)
 CCSD(T)= -0.33906528640D+02

 The electronic state is 1-A'.
 Alpha  occ. eigenvalues --   -1.37822  -1.32446  -0.73461  -0.68260  -0.58290
 Alpha  occ. eigenvalues --   -0.52520  -0.52256  -0.47119
 Alpha virt. eigenvalues --    0.17992   0.24990   0.28701   0.38298   0.77387
 Alpha virt. eigenvalues --    0.80948   0.84055   0.86239   0.90461   0.96030
 Alpha virt. eigenvalues --    1.15326   1.19649   1.21154   1.33862   2.49865

 Mulliken charges:
               1
     1  O   -0.779411
     2  H    0.419823
     3  H    0.357761
     4  O   -0.777678
     5  H    0.391638
     6  H    0.387867
 Sum of Mulliken charges =  -0.00000

 Dipole moment (field-independent basis, Debye):
    X=             -1.8421    Y=             -4.5152    Z=              0.0000  Tot=              4.8765
 Quadrupole moment (field-independent basis, Debye-Ang):
   XX=             -9.3874   YY=             -7.9483   ZZ=            -15.0079
   XY=             -4.9867   XZ=              0.0000   YZ=             -0.0000

 0457\MP4DQ=-33.9007724\MP4SDQ=-33.9028574\CCSD=-33.9038645\CCSD(T)=-33
 Normal termination of Gaussian 16 at Sun Dec 10 06:48:54 2023.
