 Gaussian 16, Revision A.03,
 Gaussian 16:  ES64L-G16RevA.03 25-Dec-2016

 ------------------
 #p CCSD(T)/CEP-31G
 ------------------

 ------------
 H2O_H2O_4139
 ------------
 Symbolic Z-matrix:
 Charge =  0 Multiplicity = 1

                         Standard orientation:
 ---------------------------------------------------------------------
 Center     Atomic      Atomic             Coordinates (Angstroms)
 Number     Number       Type             X           Y           Z
 ---------------------------------------------------------------------
      1          8           0        0.048560    2.758112   -0.000000
      2          1           0        0.047148    1.775512   -0.000000
      3          1           0       -0.880475    3.078114   -0.000000
      4          8           0        0.048560   -2.577699    0.000000
      5          1           0        0.827250   -3.176988    0.000000
      6          1           0       -0.770876   -3.119946    0.000000
 ---------------------------------------------------------------------

 SCF Done:  E(RHF) =  -33.6535874480     A.U. after   11 cycles
 E2 =    -0.2282938430D+00 EUMP2 =    -0.33881881290932D+02
 CCSD(T)
 CCSD(T)= -0.33898830433D+02

 The electronic state is 1-A'.
 Alpha  occ. eigenvalues --   -1.36334  -1.34543  -0.71974  -0.70171  -0.56173
 Alpha  occ. eigenvalues --   -0.54333  -0.50932  -0.49142
 Alpha virt. eigenvalues --    0.19495   0.21402   0.29785   0.31675   0.79624
 Alpha virt. eigenvalues --    0.81368   0.82426   0.84370   0.85650   0.87489
 Alpha virt. eigenvalues --    1.16645   1.18448   1.21085   1.23013   2.56604

 Mulliken charges:
               1
     1  O   -0.748143
     2  H    0.380478
     3  H    0.367621
     4  O   -0.747456
     5  H    0.375109
     6  H    0.372391
 Sum of Mulliken charges =   0.00000

 Dipole moment (field-independent basis, Debye):
    X=             -2.2274    Y=             -4.2428    Z=              0.0000  Tot=              4.7920
 Quadrupole moment (field-independent basis, Debye-Ang):
   XX=             -9.4621   YY=             -5.4346   ZZ=            -14.9923
   XY=             -6.8422   XZ=              0.0000   YZ=             -0.0000

 499\MP4DQ=-33.8931983\MP4SDQ=-33.8952222\CCSD=-33.8962732\CCSD(T)=-33.
 Normal termination of Gaussian 16 at Sun Dec 10 06:47:29 2023.
