 Gaussian 16, Revision A.03,
 Gaussian 16:  ES64L-G16RevA.03 25-Dec-2016

 ------------------
 #p CCSD(T)/CEP-31G
 ------------------

 ------------
 H2O_H2O_2315
 ------------
 Symbolic Z-matrix:
 Charge =  0 Multiplicity = 1

                         Standard orientation:
 ---------------------------------------------------------------------
 Center     Atomic      Atomic             Coordinates (Angstroms)
 Number     Number       Type             X           Y           Z
 ---------------------------------------------------------------------
      1          8           0        0.044886    2.030143    0.000000
      2          1           0        0.042781    1.047544    0.000000
      3          1           0       -0.883923    2.350799    0.000000
      4          8           0        0.044886   -1.849771    0.000000
      5          1           0        0.860718   -2.397424    0.000000
      6          1           0       -0.737749   -2.443899    0.000000
 ---------------------------------------------------------------------

 SCF Done:  E(RHF) =  -33.6573269342     A.U. after   11 cycles
 E2 =    -0.2284685901D+00 EUMP2 =    -0.33885795524293D+02
 CCSD(T)
 CCSD(T)= -0.33902678330D+02

 The electronic state is 1-A'.
 Alpha  occ. eigenvalues --   -1.37123  -1.33423  -0.72771  -0.69052  -0.57224
 Alpha  occ. eigenvalues --   -0.53271  -0.51771  -0.48068
 Alpha virt. eigenvalues --    0.18338   0.23359   0.29197   0.33868   0.78710
 Alpha virt. eigenvalues --    0.82487   0.83791   0.85837   0.86105   0.88638
 Alpha virt. eigenvalues --    1.15972   1.20020   1.20439   1.30377   2.53409

 Mulliken charges:
               1
     1  O   -0.764077
     2  H    0.399280
     3  H    0.362741
     4  O   -0.758580
     5  H    0.382711
     6  H    0.377925
 Sum of Mulliken charges =  -0.00000

 Dipole moment (field-independent basis, Debye):
    X=             -2.0313    Y=             -4.3915    Z=              0.0000  Tot=              4.8385
 Quadrupole moment (field-independent basis, Debye-Ang):
   XX=             -9.4198   YY=             -7.1220   ZZ=            -14.9995
   XY=             -5.5194   XZ=              0.0000   YZ=              0.0000

 53\MP4DQ=-33.8969975\MP4SDQ=-33.8990591\CCSD=-33.9000871\CCSD(T)=-33.9
 Normal termination of Gaussian 16 at Sun Dec 10 07:04:02 2023.
