 Gaussian 16, Revision A.03,
 Gaussian 16:  ES64L-G16RevA.03 25-Dec-2016

 ------------------
 #p CCSD(T)/CEP-31G
 ------------------

 -----------
 H2O_H2O_930
 -----------
 Symbolic Z-matrix:
 Charge =  0 Multiplicity = 1

                         Standard orientation:
 ---------------------------------------------------------------------
 Center     Atomic      Atomic             Coordinates (Angstroms)
 Number     Number       Type             X           Y           Z
 ---------------------------------------------------------------------
      1          8           0        0.079877   -1.470080    0.000000
      2          1           0        0.079078   -0.487479    0.000000
      3          1           0       -0.849357   -1.789502    0.000000
      4          8           0        0.079877    1.311069    0.000000
      5          1           0        0.394967    2.241780    0.000000
      6          1           0       -0.902718    1.307290    0.000000
 ---------------------------------------------------------------------

 SCF Done:  E(RHF) =  -33.6557018222     A.U. after   11 cycles
 E2 =    -0.2290210310D+00 EUMP2 =    -0.33884722853256D+02
 CCSD(T)
 CCSD(T)= -0.33901423014D+02

 The electronic state is 1-A'.
 Alpha  occ. eigenvalues --   -1.39379  -1.32031  -0.75496  -0.68493  -0.59170
 Alpha  occ. eigenvalues --   -0.53922  -0.51458  -0.46552
 Alpha virt. eigenvalues --    0.16953   0.25883   0.27543   0.45114   0.75065
 Alpha virt. eigenvalues --    0.78227   0.85130   0.86241   0.93398   1.10684
 Alpha virt. eigenvalues --    1.16126   1.22410   1.22914   1.36904   2.53826

 Mulliken charges:
               1
     1  O   -0.757476
     2  H    0.406722
     3  H    0.341163
     4  O   -0.800568
     5  H    0.431691
     6  H    0.378467
 Sum of Mulliken charges =   0.00000

 Dipole moment (field-independent basis, Debye):
    X=             -3.4948    Y=              4.2841    Z=              0.0000  Tot=              5.5287
 Quadrupole moment (field-independent basis, Debye-Ang):
   XX=            -10.5180   YY=             -9.0611   ZZ=            -15.0015
   XY=              3.1578   XZ=              0.0000   YZ=              0.0000

 48\MP4DQ=-33.895467\MP4SDQ=-33.897673\CCSD=-33.8986227\CCSD(T)=-33.901
 Normal termination of Gaussian 16 at Sun Dec 10 06:36:00 2023.
