 Gaussian 16, Revision A.03,
 Gaussian 16:  ES64L-G16RevA.03 25-Dec-2016

 ------------------
 #p CCSD(T)/CEP-31G
 ------------------

 ------------
 H2O_H2O_4535
 ------------
 Symbolic Z-matrix:
 Charge =  0 Multiplicity = 1

                         Standard orientation:
 ---------------------------------------------------------------------
 Center     Atomic      Atomic             Coordinates (Angstroms)
 Number     Number       Type             X           Y           Z
 ---------------------------------------------------------------------
      1          8           0        0.063216    2.915012    0.000000
      2          1           0        0.062324    1.932411    0.000000
      3          1           0       -0.865987    3.234522   -0.000000
      4          8           0        0.063216   -2.739476    0.000000
      5          1           0        0.660678   -3.519568    0.000000
      6          1           0       -0.868477   -3.051654   -0.000000
 ---------------------------------------------------------------------

 SCF Done:  E(RHF) =  -33.6530136843     A.U. after   11 cycles
 E2 =    -0.2283141284D+00 EUMP2 =    -0.33881327812760D+02
 CCSD(T)
 CCSD(T)= -0.33898293330D+02

 The electronic state is 1-A'.
 Alpha  occ. eigenvalues --   -1.36260  -1.34732  -0.71902  -0.70357  -0.56066
 Alpha  occ. eigenvalues --   -0.54503  -0.50850  -0.49322
 Alpha virt. eigenvalues --    0.19562   0.21158   0.29824   0.31433   0.79705
 Alpha virt. eigenvalues --    0.81201   0.82585   0.84200   0.85745   0.87336
 Alpha virt. eigenvalues --    1.16695   1.18222   1.21137   1.22737   2.56672

 Mulliken charges:
               1
     1  O   -0.745921
     2  H    0.378321
     3  H    0.367591
     4  O   -0.745622
     5  H    0.374586
     6  H    0.371046
 Sum of Mulliken charges =   0.00000

 Dipole moment (field-independent basis, Debye):
    X=             -2.9050    Y=             -4.1176    Z=             -0.0000  Tot=              5.0392
 Quadrupole moment (field-independent basis, Debye-Ang):
   XX=             -9.7752   YY=             -5.5115   ZZ=            -14.9910
   XY=             -5.8045   XZ=              0.0000   YZ=             -0.0000

 9118\MP4DQ=-33.8926577\MP4SDQ=-33.8946824\CCSD=-33.8957351\CCSD(T)=-33
 Normal termination of Gaussian 16 at Sun Dec 10 06:54:38 2023.
