 Gaussian 16, Revision A.03,
 Gaussian 16:  ES64L-G16RevA.03 25-Dec-2016

 ------------------
 #p CCSD(T)/CEP-31G
 ------------------

 ------------
 H2O_H2O_4417
 ------------
 Symbolic Z-matrix:
 Charge =  0 Multiplicity = 1

                         Standard orientation:
 ---------------------------------------------------------------------
 Center     Atomic      Atomic             Coordinates (Angstroms)
 Number     Number       Type             X           Y           Z
 ---------------------------------------------------------------------
      1          8           0        0.037411    2.867033    0.000000
      2          1           0        0.035715    1.884433    0.000000
      3          1           0       -0.891530    3.187304   -0.000000
      4          8           0        0.037411   -2.688040    0.000000
      5          1           0        0.917928   -3.124154    0.000000
      6          1           0       -0.660692   -3.379530   -0.000000
 ---------------------------------------------------------------------

 SCF Done:  E(RHF) =  -33.6534705550     A.U. after   11 cycles
 E2 =    -0.2282928456D+00 EUMP2 =    -0.33881763400580D+02
 CCSD(T)
 CCSD(T)= -0.33898716280D+02

 The electronic state is 1-A'.
 Alpha  occ. eigenvalues --   -1.36268  -1.34639  -0.71908  -0.70271  -0.56099
 Alpha  occ. eigenvalues --   -0.54429  -0.50865  -0.49238
 Alpha virt. eigenvalues --    0.19578   0.21277   0.29844   0.31558   0.79688
 Alpha virt. eigenvalues --    0.81277   0.82522   0.84266   0.85725   0.87374
 Alpha virt. eigenvalues --    1.16706   1.18340   1.21146   1.22855   2.56669

 Mulliken charges:
               1
     1  O   -0.747678
     2  H    0.379112
     3  H    0.368549
     4  O   -0.747054
     5  H    0.374299
     6  H    0.372771
 Sum of Mulliken charges =   0.00000

 Dipole moment (field-independent basis, Debye):
    X=             -1.7173    Y=             -4.1996    Z=             -0.0000  Tot=              4.5371
 Quadrupole moment (field-independent basis, Debye-Ang):
   XX=             -9.4161   YY=             -5.2990   ZZ=            -14.9920
   XY=             -8.0538   XZ=              0.0000   YZ=             -0.0000

 359\MP4DQ=-33.8930839\MP4SDQ=-33.8951075\CCSD=-33.8961593\CCSD(T)=-33.
 Normal termination of Gaussian 16 at Sun Dec 10 06:52:30 2023.
