 Gaussian 16, Revision A.03,
 Gaussian 16:  ES64L-G16RevA.03 25-Dec-2016

 ------------------
 #p CCSD(T)/CEP-31G
 ------------------

 ------------
 H2O_H2O_2095
 ------------
 Symbolic Z-matrix:
 Charge =  0 Multiplicity = 1

                         Standard orientation:
 ---------------------------------------------------------------------
 Center     Atomic      Atomic             Coordinates (Angstroms)
 Number     Number       Type             X           Y           Z
 ---------------------------------------------------------------------
      1          8           0        0.026706    1.936501    0.000000
      2          1           0        0.023664    0.953905    0.000000
      3          1           0       -0.901796    2.258043    0.000000
      4          8           0        0.026706   -1.763306   -0.000000
      5          1           0        0.975034   -2.020558   -0.000000
      6          1           0       -0.524194   -2.576949   -0.000000
 ---------------------------------------------------------------------

 SCF Done:  E(RHF) =  -33.6583552016     A.U. after   11 cycles
 E2 =    -0.2285142191D+00 EUMP2 =    -0.33886869420701D+02
 CCSD(T)
 CCSD(T)= -0.33903747762D+02

 The electronic state is 1-A'.
 Alpha  occ. eigenvalues --   -1.37273  -1.33310  -0.72934  -0.68974  -0.57459
 Alpha  occ. eigenvalues --   -0.53177  -0.51933  -0.47974
 Alpha virt. eigenvalues --    0.18102   0.23796   0.29108   0.34659   0.78429
 Alpha virt. eigenvalues --    0.82699   0.82749   0.86003   0.87916   0.90391
 Alpha virt. eigenvalues --    1.15815   1.19969   1.20587   1.32964   2.52701

 Mulliken charges:
               1
     1  O   -0.768948
     2  H    0.401901
     3  H    0.364737
     4  O   -0.763493
     5  H    0.382659
     6  H    0.383145
 Sum of Mulliken charges =  -0.00000

 Dipole moment (field-independent basis, Debye):
    X=             -1.2037    Y=             -4.2466    Z=             -0.0000  Tot=              4.4139
 Quadrupole moment (field-independent basis, Debye-Ang):
   XX=             -9.5124   YY=             -7.6165   ZZ=            -15.0014
   XY=             -6.1735   XZ=             -0.0000   YZ=             -0.0000

 2946\MP4DQ=-33.8980444\MP4SDQ=-33.9001173\CCSD=-33.9011414\CCSD(T)=-33
 Normal termination of Gaussian 16 at Sun Dec 10 06:58:29 2023.
