 Gaussian 16, Revision A.03,
 Gaussian 16:  ES64L-G16RevA.03 25-Dec-2016

 ------------------
 #p CCSD(T)/CEP-31G
 ------------------

 ------------
 H2O_H2O_2966
 ------------
 Symbolic Z-matrix:
 Charge =  0 Multiplicity = 1

                         Standard orientation:
 ---------------------------------------------------------------------
 Center     Atomic      Atomic             Coordinates (Angstroms)
 Number     Number       Type             X           Y           Z
 ---------------------------------------------------------------------
      1          8           0        0.041146    2.289167    0.000000
      2          1           0        0.039146    1.306567    0.000000
      3          1           0       -0.887697    2.609724   -0.000000
      4          8           0        0.041146   -2.109247    0.000000
      5          1           0        0.891103   -2.602278    0.000000
      6          1           0       -0.700887   -2.753370   -0.000000
 ---------------------------------------------------------------------

 SCF Done:  E(RHF) =  -33.6554959310     A.U. after   11 cycles
 E2 =    -0.2283271025D+00 EUMP2 =    -0.33883823033542D+02
 CCSD(T)
 CCSD(T)= -0.33900725801D+02

 The electronic state is 1-A'.
 Alpha  occ. eigenvalues --   -1.36731  -1.33968  -0.72377  -0.69593  -0.56685
 Alpha  occ. eigenvalues --   -0.53801  -0.51356  -0.48593
 Alpha virt. eigenvalues --    0.18825   0.22356   0.29489   0.32470   0.79211
 Alpha virt. eigenvalues --    0.81887   0.82689   0.84657   0.85416   0.88024
 Alpha virt. eigenvalues --    1.16320   1.19357   1.20741   1.25843   2.55868

 Mulliken charges:
               1
     1  O   -0.755761
     2  H    0.389077
     3  H    0.365786
     4  O   -0.753045
     5  H    0.378522
     6  H    0.375421
 Sum of Mulliken charges =   0.00000

 Dipole moment (field-independent basis, Debye):
    X=             -1.8742    Y=             -4.3020    Z=             -0.0000  Tot=              4.6925
 Quadrupole moment (field-independent basis, Debye-Ang):
   XX=             -9.4079   YY=             -6.5223   ZZ=            -14.9960
   XY=             -6.3316   XZ=              0.0000   YZ=             -0.0000

 9\MP4DQ=-33.8950838\MP4SDQ=-33.8971215\CCSD=-33.8981597\CCSD(T)=-33.90
 Normal termination of Gaussian 16 at Sun Dec 10 06:26:23 2023.
