 Gaussian 16, Revision A.03,
 Gaussian 16:  ES64L-G16RevA.03 25-Dec-2016

 ------------------
 #p CCSD(T)/CEP-31G
 ------------------

 ------------
 H2O_H2O_4546
 ------------
 Symbolic Z-matrix:
 Charge =  0 Multiplicity = 1

                         Standard orientation:
 ---------------------------------------------------------------------
 Center     Atomic      Atomic             Coordinates (Angstroms)
 Number     Number       Type             X           Y           Z
 ---------------------------------------------------------------------
      1          8           0       -0.023164    2.912234    0.000000
      2          1           0       -0.021070    1.929634    0.000000
      3          1           0        0.905648    3.232880    0.000000
      4          8           0       -0.023164   -2.741822    0.000000
      5          1           0       -0.986474   -2.935571    0.000000
      6          1           0        0.472523   -3.590232    0.000000
 ---------------------------------------------------------------------

 SCF Done:  E(RHF) =  -33.6534000740     A.U. after   11 cycles
 E2 =    -0.2282912851D+00 EUMP2 =    -0.33881691359094D+02
 CCSD(T)
 CCSD(T)= -0.33898646994D+02

 The electronic state is 1-A'.
 Alpha  occ. eigenvalues --   -1.36240  -1.34754  -0.71880  -0.70391  -0.56065
 Alpha  occ. eigenvalues --   -0.54545  -0.50836  -0.49353
 Alpha virt. eigenvalues --    0.19606   0.21148   0.29868   0.31426   0.79715
 Alpha virt. eigenvalues --    0.81165   0.82568   0.84149   0.85747   0.87246
 Alpha virt. eigenvalues --    1.16731   1.18223   1.21170   1.22723   2.56695

 Mulliken charges:
               1
     1  O   -0.747394
     2  H    0.377847
     3  H    0.369538
     4  O   -0.746912
     5  H    0.373585
     6  H    0.373336
 Sum of Mulliken charges =  -0.00000

 Dipole moment (field-independent basis, Debye):
    X=              1.0636    Y=             -3.9933    Z=              0.0000  Tot=              4.1326
 Quadrupole moment (field-independent basis, Debye-Ang):
   XX=             -9.5985   YY=             -5.9445   ZZ=            -14.9918
   XY=              9.5283   XZ=              0.0000   YZ=              0.0000

 663\MP4DQ=-33.893014\MP4SDQ=-33.8950376\CCSD=-33.8960899\CCSD(T)=-33.8
 Normal termination of Gaussian 16 at Sun Dec 10 06:54:49 2023.
