 Gaussian 16, Revision A.03,
 Gaussian 16:  ES64L-G16RevA.03 25-Dec-2016

 ------------------
 #p CCSD(T)/CEP-31G
 ------------------

 ------------
 H2O_H2O_2894
 ------------
 Symbolic Z-matrix:
 Charge =  0 Multiplicity = 1

                         Standard orientation:
 ---------------------------------------------------------------------
 Center     Atomic      Atomic             Coordinates (Angstroms)
 Number     Number       Type             X           Y           Z
 ---------------------------------------------------------------------
      1          8           0        0.030198    2.256907   -0.000000
      2          1           0        0.027742    1.274308   -0.000000
      3          1           0       -0.898496    2.577895   -0.000000
      4          8           0        0.030198   -2.081306    0.000000
      5          1           0        0.959861   -2.399477    0.000000
      6          1           0       -0.572275   -2.857536    0.000000
 ---------------------------------------------------------------------

 SCF Done:  E(RHF) =  -33.6557507539     A.U. after   11 cycles
 E2 =    -0.2283260632D+00 EUMP2 =    -0.33884076817086D+02
 CCSD(T)
 CCSD(T)= -0.33900976363D+02

 The electronic state is 1-A'.
 Alpha  occ. eigenvalues --   -1.36758  -1.33978  -0.72405  -0.69611  -0.56726
 Alpha  occ. eigenvalues --   -0.53821  -0.51386  -0.48609
 Alpha virt. eigenvalues --    0.18712   0.22424   0.29452   0.32533   0.79177
 Alpha virt. eigenvalues --    0.81873   0.82785   0.84526   0.85617   0.87960
 Alpha virt. eigenvalues --    1.16291   1.19403   1.20701   1.26450   2.55784

 Mulliken charges:
               1
     1  O   -0.756869
     2  H    0.389032
     3  H    0.366863
     4  O   -0.753996
     5  H    0.378166
     6  H    0.376805
 Sum of Mulliken charges =   0.00000

 Dipole moment (field-independent basis, Debye):
    X=             -1.3737    Y=             -4.2032    Z=              0.0000  Tot=              4.4220
 Quadrupole moment (field-independent basis, Debye-Ang):
   XX=             -9.4676   YY=             -6.8228   ZZ=            -14.9964
   XY=             -6.9351   XZ=              0.0000   YZ=             -0.0000

 5764\MP4DQ=-33.8953319\MP4SDQ=-33.8973715\CCSD=-33.8984086\CCSD(T)=-33
 Normal termination of Gaussian 16 at Sun Dec 10 06:25:05 2023.
