 Gaussian 16, Revision A.03,
 Gaussian 16:  ES64L-G16RevA.03 25-Dec-2016

 ------------------
 #p CCSD(T)/CEP-31G
 ------------------

 ------------
 H2O_H2O_3615
 ------------
 Symbolic Z-matrix:
 Charge =  0 Multiplicity = 1

                         Standard orientation:
 ---------------------------------------------------------------------
 Center     Atomic      Atomic             Coordinates (Angstroms)
 Number     Number       Type             X           Y           Z
 ---------------------------------------------------------------------
      1          8           0        0.044845    2.548703   -0.000000
      2          1           0        0.043185    1.566103   -0.000000
      3          1           0       -0.884108    2.868939   -0.000000
      4          8           0        0.044845   -2.368290    0.000000
      5          1           0        0.860925   -2.915574    0.000000
      6          1           0       -0.737521   -2.962772    0.000000
 ---------------------------------------------------------------------

 SCF Done:  E(RHF) =  -33.6542487867     A.U. after   11 cycles
 E2 =    -0.2282888342D+00 EUMP2 =    -0.33882537620870D+02
 CCSD(T)
 CCSD(T)= -0.33899468158D+02

 The electronic state is 1-A'.
 Alpha  occ. eigenvalues --   -1.36475  -1.34329  -0.72118  -0.69955  -0.56353
 Alpha  occ. eigenvalues --   -0.54136  -0.51083  -0.48938
 Alpha virt. eigenvalues --    0.19285   0.21726   0.29679   0.31948   0.79479
 Alpha virt. eigenvalues --    0.81559   0.82239   0.84580   0.85483   0.87704
 Alpha virt. eigenvalues --    1.16531   1.18754   1.20964   1.23616   2.56492

 Mulliken charges:
               1
     1  O   -0.750699
     2  H    0.383502
     3  H    0.366989
     4  O   -0.749540
     5  H    0.376307
     6  H    0.373441
 Sum of Mulliken charges =  -0.00000

 Dipole moment (field-independent basis, Debye):
    X=             -2.0519    Y=             -4.2657    Z=              0.0000  Tot=              4.7336
 Quadrupole moment (field-independent basis, Debye-Ang):
   XX=             -9.4266   YY=             -5.9073   ZZ=            -14.9936
   XY=             -6.6839   XZ=              0.0000   YZ=             -0.0000

 0857\MP4DQ=-33.8938367\MP4SDQ=-33.8958626\CCSD=-33.8969099\CCSD(T)=-33
 Normal termination of Gaussian 16 at Sun Dec 10 06:38:03 2023.
