 Gaussian 16, Revision A.03,
 Gaussian 16:  ES64L-G16RevA.03 25-Dec-2016

 ------------------
 #p CCSD(T)/CEP-31G
 ------------------

 ------------
 H2O_H2O_1004
 ------------
 Symbolic Z-matrix:
 Charge =  0 Multiplicity = 1

                         Standard orientation:
 ---------------------------------------------------------------------
 Center     Atomic      Atomic             Coordinates (Angstroms)
 Number     Number       Type             X           Y           Z
 ---------------------------------------------------------------------
      1          8           0        0.082821   -1.497534    0.000000
      2          1           0        0.082215   -0.514932    0.000000
      3          1           0       -0.846475   -1.816773    0.000000
      4          8           0        0.082821    1.343054    0.000000
      5          1           0        0.336553    2.292330    0.000000
      6          1           0       -0.897435    1.275211    0.000000
 ---------------------------------------------------------------------

 SCF Done:  E(RHF) =  -33.6551029280     A.U. after   11 cycles
 E2 =    -0.2290512240D+00 EUMP2 =    -0.33884154152011D+02
 CCSD(T)
 CCSD(T)= -0.33900966685D+02

 The electronic state is 1-A'.
 Alpha  occ. eigenvalues --   -1.39175  -1.32439  -0.75331  -0.68511  -0.59063
 Alpha  occ. eigenvalues --   -0.53708  -0.51919  -0.46962
 Alpha virt. eigenvalues --    0.16903   0.25626   0.27604   0.43712   0.75290
 Alpha virt. eigenvalues --    0.78826   0.85052   0.85736   0.92509   1.11339
 Alpha virt. eigenvalues --    1.15932   1.22497   1.22800   1.37478   2.52209

 Mulliken charges:
               1
     1  O   -0.755423
     2  H    0.402239
     3  H    0.343298
     4  O   -0.791205
     5  H    0.426189
     6  H    0.374903
 Sum of Mulliken charges =  -0.00000

 Dipole moment (field-independent basis, Debye):
    X=             -3.6464    Y=              4.1300    Z=              0.0000  Tot=              5.5094
 Quadrupole moment (field-independent basis, Debye-Ang):
   XX=            -10.6896   YY=             -9.0730   ZZ=            -14.9987
   XY=              3.0039   XZ=              0.0000   YZ=              0.0000

 89\MP4DQ=-33.8950166\MP4SDQ=-33.8972234\CCSD=-33.8981868\CCSD(T)=-33.9
 Normal termination of Gaussian 16 at Sun Dec 10 06:37:23 2023.
