 Gaussian 16, Revision A.03,
 Gaussian 16:  ES64L-G16RevA.03 25-Dec-2016

 ------------------
 #p CCSD(T)/CEP-31G
 ------------------

 ------------
 H2O_H2O_2348
 ------------
 Symbolic Z-matrix:
 Charge =  0 Multiplicity = 1

                         Standard orientation:
 ---------------------------------------------------------------------
 Center     Atomic      Atomic             Coordinates (Angstroms)
 Number     Number       Type             X           Y           Z
 ---------------------------------------------------------------------
      1          8           0       -0.016665    2.030888    0.000000
      2          1           0       -0.013342    1.048292    0.000000
      3          1           0        0.911745    2.352695    0.000000
      4          8           0       -0.016665   -1.867514    0.000000
      5          1           0       -0.996940   -1.935093    0.000000
      6          1           0        0.365175   -2.772888    0.000000
 ---------------------------------------------------------------------

 SCF Done:  E(RHF) =  -33.6570624438     A.U. after   11 cycles
 E2 =    -0.2284280857D+00 EUMP2 =    -0.33885490529497D+02
 CCSD(T)
 CCSD(T)= -0.33902391943D+02

 The electronic state is 1-A'.
 Alpha  occ. eigenvalues --   -1.37071  -1.33781  -0.72741  -0.69437  -0.57136
 Alpha  occ. eigenvalues --   -0.53649  -0.51712  -0.48435
 Alpha virt. eigenvalues --    0.17988   0.23259   0.29237   0.33443   0.78756
 Alpha virt. eigenvalues --    0.82143   0.82934   0.85148   0.87701   0.88411
 Alpha virt. eigenvalues --    1.15936   1.19799   1.20534   1.31742   2.54531

 Mulliken charges:
               1
     1  O   -0.763315
     2  H    0.393573
     3  H    0.367908
     4  O   -0.759283
     5  H    0.379492
     6  H    0.381624
 Sum of Mulliken charges =   0.00000

 Dipole moment (field-independent basis, Debye):
    X=              0.7524    Y=             -3.9653    Z=              0.0000  Tot=              4.0360
 Quadrupole moment (field-independent basis, Debye-Ang):
   XX=             -9.7602   YY=             -7.8542   ZZ=            -14.9985
   XY=              7.0956   XZ=              0.0000   YZ=              0.0000

 9555\MP4DQ=-33.896709\MP4SDQ=-33.8987728\CCSD=-33.8998012\CCSD(T)=-33.
 Normal termination of Gaussian 16 at Sun Dec 10 07:04:39 2023.
