 Gaussian 16, Revision A.03,
 Gaussian 16:  ES64L-G16RevA.03 25-Dec-2016

 ------------------
 #p CCSD(T)/CEP-31G
 ------------------

 -----------
 H2O_H2O_905
 -----------
 Symbolic Z-matrix:
 Charge =  0 Multiplicity = 1

                         Standard orientation:
 ---------------------------------------------------------------------
 Center     Atomic      Atomic             Coordinates (Angstroms)
 Number     Number       Type             X           Y           Z
 ---------------------------------------------------------------------
      1          8           0        0.079877   -1.460108    0.000000
      2          1           0        0.079072   -0.477507    0.000000
      3          1           0       -0.849354   -1.779535    0.000000
      4          8           0        0.079877    1.301097    0.000000
      5          1           0        0.394963    2.231811    0.000000
      6          1           0       -0.902717    1.297313    0.000000
 ---------------------------------------------------------------------

 SCF Done:  E(RHF) =  -33.6554298610     A.U. after   11 cycles
 E2 =    -0.2290157675D+00 EUMP2 =    -0.33884445628469D+02
 CCSD(T)
 CCSD(T)= -0.33901123001D+02

 The electronic state is 1-A'.
 Alpha  occ. eigenvalues --   -1.39465  -1.31962  -0.75605  -0.68513  -0.59190
 Alpha  occ. eigenvalues --   -0.54000  -0.51369  -0.46478
 Alpha virt. eigenvalues --    0.16935   0.25912   0.27528   0.45523   0.74977
 Alpha virt. eigenvalues --    0.78099   0.85137   0.86370   0.93567   1.10594
 Alpha virt. eigenvalues --    1.16060   1.22501   1.23454   1.36804   2.54371

 Mulliken charges:
               1
     1  O   -0.756542
     2  H    0.405825
     3  H    0.340488
     4  O   -0.802075
     5  H    0.433436
     6  H    0.378869
 Sum of Mulliken charges =   0.00000

 Dipole moment (field-independent basis, Debye):
    X=             -3.4898    Y=              4.2991    Z=              0.0000  Tot=              5.5372
 Quadrupole moment (field-independent basis, Debye-Ang):
   XX=            -10.5183   YY=             -9.0876   ZZ=            -15.0014
   XY=              3.1511   XZ=              0.0000   YZ=              0.0000

 898\MP4DQ=-33.8951597\MP4SDQ=-33.8973701\CCSD=-33.8983151\CCSD(T)=-33.
 Normal termination of Gaussian 16 at Sun Dec 10 06:35:32 2023.
