 Gaussian 16, Revision A.03,
 Gaussian 16:  ES64L-G16RevA.03 25-Dec-2016

 ------------------
 #p CCSD(T)/CEP-31G
 ------------------

 ------------
 H2O_H2O_2228
 ------------
 Symbolic Z-matrix:
 Charge =  0 Multiplicity = 1

                         Standard orientation:
 ---------------------------------------------------------------------
 Center     Atomic      Atomic             Coordinates (Angstroms)
 Number     Number       Type             X           Y           Z
 ---------------------------------------------------------------------
      1          8           0        0.085605   -1.983500    0.000000
      2          1           0        0.085278   -1.000898    0.000000
      3          1           0       -0.843782   -2.302475    0.000000
      4          8           0        0.085605    1.833912    0.000000
      5          1           0        0.276981    2.797697    0.000000
      6          1           0       -0.888153    1.702380    0.000000
 ---------------------------------------------------------------------

 SCF Done:  E(RHF) =  -33.6541292071     A.U. after   11 cycles
 E2 =    -0.2286281975D+00 EUMP2 =    -0.33882757404633D+02
 CCSD(T)
 CCSD(T)= -0.33899749672D+02

 The electronic state is 1-A'.
 Alpha  occ. eigenvalues --   -1.37265  -1.34213  -0.72980  -0.69777  -0.57167
 Alpha  occ. eigenvalues --   -0.53953  -0.51855  -0.48794
 Alpha virt. eigenvalues --    0.17220   0.23160   0.28903   0.33236   0.78572
 Alpha virt. eigenvalues --    0.81910   0.82872   0.84720   0.88077   0.89817
 Alpha virt. eigenvalues --    1.15475   1.19077   1.20502   1.33660   2.54571

 Mulliken charges:
               1
     1  O   -0.752176
     2  H    0.390576
     3  H    0.359852
     4  O   -0.751224
     5  H    0.384842
     6  H    0.368130
 Sum of Mulliken charges =  -0.00000

 Dipole moment (field-independent basis, Debye):
    X=             -3.8888    Y=              3.6555    Z=              0.0000  Tot=              5.3372
 Quadrupole moment (field-independent basis, Debye-Ang):
   XX=            -10.8248   YY=             -8.6407   ZZ=            -14.9914
   XY=              3.0136   XZ=              0.0000   YZ=              0.0000

 7\MP4DQ=-33.8940318\MP4SDQ=-33.8961122\CCSD=-33.8971426\CCSD(T)=-33.89
 Normal termination of Gaussian 16 at Sun Dec 10 07:01:22 2023.
