 Gaussian 16, Revision A.03,
 Gaussian 16:  ES64L-G16RevA.03 25-Dec-2016

 ------------------
 #p CCSD(T)/CEP-31G
 ------------------

 ------------
 H2O_H2O_2049
 ------------
 Symbolic Z-matrix:
 Charge =  0 Multiplicity = 1

                         Standard orientation:
 ---------------------------------------------------------------------
 Center     Atomic      Atomic             Coordinates (Angstroms)
 Number     Number       Type             X           Y           Z
 ---------------------------------------------------------------------
      1          8           0       -0.013577    1.908982    0.000000
      2          1           0       -0.009892    0.926387    0.000000
      3          1           0        0.914715    2.231131    0.000000
      4          8           0       -0.013577   -1.749739    0.000000
      5          1           0       -0.996171   -1.753424    0.000000
      6          1           0        0.308573   -2.678032    0.000000
 ---------------------------------------------------------------------

 SCF Done:  E(RHF) =  -33.6579594592     A.U. after   11 cycles
 E2 =    -0.2285186931D+00 EUMP2 =    -0.33886478152311D+02
 CCSD(T)
 CCSD(T)= -0.33903385311D+02

 The electronic state is 1-A'.
 Alpha  occ. eigenvalues --   -1.37304  -1.33589  -0.73001  -0.69261  -0.57454
 Alpha  occ. eigenvalues --   -0.53458  -0.51951  -0.48255
 Alpha virt. eigenvalues --    0.17741   0.23852   0.29078   0.34531   0.78345
 Alpha virt. eigenvalues --    0.82375   0.82504   0.85567   0.87809   0.92404
 Alpha virt. eigenvalues --    1.15776   1.19701   1.20609   1.35033   2.53535

 Mulliken charges:
               1
     1  O   -0.767944
     2  H    0.397601
     3  H    0.367939
     4  O   -0.764164
     5  H    0.380909
     6  H    0.385659
 Sum of Mulliken charges =   0.00000

 Dipole moment (field-independent basis, Debye):
    X=              0.6105    Y=             -3.9076    Z=              0.0000  Tot=              3.9550
 Quadrupole moment (field-independent basis, Debye-Ang):
   XX=             -9.8595   YY=             -8.2219   ZZ=            -14.9999
   XY=              6.8648   XZ=              0.0000   YZ=              0.0000

 196\MP4DQ=-33.8976685\MP4SDQ=-33.8997504\CCSD=-33.9007739\CCSD(T)=-33.
 Normal termination of Gaussian 16 at Sun Dec 10 06:57:34 2023.
