 Gaussian 16, Revision A.03,
 Gaussian 16:  ES64L-G16RevA.03 25-Dec-2016

 ------------------
 #p CCSD(T)/CEP-31G
 ------------------

 ------------
 H2O_H2O_1832
 ------------
 Symbolic Z-matrix:
 Charge =  0 Multiplicity = 1

                         Standard orientation:
 ---------------------------------------------------------------------
 Center     Atomic      Atomic             Coordinates (Angstroms)
 Number     Number       Type             X           Y           Z
 ---------------------------------------------------------------------
      1          8           0        0.073554    1.833360   -0.000000
      2          1           0        0.072612    0.850759   -0.000000
      3          1           0       -0.855633    2.152917   -0.000000
      4          8           0        0.073554   -1.666450    0.000000
      5          1           0        0.507302   -2.548135    0.000000
      6          1           0       -0.901146   -1.790816    0.000000
 ---------------------------------------------------------------------

 SCF Done:  E(RHF) =  -33.6569843548     A.U. after   11 cycles
 E2 =    -0.2287365219D+00 EUMP2 =    -0.33885720876722D+02
 CCSD(T)
 CCSD(T)= -0.33902658231D+02

 The electronic state is 1-A'.
 Alpha  occ. eigenvalues --   -1.37602  -1.33337  -0.73309  -0.68952  -0.57734
 Alpha  occ. eigenvalues --   -0.53098  -0.52230  -0.47949
 Alpha virt. eigenvalues --    0.17617   0.24075   0.28707   0.35695   0.77924
 Alpha virt. eigenvalues --    0.82216   0.83008   0.85315   0.89358   0.94852
 Alpha virt. eigenvalues --    1.15317   1.19385   1.20675   1.35754   2.51546

 Mulliken charges:
               1
     1  O   -0.764138
     2  H    0.405446
     3  H    0.356332
     4  O   -0.763417
     5  H    0.391984
     6  H    0.373792
 Sum of Mulliken charges =  -0.00000

 Dipole moment (field-independent basis, Debye):
    X=             -3.3138    Y=             -4.1513    Z=              0.0000  Tot=              5.3118
 Quadrupole moment (field-independent basis, Debye-Ang):
   XX=            -10.1810   YY=             -8.0883   ZZ=            -14.9981
   XY=             -3.7766   XZ=              0.0000   YZ=             -0.0000

 1689\MP4DQ=-33.8969019\MP4SDQ=-33.899\CCSD=-33.900022\CCSD(T)=-33.9026
 Normal termination of Gaussian 16 at Sun Dec 10 06:53:28 2023.
