 Gaussian 16, Revision A.03,
 Gaussian 16:  ES64L-G16RevA.03 25-Dec-2016

 ------------------
 #p CCSD(T)/CEP-31G
 ------------------

 ------------
 H2O_H2O_2114
 ------------
 Symbolic Z-matrix:
 Charge =  0 Multiplicity = 1

                         Standard orientation:
 ---------------------------------------------------------------------
 Center     Atomic      Atomic             Coordinates (Angstroms)
 Number     Number       Type             X           Y           Z
 ---------------------------------------------------------------------
      1          8           0        0.048616    1.950357    0.000000
      2          1           0        0.046591    0.967758    0.000000
      3          1           0       -0.880219    2.270938    0.000000
      4          8           0        0.048616   -1.770004   -0.000000
      5          1           0        0.826931   -2.369779   -0.000000
      6          1           0       -0.771157   -2.311741   -0.000000
 ---------------------------------------------------------------------

 SCF Done:  E(RHF) =  -33.6579963516     A.U. after   11 cycles
 E2 =    -0.2285467105D+00 EUMP2 =    -0.33886543062068D+02
 CCSD(T)
 CCSD(T)= -0.33903418776D+02

 The electronic state is 1-A'.
 Alpha  occ. eigenvalues --   -1.37283  -1.33215  -0.72933  -0.68853  -0.57454
 Alpha  occ. eigenvalues --   -0.53056  -0.51940  -0.47863
 Alpha virt. eigenvalues --    0.18214   0.23743   0.29068   0.34687   0.78453
 Alpha virt. eigenvalues --    0.82782   0.83292   0.85896   0.88023   0.89225
 Alpha virt. eigenvalues --    1.15814   1.20152   1.20372   1.31804   2.52305

 Mulliken charges:
               1
     1  O   -0.767191
     2  H    0.403933
     3  H    0.361015
     4  O   -0.761451
     5  H    0.385014
     6  H    0.378679
 Sum of Mulliken charges =  -0.00000

 Dipole moment (field-independent basis, Debye):
    X=             -2.1944    Y=             -4.4227    Z=             -0.0000  Tot=              4.9371
 Quadrupole moment (field-independent basis, Debye-Ang):
   XX=             -9.4533   YY=             -7.3332   ZZ=            -15.0009
   XY=             -5.1690   XZ=             -0.0000   YZ=              0.0000

 9713\MP4DQ=-33.8977189\MP4SDQ=-33.8997884\CCSD=-33.9008134\CCSD(T)=-33
 Normal termination of Gaussian 16 at Sun Dec 10 06:58:50 2023.
