 Gaussian 16, Revision A.03,
 Gaussian 16:  ES64L-G16RevA.03 25-Dec-2016

 ------------------
 #p CCSD(T)/CEP-31G
 ------------------

 ------------
 H2O_H2O_1142
 ------------
 Symbolic Z-matrix:
 Charge =  0 Multiplicity = 1

                         Standard orientation:
 ---------------------------------------------------------------------
 Center     Atomic      Atomic             Coordinates (Angstroms)
 Number     Number       Type             X           Y           Z
 ---------------------------------------------------------------------
      1          8           0        0.037548    1.560656    0.000000
      2          1           0        0.034346    0.578060    0.000000
      3          1           0       -0.890901    1.882350    0.000000
      4          8           0        0.037548   -1.381778    0.000000
      5          1           0        0.917397   -1.819241    0.000000
      6          1           0       -0.661613   -2.072198    0.000000
 ---------------------------------------------------------------------

 SCF Done:  E(RHF) =  -33.6631995372     A.U. after   11 cycles
 E2 =    -0.2289808028D+00 EUMP2 =    -0.33892180340015D+02
 CCSD(T)
 CCSD(T)= -0.33908731529D+02

 The electronic state is 1-A'.
 Alpha  occ. eigenvalues --   -1.38609  -1.31481  -0.74219  -0.68048  -0.59155
 Alpha  occ. eigenvalues --   -0.53347  -0.51127  -0.46148
 Alpha virt. eigenvalues --    0.17740   0.26219   0.28172   0.43484   0.75975
 Alpha virt. eigenvalues --    0.78130   0.85856   0.86055   0.93314   1.01011
 Alpha virt. eigenvalues --    1.15171   1.18779   1.22415   1.35059   2.51179

 Mulliken charges:
               1
     1  O   -0.786798
     2  H    0.432500
     3  H    0.352397
     4  O   -0.802124
     5  H    0.401210
     6  H    0.402815
 Sum of Mulliken charges =  -0.00000

 Dipole moment (field-independent basis, Debye):
    X=             -1.6622    Y=             -4.6403    Z=              0.0000  Tot=              4.9290
 Quadrupole moment (field-independent basis, Debye-Ang):
   XX=             -9.3693   YY=             -8.5755   ZZ=            -15.0163
   XY=             -4.6186   XZ=              0.0000   YZ=              0.0000

 2176\MP4DQ=-33.9029105\MP4SDQ=-33.9050146\CCSD=-33.9059752\CCSD(T)=-33
 Normal termination of Gaussian 16 at Sun Dec 10 06:39:59 2023.
