 Gaussian 16, Revision A.03,
 Gaussian 16:  ES64L-G16RevA.03 25-Dec-2016

 ------------------
 #p CCSD(T)/CEP-31G
 ------------------

 ------------
 H2O_H2O_2555
 ------------
 Symbolic Z-matrix:
 Charge =  0 Multiplicity = 1

                         Standard orientation:
 ---------------------------------------------------------------------
 Center     Atomic      Atomic             Coordinates (Angstroms)
 Number     Number       Type             X           Y           Z
 ---------------------------------------------------------------------
      1          8           0        0.079856    2.118276    0.000000
      2          1           0        0.079311    1.135675    0.000000
      3          1           0       -0.849460    2.437458    0.000000
      4          8           0        0.079856   -1.959223   -0.000000
      5          1           0        0.395188   -2.889854   -0.000000
      6          1           0       -0.902739   -1.955700   -0.000000
 ---------------------------------------------------------------------

 SCF Done:  E(RHF) =  -33.6543313191     A.U. after   11 cycles
 E2 =    -0.2284834679D+00 EUMP2 =    -0.33882814786991D+02
 CCSD(T)
 CCSD(T)= -0.33899772281D+02

 The electronic state is 1-A'.
 Alpha  occ. eigenvalues --   -1.37012  -1.34191  -0.72690  -0.69777  -0.56909
 Alpha  occ. eigenvalues --   -0.53958  -0.51611  -0.48784
 Alpha virt. eigenvalues --    0.17828   0.22649   0.29118   0.32584   0.78929
 Alpha virt. eigenvalues --    0.81773   0.83098   0.84767   0.86366   0.88175
 Alpha virt. eigenvalues --    1.15823   1.19291   1.20460   1.29633   2.55308

 Mulliken charges:
               1
     1  O   -0.751984
     2  H    0.388993
     3  H    0.361707
     4  O   -0.750625
     5  H    0.381945
     6  H    0.369964
 Sum of Mulliken charges =  -0.00000

 Dipole moment (field-independent basis, Debye):
    X=             -3.6369    Y=             -3.8456    Z=             -0.0000  Tot=              5.2930
 Quadrupole moment (field-independent basis, Debye-Ang):
   XX=            -10.4885   YY=             -7.9934   ZZ=            -14.9927
   XY=             -3.5608   XZ=              0.0000   YZ=              0.0000

 477\MP4DQ=-33.894093\MP4SDQ=-33.896151\CCSD=-33.8971863\CCSD(T)=-33.89
 Normal termination of Gaussian 16 at Sun Dec 10 06:19:00 2023.
