 Gaussian 16, Revision A.03,
 Gaussian 16:  ES64L-G16RevA.03 25-Dec-2016

 ------------------
 #p CCSD(T)/CEP-31G
 ------------------

 ------------
 H2O_H2O_1541
 ------------
 Symbolic Z-matrix:
 Charge =  0 Multiplicity = 1

                         Standard orientation:
 ---------------------------------------------------------------------
 Center     Atomic      Atomic             Coordinates (Angstroms)
 Number     Number       Type             X           Y           Z
 ---------------------------------------------------------------------
      1          8           0        0.041210    1.720739   -0.000000
      2          1           0        0.038513    0.738141   -0.000000
      3          1           0       -0.887405    2.041954   -0.000000
      4          8           0        0.041210   -1.540877    0.000000
      5          1           0        0.890817   -2.034511    0.000000
      6          1           0       -0.701279   -2.184474    0.000000
 ---------------------------------------------------------------------

 SCF Done:  E(RHF) =  -33.6612476814     A.U. after   11 cycles
 E2 =    -0.2288130532D+00 EUMP2 =    -0.33890060734530D+02
 CCSD(T)
 CCSD(T)= -0.33906829489D+02

 The electronic state is 1-A'.
 Alpha  occ. eigenvalues --   -1.37890  -1.32355  -0.73528  -0.68208  -0.58387
 Alpha  occ. eigenvalues --   -0.52593  -0.52155  -0.47029
 Alpha virt. eigenvalues --    0.17967   0.25117   0.28653   0.38770   0.77250
 Alpha virt. eigenvalues --    0.80668   0.84222   0.86222   0.90760   0.96734
 Alpha virt. eigenvalues --    1.15272   1.19584   1.21251   1.33929   2.49758

 Mulliken charges:
               1
     1  O   -0.780465
     2  H    0.421542
     3  H    0.357201
     4  O   -0.779843
     5  H    0.392627
     6  H    0.388939
 Sum of Mulliken charges =  -0.00000

 Dipole moment (field-independent basis, Debye):
    X=             -1.8402    Y=             -4.5282    Z=              0.0000  Tot=              4.8878
 Quadrupole moment (field-independent basis, Debye-Ang):
   XX=             -9.3856   YY=             -8.0116   ZZ=            -15.0088
   XY=             -4.9362   XZ=              0.0000   YZ=             -0.0000

 434\MP4DQ=-33.9010668\MP4SDQ=-33.9031534\CCSD=-33.9041573\CCSD(T)=-33.
 Normal termination of Gaussian 16 at Sun Dec 10 06:47:54 2023.
