 Gaussian 16, Revision A.03,
 Gaussian 16:  ES64L-G16RevA.03 25-Dec-2016

 ------------------
 #p CCSD(T)/CEP-31G
 ------------------

 ------------
 H2O_H2O_4931
 ------------
 Symbolic Z-matrix:
 Charge =  0 Multiplicity = 1

                         Standard orientation:
 ---------------------------------------------------------------------
 Center     Atomic      Atomic             Coordinates (Angstroms)
 Number     Number       Type             X           Y           Z
 ---------------------------------------------------------------------
      1          8           0        0.076746    3.067878   -0.000000
      2          1           0        0.076286    2.085277   -0.000000
      3          1           0       -0.852598    3.386980   -0.000000
      4          8           0        0.076746   -2.904647    0.000000
      5          1           0        0.452347   -3.812628    0.000000
      6          1           0       -0.903971   -2.965480    0.000000
 ---------------------------------------------------------------------

 SCF Done:  E(RHF) =  -33.6525059150     A.U. after   11 cycles
 E2 =    -0.2283355033D+00 EUMP2 =    -0.33880841418338D+02
 CCSD(T)
 CCSD(T)= -0.33897821723D+02

 The electronic state is 1-A'.
 Alpha  occ. eigenvalues --   -1.36203  -1.34953  -0.71845  -0.70576  -0.55980
 Alpha  occ. eigenvalues --   -0.54706  -0.50784  -0.49534
 Alpha virt. eigenvalues --    0.19597   0.20896   0.29854   0.31156   0.79771
 Alpha virt. eigenvalues --    0.81000   0.82713   0.84006   0.85824   0.87149
 Alpha virt. eigenvalues --    1.16731   1.17978   1.21180   1.22468   2.56726

 Mulliken charges:
               1
     1  O   -0.743948
     2  H    0.376124
     3  H    0.367822
     4  O   -0.743943
     5  H    0.374011
     6  H    0.369934
 Sum of Mulliken charges =  -0.00000

 Dipole moment (field-independent basis, Debye):
    X=             -3.5319    Y=             -3.8216    Z=              0.0000  Tot=              5.2038
 Quadrupole moment (field-independent basis, Debye-Ang):
   XX=            -10.3154   YY=             -6.4117   ZZ=            -14.9898
   XY=             -4.5257   XZ=              0.0000   YZ=             -0.0000

 388\MP4DQ=-33.8921825\MP4SDQ=-33.8942082\CCSD=-33.8952623\CCSD(T)=-33.
 Normal termination of Gaussian 16 at Sun Dec 10 07:02:57 2023.
