 Gaussian 16, Revision A.03,
 Gaussian 16:  ES64L-G16RevA.03 25-Dec-2016

 ------------------
 #p CCSD(T)/CEP-31G
 ------------------

 ------------
 H2O_H2O_4279
 ------------
 Symbolic Z-matrix:
 Charge =  0 Multiplicity = 1

                         Standard orientation:
 ---------------------------------------------------------------------
 Center     Atomic      Atomic             Coordinates (Angstroms)
 Number     Number       Type             X           Y           Z
 ---------------------------------------------------------------------
      1          8           0        0.082799    2.803881    0.000000
      2          1           0        0.082483    1.821280    0.000000
      3          1           0       -0.846592    3.122846   -0.000000
      4          8           0        0.082799   -2.649353    0.000000
      5          1           0        0.336809   -3.598554    0.000000
      6          1           0       -0.897479   -2.581800   -0.000000
 ---------------------------------------------------------------------

 SCF Done:  E(RHF) =  -33.6525245299     A.U. after   11 cycles
 E2 =    -0.2283381373D+00 EUMP2 =    -0.33880862667264D+02
 CCSD(T)
 CCSD(T)= -0.33897843029D+02

 The electronic state is 1-A'.
 Alpha  occ. eigenvalues --   -1.36336  -1.34914  -0.71983  -0.70531  -0.56117
 Alpha  occ. eigenvalues --   -0.54664  -0.50917  -0.49493
 Alpha virt. eigenvalues --    0.19399   0.20991   0.29719   0.31217   0.79645
 Alpha virt. eigenvalues --    0.81038   0.82554   0.84050   0.85653   0.87237
 Alpha virt. eigenvalues --    1.16592   1.18032   1.21041   1.22584   2.56529

 Mulliken charges:
               1
     1  O   -0.744059
     2  H    0.377135
     3  H    0.366907
     4  O   -0.744225
     5  H    0.375079
     6  H    0.369163
 Sum of Mulliken charges =  -0.00000

 Dipole moment (field-independent basis, Debye):
    X=             -3.8050    Y=             -3.6326    Z=             -0.0000  Tot=              5.2606
 Quadrupole moment (field-independent basis, Debye-Ang):
   XX=            -10.6382   YY=             -7.5674   ZZ=            -14.9897
   XY=             -3.6501   XZ=              0.0000   YZ=             -0.0000

 94\MP4DQ=-33.8922029\MP4SDQ=-33.8942291\CCSD=-33.8952825\CCSD(T)=-33.8
 Normal termination of Gaussian 16 at Sun Dec 10 06:50:01 2023.
