 Gaussian 16, Revision A.03,
 Gaussian 16:  ES64L-G16RevA.03 25-Dec-2016

 ------------------
 #p CCSD(T)/CEP-31G
 ------------------

 -----------
 H2O_H2O_692
 -----------
 Symbolic Z-matrix:
 Charge =  0 Multiplicity = 1

                         Standard orientation:
 ---------------------------------------------------------------------
 Center     Atomic      Atomic             Coordinates (Angstroms)
 Number     Number       Type             X           Y           Z
 ---------------------------------------------------------------------
      1          8           0        0.037589    1.381146   -0.000000
      2          1           0        0.033942    0.398551   -0.000000
      3          1           0       -0.890715    1.703260    0.000000
      4          8           0        0.037589   -1.202301   -0.000000
      5          1           0        0.917239   -1.640162   -0.000000
      6          1           0       -0.661885   -1.892405    0.000000
 ---------------------------------------------------------------------

 SCF Done:  E(RHF) =  -33.6601485691     A.U. after   11 cycles
 E2 =    -0.2289330957D+00 EUMP2 =    -0.33889081664786D+02
 CCSD(T)
 CCSD(T)= -0.33905043135D+02

 The electronic state is 1-A'.
 Alpha  occ. eigenvalues --   -1.40121  -1.29969  -0.75557  -0.69719  -0.59036
 Alpha  occ. eigenvalues --   -0.54811  -0.49113  -0.44535
 Alpha virt. eigenvalues --    0.17346   0.27294   0.27688   0.51258   0.74459
 Alpha virt. eigenvalues --    0.75203   0.85736   0.88283   0.96332   0.99681
 Alpha virt. eigenvalues --    1.15449   1.18256   1.24131   1.37189   2.61661

 Mulliken charges:
               1
     1  O   -0.782066
     2  H    0.429194
     3  H    0.341075
     4  O   -0.829901
     5  H    0.417926
     6  H    0.423773
 Sum of Mulliken charges =  -0.00000

 Dipole moment (field-independent basis, Debye):
    X=             -1.6339    Y=             -4.9100    Z=              0.0000  Tot=              5.1747
 Quadrupole moment (field-independent basis, Debye-Ang):
   XX=             -9.3384   YY=             -9.3519   ZZ=            -15.0181
   XY=             -4.0953   XZ=             -0.0000   YZ=              0.0000

 756\MP4DQ=-33.8991267\MP4SDQ=-33.9012751\CCSD=-33.902128\CCSD(T)=-33.9
 Normal termination of Gaussian 16 at Sun Dec 10 06:31:32 2023.
