 Gaussian 16, Revision A.03,
 Gaussian 16:  ES64L-G16RevA.03 25-Dec-2016

 ------------------
 #p CCSD(T)/CEP-31G
 ------------------

 ------------
 H2O_H2O_1790
 ------------
 Symbolic Z-matrix:
 Charge =  0 Multiplicity = 1

                         Standard orientation:
 ---------------------------------------------------------------------
 Center     Atomic      Atomic             Coordinates (Angstroms)
 Number     Number       Type             X           Y           Z
 ---------------------------------------------------------------------
      1          8           0        0.044909    1.820722    0.000000
      2          1           0        0.042550    0.838123    0.000000
      3          1           0       -0.883816    2.141618    0.000000
      4          8           0        0.044909   -1.640372   -0.000000
      5          1           0        0.860600   -2.188236   -0.000000
      6          1           0       -0.737880   -2.234298   -0.000000
 ---------------------------------------------------------------------

 SCF Done:  E(RHF) =  -33.6597177794     A.U. after   11 cycles
 E2 =    -0.2286887239D+00 EUMP2 =    -0.33888406503215D+02
 CCSD(T)
 CCSD(T)= -0.33905240391D+02

 The electronic state is 1-A'.
 Alpha  occ. eigenvalues --   -1.37587  -1.32772  -0.73231  -0.68481  -0.57931
 Alpha  occ. eigenvalues --   -0.52603  -0.52267  -0.47435
 Alpha virt. eigenvalues --    0.18077   0.24487   0.28859   0.36655   0.77871
 Alpha virt. eigenvalues --    0.81998   0.83477   0.86154   0.89629   0.92901
 Alpha virt. eigenvalues --    1.15527   1.19953   1.20746   1.33352   2.50563

 Mulliken charges:
               1
     1  O   -0.774529
     2  H    0.413388
     3  H    0.359017
     4  O   -0.769933
     5  H    0.388920
     6  H    0.383137
 Sum of Mulliken charges =   0.00000

 Dipole moment (field-independent basis, Debye):
    X=             -2.0153    Y=             -4.4817    Z=             -0.0000  Tot=              4.9140
 Quadrupole moment (field-independent basis, Debye-Ang):
   XX=             -9.4108   YY=             -7.6957   ZZ=            -15.0048
   XY=             -5.0421   XZ=             -0.0000   YZ=              0.0000

 707\MP4DQ=-33.8995074\MP4SDQ=-33.9015867\CCSD=-33.9026034\CCSD(T)=-33.
 Normal termination of Gaussian 16 at Sun Dec 10 06:52:40 2023.
