 Gaussian 16, Revision A.03,
 Gaussian 16:  ES64L-G16RevA.03 25-Dec-2016

 ------------------
 #p CCSD(T)/CEP-31G
 ------------------

 ------------
 H2O_H2O_4374
 ------------
 Symbolic Z-matrix:
 Charge =  0 Multiplicity = 1

                         Standard orientation:
 ---------------------------------------------------------------------
 Center     Atomic      Atomic             Coordinates (Angstroms)
 Number     Number       Type             X           Y           Z
 ---------------------------------------------------------------------
      1          8           0       -0.013476    2.836384    0.000000
      2          1           0       -0.011031    1.853786    0.000000
      3          1           0        0.915221    3.157362    0.000000
      4          8           0       -0.013476   -2.677108    0.000000
      5          1           0       -0.996075   -2.679552    0.000000
      6          1           0        0.307502   -3.605805    0.000000
 ---------------------------------------------------------------------

 SCF Done:  E(RHF) =  -33.6534533711     A.U. after   11 cycles
 E2 =    -0.2282859644D+00 EUMP2 =    -0.33881739335502D+02
 CCSD(T)
 CCSD(T)= -0.33898694486D+02

 The electronic state is 1-A'.
 Alpha  occ. eigenvalues --   -1.36274  -1.34819  -0.71916  -0.70460  -0.56101
 Alpha  occ. eigenvalues --   -0.54614  -0.50869  -0.49420
 Alpha virt. eigenvalues --    0.19548   0.21100   0.29840   0.31360   0.79683
 Alpha virt. eigenvalues --    0.81098   0.82526   0.84080   0.85688   0.87178
 Alpha virt. eigenvalues --    1.16698   1.18168   1.21136   1.22684   2.56634

 Mulliken charges:
               1
     1  O   -0.747605
     2  H    0.377364
     3  H    0.370227
     4  O   -0.747268
     5  H    0.373245
     6  H    0.374037
 Sum of Mulliken charges =  -0.00000

 Dipole moment (field-independent basis, Debye):
    X=              0.6187    Y=             -3.7348    Z=              0.0000  Tot=              3.7857
 Quadrupole moment (field-independent basis, Debye-Ang):
   XX=             -9.8764   YY=             -7.0532   ZZ=            -14.9918
   XY=             10.2813   XZ=              0.0000   YZ=              0.0000

 134\MP4DQ=-33.8930613\MP4SDQ=-33.895085\CCSD=-33.8961371\CCSD(T)=-33.8
 Normal termination of Gaussian 16 at Sun Dec 10 06:51:44 2023.
