 Gaussian 16, Revision A.03,
 Gaussian 16:  ES64L-G16RevA.03 25-Dec-2016

 ------------------
 #p CCSD(T)/CEP-31G
 ------------------

 ------------
 H2O_H2O_4808
 ------------
 Symbolic Z-matrix:
 Charge =  0 Multiplicity = 1

                         Standard orientation:
 ---------------------------------------------------------------------
 Center     Atomic      Atomic             Coordinates (Angstroms)
 Number     Number       Type             X           Y           Z
 ---------------------------------------------------------------------
      1          8           0        0.070181    3.021844   -0.000000
      2          1           0        0.069524    2.039243   -0.000000
      3          1           0       -0.859098    3.341132   -0.000000
      4          8           0        0.070181   -2.851571    0.000000
      5          1           0        0.560913   -3.702857    0.000000
      6          1           0       -0.894242   -3.039699    0.000000
 ---------------------------------------------------------------------

 SCF Done:  E(RHF) =  -33.6527178486     A.U. after   11 cycles
 E2 =    -0.2283260847D+00 EUMP2 =    -0.33881043933294D+02
 CCSD(T)
 CCSD(T)= -0.33898018006D+02

 The electronic state is 1-A'.
 Alpha  occ. eigenvalues --   -1.36217  -1.34857  -0.71858  -0.70481  -0.56006
 Alpha  occ. eigenvalues --   -0.54618  -0.50802  -0.49441
 Alpha virt. eigenvalues --    0.19595   0.21007   0.29852   0.31275   0.79753
 Alpha virt. eigenvalues --    0.81087   0.82672   0.84089   0.85802   0.87229
 Alpha virt. eigenvalues --    1.16726   1.18083   1.21172   1.22580   2.56715

 Mulliken charges:
               1
     1  O   -0.744769
     2  H    0.376995
     3  H    0.367770
     4  O   -0.744640
     5  H    0.374189
     6  H    0.370454
 Sum of Mulliken charges =  -0.00000

 Dipole moment (field-independent basis, Debye):
    X=             -3.2282    Y=             -3.9885    Z=              0.0000  Tot=              5.1312
 Quadrupole moment (field-independent basis, Debye-Ang):
   XX=            -10.0232   YY=             -5.7943   ZZ=            -14.9903
   XY=             -5.2248   XZ=              0.0000   YZ=             -0.0000

 357\MP4DQ=-33.8923804\MP4SDQ=-33.8944056\CCSD=-33.8954592\CCSD(T)=-33.
 Normal termination of Gaussian 16 at Sun Dec 10 06:59:33 2023.
