 Gaussian 16, Revision A.03,
 Gaussian 16:  ES64L-G16RevA.03 25-Dec-2016

 ------------------
 #p CCSD(T)/CEP-31G
 ------------------

 ------------
 H2O_H2O_4648
 ------------
 Symbolic Z-matrix:
 Charge =  0 Multiplicity = 1

                         Standard orientation:
 ---------------------------------------------------------------------
 Center     Atomic      Atomic             Coordinates (Angstroms)
 Number     Number       Type             X           Y           Z
 ---------------------------------------------------------------------
      1          8           0       -0.016576    2.948320    0.000000
      2          1           0       -0.014317    1.965721    0.000000
      3          1           0        0.912181    3.269122    0.000000
      4          8           0       -0.016576   -2.784909    0.000000
      5          1           0       -0.996925   -2.851429    0.000000
      6          1           0        0.364283   -3.690697    0.000000
 ---------------------------------------------------------------------

 SCF Done:  E(RHF) =  -33.6532929314     A.U. after   11 cycles
 E2 =    -0.2282935837D+00 EUMP2 =    -0.33881586515081D+02
 CCSD(T)
 CCSD(T)= -0.33898545641D+02

 The electronic state is 1-A'.
 Alpha  occ. eigenvalues --   -1.36222  -1.34845  -0.71862  -0.70484  -0.56040
 Alpha  occ. eigenvalues --   -0.54634  -0.50816  -0.49443
 Alpha virt. eigenvalues --    0.19620   0.21045   0.29883   0.31317   0.79735
 Alpha virt. eigenvalues --    0.81078   0.82605   0.84062   0.85763   0.87154
 Alpha virt. eigenvalues --    1.16745   1.18127   1.21187   1.22615   2.56709

 Mulliken charges:
               1
     1  O   -0.746971
     2  H    0.376913
     3  H    0.370053
     4  O   -0.746619
     5  H    0.373131
     6  H    0.373493
 Sum of Mulliken charges =  -0.00000

 Dipole moment (field-independent basis, Debye):
    X=              0.7615    Y=             -3.8261    Z=              0.0000  Tot=              3.9012
 Quadrupole moment (field-independent basis, Debye-Ang):
   XX=             -9.7743   YY=             -6.5245   ZZ=            -14.9915
   XY=             10.3433   XZ=              0.0000   YZ=              0.0000

 645\MP4DQ=-33.8929118\MP4SDQ=-33.8949356\CCSD=-33.8959883\CCSD(T)=-33.
 Normal termination of Gaussian 16 at Sun Dec 10 06:56:40 2023.
