 Gaussian 16, Revision A.03,
 Gaussian 16:  ES64L-G16RevA.03 25-Dec-2016

 ------------------
 #p CCSD(T)/CEP-31G
 ------------------

 ------------
 H2O_H2O_1839
 ------------
 Symbolic Z-matrix:
 Charge =  0 Multiplicity = 1

                         Standard orientation:
 ---------------------------------------------------------------------
 Center     Atomic      Atomic             Coordinates (Angstroms)
 Number     Number       Type             X           Y           Z
 ---------------------------------------------------------------------
      1          8           0        0.048627    1.840660    0.000000
      2          1           0        0.046476    0.858061    0.000000
      3          1           0       -0.880166    2.161360   -0.000000
      4          8           0        0.048627   -1.660319    0.000000
      5          1           0        0.826866   -2.260194    0.000000
      6          1           0       -0.771216   -2.201950   -0.000000
 ---------------------------------------------------------------------

 SCF Done:  E(RHF) =  -33.6592963204     A.U. after   11 cycles
 E2 =    -0.2286725005D+00 EUMP2 =    -0.33887968820908D+02
 CCSD(T)
 CCSD(T)= -0.33904815301D+02

 The electronic state is 1-A'.
 Alpha  occ. eigenvalues --   -1.37540  -1.32858  -0.73187  -0.68545  -0.57846
 Alpha  occ. eigenvalues --   -0.52687  -0.52214  -0.47516
 Alpha virt. eigenvalues --    0.18082   0.24351   0.28881   0.36286   0.77974
 Alpha virt. eigenvalues --    0.82261   0.83345   0.86034   0.89579   0.92122
 Alpha virt. eigenvalues --    1.15561   1.20046   1.20605   1.33207   2.50793

 Mulliken charges:
               1
     1  O   -0.772806
     2  H    0.411803
     3  H    0.358844
     4  O   -0.768014
     5  H    0.388776
     6  H    0.381397
 Sum of Mulliken charges =   0.00000

 Dipole moment (field-independent basis, Debye):
    X=             -2.1842    Y=             -4.4722    Z=             -0.0000  Tot=              4.9771
 Quadrupole moment (field-independent basis, Debye-Ang):
   XX=             -9.4485   YY=             -7.6394   ZZ=            -15.0038
   XY=             -4.9391   XZ=              0.0000   YZ=             -0.0000

 3483\MP4DQ=-33.8990865\MP4SDQ=-33.9011651\CCSD=-33.9021837\CCSD(T)=-33
 Normal termination of Gaussian 16 at Sun Dec 10 06:53:36 2023.
