 Gaussian 16, Revision A.03,
 Gaussian 16:  ES64L-G16RevA.03 25-Dec-2016

 ------------------
 #p CCSD(T)/CEP-31G
 ------------------

 ------------
 H2O_H2O_2230
 ------------
 Symbolic Z-matrix:
 Charge =  0 Multiplicity = 1

                         Standard orientation:
 ---------------------------------------------------------------------
 Center     Atomic      Atomic             Coordinates (Angstroms)
 Number     Number       Type             X           Y           Z
 ---------------------------------------------------------------------
      1          8           0        0.079859    1.988638   -0.000000
      2          1           0        0.079277    1.006037   -0.000000
      3          1           0       -0.849445    2.307855   -0.000000
      4          8           0        0.079859   -1.829592    0.000000
      5          1           0        0.395155   -2.760233    0.000000
      6          1           0       -0.902736   -1.826030    0.000000
 ---------------------------------------------------------------------

 SCF Done:  E(RHF) =  -33.6549747373     A.U. after   11 cycles
 E2 =    -0.2285933200D+00 EUMP2 =    -0.33883568057255D+02
 CCSD(T)
 CCSD(T)= -0.33900534685D+02

 The electronic state is 1-A'.
 Alpha  occ. eigenvalues --   -1.37247  -1.33963  -0.72943  -0.69541  -0.57201
 Alpha  occ. eigenvalues --   -0.53724  -0.51850  -0.48558
 Alpha virt. eigenvalues --    0.17555   0.23201   0.28945   0.33471   0.78587
 Alpha virt. eigenvalues --    0.82111   0.83015   0.84928   0.88272   0.89390
 Alpha virt. eigenvalues --    1.15583   1.19404   1.20441   1.33114   2.54053

 Mulliken charges:
               1
     1  O   -0.755369
     2  H    0.393814
     3  H    0.359692
     4  O   -0.753634
     5  H    0.385119
     6  H    0.370377
 Sum of Mulliken charges =   0.00000

 Dipole moment (field-independent basis, Debye):
    X=             -3.6249    Y=             -3.8876    Z=              0.0000  Tot=              5.3154
 Quadrupole moment (field-independent basis, Debye-Ang):
   XX=            -10.4927   YY=             -8.1631   ZZ=            -14.9936
   XY=             -3.4791   XZ=              0.0000   YZ=             -0.0000

 817\MP4DQ=-33.894823\MP4SDQ=-33.8969004\CCSD=-33.8979303\CCSD(T)=-33.9
 Normal termination of Gaussian 16 at Sun Dec 10 07:01:24 2023.
