 Gaussian 16, Revision A.03,
 Gaussian 16:  ES64L-G16RevA.03 25-Dec-2016

 ------------------
 #p CCSD(T)/CEP-31G
 ------------------

 ------------
 H2O_H2O_3120
 ------------
 Symbolic Z-matrix:
 Charge =  0 Multiplicity = 1

                         Standard orientation:
 ---------------------------------------------------------------------
 Center     Atomic      Atomic             Coordinates (Angstroms)
 Number     Number       Type             X           Y           Z
 ---------------------------------------------------------------------
      1          8           0        0.026657    2.345364    0.000000
      2          1           0        0.024166    1.362766    0.000000
      3          1           0       -0.902025    2.666386    0.000000
      4          8           0        0.026657   -2.172139   -0.000000
      5          1           0        0.975130   -2.428860   -0.000000
      6          1           0       -0.523787   -2.986090   -0.000000
 ---------------------------------------------------------------------

 SCF Done:  E(RHF) =  -33.6552298604     A.U. after   11 cycles
 E2 =    -0.2282982455D+00 EUMP2 =    -0.33883528105885D+02
 CCSD(T)
 CCSD(T)= -0.33900437046D+02

 The electronic state is 1-A'.
 Alpha  occ. eigenvalues --   -1.36650  -1.34156  -0.72296  -0.69792  -0.56583
 Alpha  occ. eigenvalues --   -0.53992  -0.51270  -0.48782
 Alpha virt. eigenvalues --    0.18881   0.22132   0.29521   0.32257   0.79295
 Alpha virt. eigenvalues --    0.81702   0.82393   0.84515   0.85525   0.87825
 Alpha virt. eigenvalues --    1.16380   1.19136   1.20774   1.25263   2.56212

 Mulliken charges:
               1
     1  O   -0.754656
     2  H    0.386255
     3  H    0.367782
     4  O   -0.752655
     5  H    0.376998
     6  H    0.376276
 Sum of Mulliken charges =  -0.00000

 Dipole moment (field-independent basis, Debye):
    X=             -1.2149    Y=             -4.1253    Z=             -0.0000  Tot=              4.3005
 Quadrupole moment (field-independent basis, Debye-Ang):
   XX=             -9.5231   YY=             -6.7813   ZZ=            -14.9954
   XY=             -7.4413   XZ=             -0.0000   YZ=             -0.0000

 0453\MP4DQ=-33.8947997\MP4SDQ=-33.8968329\CCSD=-33.8978738\CCSD(T)=-33
 Normal termination of Gaussian 16 at Sun Dec 10 06:29:13 2023.
