 Gaussian 16, Revision A.03,
 Gaussian 16:  ES64L-G16RevA.03 25-Dec-2016

 ------------------
 #p CCSD(T)/CEP-31G
 ------------------

 ------------
 H2O_H2O_2487
 ------------
 Symbolic Z-matrix:
 Charge =  0 Multiplicity = 1

                         Standard orientation:
 ---------------------------------------------------------------------
 Center     Atomic      Atomic             Coordinates (Angstroms)
 Number     Number       Type             X           Y           Z
 ---------------------------------------------------------------------
      1          8           0        0.056006    2.099138    0.000000
      2          1           0        0.054445    1.116538    0.000000
      3          1           0       -0.872980    2.419281    0.000000
      4          8           0        0.056006   -1.920250    0.000000
      5          1           0        0.749706   -2.616157    0.000000
      6          1           0       -0.827262   -2.350767    0.000000
 ---------------------------------------------------------------------

 SCF Done:  E(RHF) =  -33.6563066836     A.U. after   11 cycles
 E2 =    -0.2284389848D+00 EUMP2 =    -0.33884745668431D+02
 CCSD(T)
 CCSD(T)= -0.33901646394D+02

 The electronic state is 1-A'.
 Alpha  occ. eigenvalues --   -1.37018  -1.33650  -0.72671  -0.69262  -0.57041
 Alpha  occ. eigenvalues --   -0.53476  -0.51652  -0.48278
 Alpha virt. eigenvalues --    0.18382   0.22988   0.29234   0.33274   0.78878
 Alpha virt. eigenvalues --    0.82242   0.84036   0.84933   0.85634   0.88433
 Alpha virt. eigenvalues --    1.16041   1.19781   1.20492   1.29169   2.54299

 Mulliken charges:
               1
     1  O   -0.759673
     2  H    0.395490
     3  H    0.362450
     4  O   -0.755484
     5  H    0.382040
     6  H    0.375178
 Sum of Mulliken charges =   0.00000

 Dipole moment (field-independent basis, Debye):
    X=             -2.5422    Y=             -4.3337    Z=              0.0000  Tot=              5.0243
 Quadrupole moment (field-independent basis, Debye-Ang):
   XX=             -9.5830   YY=             -7.0222   ZZ=            -14.9974
   XY=             -5.0823   XZ=              0.0000   YZ=              0.0000

 2234\MP4DQ=-33.8959756\MP4SDQ=-33.8980319\CCSD=-33.899063\CCSD(T)=-33.
 Normal termination of Gaussian 16 at Sun Dec 10 07:07:14 2023.
