 Gaussian 16, Revision A.03,
 Gaussian 16:  ES64L-G16RevA.03 25-Dec-2016

 ------------------
 #p CCSD(T)/CEP-31G
 ------------------

 ------------
 H2O_H2O_4099
 ------------
 Symbolic Z-matrix:
 Charge =  0 Multiplicity = 1

                         Standard orientation:
 ---------------------------------------------------------------------
 Center     Atomic      Atomic             Coordinates (Angstroms)
 Number     Number       Type             X           Y           Z
 ---------------------------------------------------------------------
      1          8           0       -0.013484    2.726692    0.000000
      2          1           0       -0.010938    1.744093    0.000000
      3          1           0        0.915180    3.047765    0.000000
      4          8           0       -0.013484   -2.567418    0.000000
      5          1           0       -0.996082   -2.569964    0.000000
      6          1           0        0.307589   -3.496082    0.000000
 ---------------------------------------------------------------------

 SCF Done:  E(RHF) =  -33.6536832305     A.U. after   11 cycles
 E2 =    -0.2282785187D+00 EUMP2 =    -0.33881961749198D+02
 CCSD(T)
 CCSD(T)= -0.33898910720D+02

 The electronic state is 1-A'.
 Alpha  occ. eigenvalues --   -1.36333  -1.34745  -0.71977  -0.70387  -0.56173
 Alpha  occ. eigenvalues --   -0.54547  -0.50932  -0.49350
 Alpha virt. eigenvalues --    0.19449   0.21226   0.29788   0.31464   0.79622
 Alpha virt. eigenvalues --    0.81163   0.82428   0.84141   0.85608   0.87259
 Alpha virt. eigenvalues --    1.16643   1.18271   1.21075   1.22861   2.56554

 Mulliken charges:
               1
     1  O   -0.748508
     2  H    0.378325
     3  H    0.370147
     4  O   -0.748109
     5  H    0.373608
     6  H    0.374537
 Sum of Mulliken charges =  -0.00000

 Dipole moment (field-independent basis, Debye):
    X=              0.6184    Y=             -3.7421    Z=              0.0000  Tot=              3.7928
 Quadrupole moment (field-independent basis, Debye-Ang):
   XX=             -9.8755   YY=             -7.1890   ZZ=            -14.9922
   XY=              9.8776   XZ=              0.0000   YZ=              0.0000

 95\MP4DQ=-33.8932784\MP4SDQ=-33.895302\CCSD=-33.8963532\CCSD(T)=-33.89
 Normal termination of Gaussian 16 at Sun Dec 10 06:46:46 2023.
