 Gaussian 16, Revision A.03,
 Gaussian 16:  ES64L-G16RevA.03 25-Dec-2016

 ------------------
 #p CCSD(T)/CEP-31G
 ------------------

 ------------
 H2O_H2O_1252
 ------------
 Symbolic Z-matrix:
 Charge =  0 Multiplicity = 1

                         Standard orientation:
 ---------------------------------------------------------------------
 Center     Atomic      Atomic             Coordinates (Angstroms)
 Number     Number       Type             X           Y           Z
 ---------------------------------------------------------------------
      1          8           0        0.088238   -1.591724    0.000000
      2          1           0        0.087975   -0.609123    0.000000
      3          1           0       -0.841170   -1.910640    0.000000
      4          8           0        0.088238    1.447420    0.000000
      5          1           0        0.216232    2.421650    0.000000
      6          1           0       -0.874845    1.252545    0.000000
 ---------------------------------------------------------------------

 SCF Done:  E(RHF) =  -33.6540506511     A.U. after   11 cycles
 E2 =    -0.2291288333D+00 EUMP2 =    -0.33883179484481D+02
 CCSD(T)
 CCSD(T)= -0.33900181347D+02

 The electronic state is 1-A'.
 Alpha  occ. eigenvalues --   -1.38590  -1.33386  -0.74697  -0.68930  -0.58553
 Alpha  occ. eigenvalues --   -0.53123  -0.52975  -0.47918
 Alpha virt. eigenvalues --    0.16778   0.24951   0.27892   0.39983   0.76105
 Alpha virt. eigenvalues --    0.80322   0.84325   0.84835   0.90325   1.10849
 Alpha virt. eigenvalues --    1.15908   1.18373   1.22236   1.39458   2.50357

 Mulliken charges:
               1
     1  O   -0.753245
     2  H    0.396137
     3  H    0.349171
     4  O   -0.769673
     5  H    0.409696
     6  H    0.367914
 Sum of Mulliken charges =  -0.00000

 Dipole moment (field-independent basis, Debye):
    X=             -3.9361    Y=              3.7567    Z=              0.0000  Tot=              5.4411
 Quadrupole moment (field-independent basis, Debye-Ang):
   XX=            -11.0235   YY=             -9.1938   ZZ=            -14.9925
   XY=              2.6630   XZ=              0.0000   YZ=              0.0000

 78\MP4DQ=-33.8942712\MP4SDQ=-33.8964608\CCSD=-33.8974511\CCSD(T)=-33.9
 Normal termination of Gaussian 16 at Sun Dec 10 06:42:09 2023.
