 Gaussian 16, Revision A.03,
 Gaussian 16:  ES64L-G16RevA.03 25-Dec-2016

 ------------------
 #p CCSD(T)/CEP-31G
 ------------------

 -----------
 H2O_H2O_315
 -----------
 Symbolic Z-matrix:
 Charge =  0 Multiplicity = 1

                         Standard orientation:
 ---------------------------------------------------------------------
 Center     Atomic      Atomic             Coordinates (Angstroms)
 Number     Number       Type             X           Y           Z
 ---------------------------------------------------------------------
      1          8           0        0.045021    1.232324   -0.000000
      2          1           0        0.041447    0.249730   -0.000000
      3          1           0       -0.883307    1.554369   -0.000000
      4          8           0        0.045021   -1.052086    0.000000
      5          1           0        0.860033   -1.600959    0.000000
      6          1           0       -0.738501   -1.645044    0.000000
 ---------------------------------------------------------------------

 SCF Done:  E(RHF) =  -33.6391329354     A.U. after   11 cycles
 E2 =    -0.2284666930D+00 EUMP2 =    -0.33867599628425D+02
 CCSD(T)
 CCSD(T)= -0.33882665805D+02

 The electronic state is 1-A'.
 Alpha  occ. eigenvalues --   -1.42794  -1.28069  -0.77366  -0.74781  -0.57008
 Alpha  occ. eigenvalues --   -0.56747  -0.46170  -0.42340
 Alpha virt. eigenvalues --    0.16729   0.26094   0.29240   0.59054   0.73479
 Alpha virt. eigenvalues --    0.73557   0.86118   0.90578   0.93601   1.03183
 Alpha virt. eigenvalues --    1.13848   1.16957   1.26437   1.35662   2.80709

 Mulliken charges:
               1
     1  O   -0.764786
     2  H    0.389194
     3  H    0.320549
     4  O   -0.825465
     5  H    0.444361
     6  H    0.436147
 Sum of Mulliken charges =   0.00000

 Dipole moment (field-independent basis, Debye):
    X=             -1.8762    Y=             -5.3648    Z=              0.0000  Tot=              5.6834
 Quadrupole moment (field-independent basis, Debye-Ang):
   XX=             -9.3145   YY=            -10.1983   ZZ=            -14.9854
   XY=             -3.5789   XZ=              0.0000   YZ=             -0.0000

 66\MP4DQ=-33.8766045\MP4SDQ=-33.8788466\CCSD=-33.8795399\CCSD(T)=-33.8
 Normal termination of Gaussian 16 at Sun Dec 10 06:24:16 2023.
