 Gaussian 16, Revision A.03,
 Gaussian 16:  ES64L-G16RevA.03 25-Dec-2016

 ------------------
 #p CCSD(T)/CEP-31G
 ------------------

 ----------
 H2O_H2O_90
 ----------
 Symbolic Z-matrix:
 Charge =  0 Multiplicity = 1

                         Standard orientation:
 ---------------------------------------------------------------------
 Center     Atomic      Atomic             Coordinates (Angstroms)
 Number     Number       Type             X           Y           Z
 ---------------------------------------------------------------------
      1          8           0        0.045049    1.142564   -0.000000
      2          1           0        0.041170    0.159970   -0.000000
      3          1           0       -0.883179    1.464897    0.000000
      4          8           0        0.045049   -0.962354   -0.000000
      5          1           0        0.859891   -1.511478   -0.000000
      6          1           0       -0.738658   -1.555068    0.000000
 ---------------------------------------------------------------------

 SCF Done:  E(RHF) =  -33.6024078312     A.U. after   11 cycles
 E2 =    -0.2275464526D+00 EUMP2 =    -0.33829954283745D+02
 CCSD(T)
 CCSD(T)= -0.33844449030D+02

 The electronic state is 1-A'.
 Alpha  occ. eigenvalues --   -1.45760  -1.26597  -0.79733  -0.78914  -0.59009
 Alpha  occ. eigenvalues --   -0.54471  -0.43480  -0.40520
 Alpha virt. eigenvalues --    0.16236   0.25056   0.30393   0.62209   0.73244
 Alpha virt. eigenvalues --    0.73459   0.85473   0.91972   0.92018   1.06572
 Alpha virt. eigenvalues --    1.13320   1.16019   1.29968   1.35664   2.94851

 Mulliken charges:
               1
     1  O   -0.748993
     2  H    0.308973
     3  H    0.304833
     4  O   -0.773285
     5  H    0.458339
     6  H    0.450133
 Sum of Mulliken charges =   0.00000

 Dipole moment (field-independent basis, Debye):
    X=             -1.8247    Y=             -5.7616    Z=              0.0000  Tot=              6.0437
 Quadrupole moment (field-independent basis, Debye-Ang):
   XX=             -9.2809   YY=            -10.7499   ZZ=            -14.9308
   XY=             -3.3154   XZ=             -0.0000   YZ=              0.0000

 61\MP4DQ=-33.8382609\MP4SDQ=-33.8406097\CCSD=-33.8411915\CCSD(T)=-33.8
 Normal termination of Gaussian 16 at Sun Dec 10 06:19:48 2023.
