 Gaussian 16, Revision A.03,
 Gaussian 16:  ES64L-G16RevA.03 25-Dec-2016

 ------------------
 #p CCSD(T)/CEP-31G
 ------------------

 -----------
 H2O_H2O_716
 -----------
 Symbolic Z-matrix:
 Charge =  0 Multiplicity = 1

                         Standard orientation:
 ---------------------------------------------------------------------
 Center     Atomic      Atomic             Coordinates (Angstroms)
 Number     Number       Type             X           Y           Z
 ---------------------------------------------------------------------
      1          8           0        0.041272    1.391638   -0.000000
      2          1           0        0.037894    0.409042   -0.000000
      3          1           0       -0.887120    1.713498   -0.000000
      4          8           0        0.041272   -1.211834    0.000000
      5          1           0        0.890536   -1.706057    0.000000
      6          1           0       -0.701663   -1.854915    0.000000
 ---------------------------------------------------------------------

 SCF Done:  E(RHF) =  -33.6606512842     A.U. after   11 cycles
 E2 =    -0.2290120594D+00 EUMP2 =    -0.33889663343607D+02
 CCSD(T)
 CCSD(T)= -0.33905661073D+02

 The electronic state is 1-A'.
 Alpha  occ. eigenvalues --   -1.40013  -1.30058  -0.75415  -0.69605  -0.59060
 Alpha  occ. eigenvalues --   -0.54717  -0.49241  -0.44627
 Alpha virt. eigenvalues --    0.17348   0.27357   0.27593   0.50814   0.74532
 Alpha virt. eigenvalues --    0.75248   0.85556   0.88150   0.97020   0.98990
 Alpha virt. eigenvalues --    1.15139   1.18285   1.23875   1.37047   2.60731

 Mulliken charges:
               1
     1  O   -0.782556
     2  H    0.432263
     3  H    0.340424
     4  O   -0.828034
     5  H    0.419442
     6  H    0.418461
 Sum of Mulliken charges =   0.00000

 Dipole moment (field-independent basis, Debye):
    X=             -1.7875    Y=             -4.9115    Z=              0.0000  Tot=              5.2266
 Quadrupole moment (field-independent basis, Debye-Ang):
   XX=             -9.3388   YY=             -9.3131   ZZ=            -15.0186
   XY=             -4.0654   XZ=              0.0000   YZ=             -0.0000

 \MP4DQ=-33.8997486\MP4SDQ=-33.9018943\CCSD=-33.9027523\CCSD(T)=-33.905
 Normal termination of Gaussian 16 at Sun Dec 10 06:31:59 2023.
