 Gaussian 16, Revision A.03,
 Gaussian 16:  ES64L-G16RevA.03 25-Dec-2016

 ------------------
 #p CCSD(T)/CEP-31G
 ------------------

 ------------
 H2O_H2O_1202
 ------------
 Symbolic Z-matrix:
 Charge =  0 Multiplicity = 1

                         Standard orientation:
 ---------------------------------------------------------------------
 Center     Atomic      Atomic             Coordinates (Angstroms)
 Number     Number       Type             X           Y           Z
 ---------------------------------------------------------------------
      1          8           0        0.088238   -1.571780    0.000000
      2          1           0        0.087971   -0.589179    0.000000
      3          1           0       -0.841168   -1.890699    0.000000
      4          8           0        0.088238    1.427477    0.000000
      5          1           0        0.216230    2.401707    0.000000
      6          1           0       -0.874844    1.232598    0.000000
 ---------------------------------------------------------------------

 SCF Done:  E(RHF) =  -33.6538515081     A.U. after   11 cycles
 E2 =    -0.2291428312D+00 EUMP2 =    -0.33882994339228D+02
 CCSD(T)
 CCSD(T)= -0.33899983656D+02

 The electronic state is 1-A'.
 Alpha  occ. eigenvalues --   -1.38705  -1.33304  -0.74858  -0.68866  -0.58649
 Alpha  occ. eigenvalues --   -0.53228  -0.52874  -0.47829
 Alpha virt. eigenvalues --    0.16764   0.25038   0.27832   0.40574   0.75923
 Alpha virt. eigenvalues --    0.80117   0.84537   0.84839   0.90566   1.11383
 Alpha virt. eigenvalues --    1.15813   1.19457   1.22361   1.39242   2.50392

 Mulliken charges:
               1
     1  O   -0.752283
     2  H    0.395147
     3  H    0.348272
     4  O   -0.771377
     5  H    0.412090
     6  H    0.368151
 Sum of Mulliken charges =  -0.00000

 Dipole moment (field-independent basis, Debye):
    X=             -3.9297    Y=              3.7771    Z=              0.0000  Tot=              5.4506
 Quadrupole moment (field-independent basis, Debye-Ang):
   XX=            -11.0258   YY=             -9.2151   ZZ=            -14.9926
   XY=              2.6564   XZ=              0.0000   YZ=              0.0000

 3708\MP4DQ=-33.8940601\MP4SDQ=-33.8962578\CCSD=-33.8972431\CCSD(T)=-33
 Normal termination of Gaussian 16 at Sun Dec 10 06:41:10 2023.
