 Gaussian 16, Revision A.03,
 Gaussian 16:  ES64L-G16RevA.03 25-Dec-2016

 ------------------
 #p CCSD(T)/CEP-31G
 ------------------

 ------------
 H2O_H2O_1523
 ------------
 Symbolic Z-matrix:
 Charge =  0 Multiplicity = 1

                         Standard orientation:
 ---------------------------------------------------------------------
 Center     Atomic      Atomic             Coordinates (Angstroms)
 Number     Number       Type             X           Y           Z
 ---------------------------------------------------------------------
      1          8           0       -0.016721    1.701805    0.000000
      2          1           0       -0.012724    0.719211    0.000000
      3          1           0        0.911468    2.024250    0.000000
      4          8           0       -0.016721   -1.538453    0.000000
      5          1           0       -0.996949   -1.606706    0.000000
      6          1           0        0.365740   -2.443566    0.000000
 ---------------------------------------------------------------------

 SCF Done:  E(RHF) =  -33.6605337864     A.U. after   11 cycles
 E2 =    -0.2286820706D+00 EUMP2 =    -0.33889215856992D+02
 CCSD(T)
 CCSD(T)= -0.33906060271D+02

 The electronic state is 1-A'.
 Alpha  occ. eigenvalues --   -1.37900  -1.32759  -0.73654  -0.68558  -0.58331
 Alpha  occ. eigenvalues --   -0.52578  -0.52574  -0.47448
 Alpha virt. eigenvalues --    0.17740   0.25086   0.28626   0.38355   0.77146
 Alpha virt. eigenvalues --    0.80654   0.83963   0.86330   0.88902   1.02772
 Alpha virt. eigenvalues --    1.15680   1.18467   1.21500   1.37132   2.51136

 Mulliken charges:
               1
     1  O   -0.778913
     2  H    0.410926
     3  H    0.364442
     4  O   -0.781487
     5  H    0.386966
     6  H    0.398066
 Sum of Mulliken charges =   0.00000

 Dipole moment (field-independent basis, Debye):
    X=              0.7493    Y=             -4.1287    Z=              0.0000  Tot=              4.1961
 Quadrupole moment (field-independent basis, Debye-Ang):
   XX=             -9.7464   YY=             -8.4245   ZZ=            -15.0063
   XY=              5.9037   XZ=              0.0000   YZ=              0.0000

 545\MP4DQ=-33.9002753\MP4SDQ=-33.9023854\CCSD=-33.9033928\CCSD(T)=-33.
 Normal termination of Gaussian 16 at Sun Dec 10 06:47:32 2023.
