 Gaussian 16, Revision A.03,
 Gaussian 16:  ES64L-G16RevA.03 25-Dec-2016

 ------------------
 #p CCSD(T)/CEP-31G
 ------------------

 ------------
 H2O_H2O_2948
 ------------
 Symbolic Z-matrix:
 Charge =  0 Multiplicity = 1

                         Standard orientation:
 ---------------------------------------------------------------------
 Center     Atomic      Atomic             Coordinates (Angstroms)
 Number     Number       Type             X           Y           Z
 ---------------------------------------------------------------------
      1          8           0       -0.016635    2.270219    0.000000
      2          1           0       -0.013675    1.287622    0.000000
      3          1           0        0.911894    2.591683    0.000000
      4          8           0       -0.016635   -2.106832    0.000000
      5          1           0       -0.996935   -2.174050    0.000000
      6          1           0        0.364870   -3.012349    0.000000
 ---------------------------------------------------------------------

 SCF Done:  E(RHF) =  -33.6554349525     A.U. after   11 cycles
 E2 =    -0.2283101933D+00 EUMP2 =    -0.33883745145742D+02
 CCSD(T)
 CCSD(T)= -0.33900655215D+02

 The electronic state is 1-A'.
 Alpha  occ. eigenvalues --   -1.36723  -1.34212  -0.72376  -0.69857  -0.56666
 Alpha  occ. eigenvalues --   -0.54057  -0.51344  -0.48843
 Alpha virt. eigenvalues --    0.18536   0.22294   0.29455   0.32278   0.79216
 Alpha virt. eigenvalues --    0.81648   0.82561   0.84372   0.85726   0.87751
 Alpha virt. eigenvalues --    1.16255   1.19219   1.20717   1.26405   2.56140

 Mulliken charges:
               1
     1  O   -0.755658
     2  H    0.385927
     3  H    0.368965
     4  O   -0.753707
     5  H    0.376689
     6  H    0.377783
 Sum of Mulliken charges =  -0.00000

 Dipole moment (field-independent basis, Debye):
    X=              0.7565    Y=             -3.9012    Z=              0.0000  Tot=              3.9739
 Quadrupole moment (field-independent basis, Debye-Ang):
   XX=             -9.7661   YY=             -7.4959   ZZ=            -14.9955
   XY=              7.9443   XZ=              0.0000   YZ=              0.0000

 67\MP4DQ=-33.8950112\MP4SDQ=-33.8970488\CCSD=-33.8980877\CCSD(T)=-33.9
 Normal termination of Gaussian 16 at Sun Dec 10 06:26:04 2023.
