 Gaussian 16, Revision A.03,
 Gaussian 16:  ES64L-G16RevA.03 25-Dec-2016

 ------------------
 #p CCSD(T)/CEP-31G
 ------------------

 ------------
 H2O_H2O_3808
 ------------
 Symbolic Z-matrix:
 Charge =  0 Multiplicity = 1

                         Standard orientation:
 ---------------------------------------------------------------------
 Center     Atomic      Atomic             Coordinates (Angstroms)
 Number     Number       Type             X           Y           Z
 ---------------------------------------------------------------------
      1          8           0        0.070190    2.622959   -0.000000
      2          1           0        0.069429    1.640358   -0.000000
      3          1           0       -0.859056    2.942345   -0.000000
      4          8           0        0.070190   -2.452701    0.000000
      5          1           0        0.560832   -3.304039    0.000000
      6          1           0       -0.894253   -2.640727    0.000000
 ---------------------------------------------------------------------

 SCF Done:  E(RHF) =  -33.6533351605     A.U. after   11 cycles
 E2 =    -0.2283155955D+00 EUMP2 =    -0.33881650756020D+02
 CCSD(T)
 CCSD(T)= -0.33898607266D+02

 The electronic state is 1-A'.
 Alpha  occ. eigenvalues --   -1.36439  -1.34577  -0.72087  -0.70194  -0.56266
 Alpha  occ. eigenvalues --   -0.54351  -0.51032  -0.49169
 Alpha virt. eigenvalues --    0.19283   0.21418   0.29641   0.31658   0.79531
 Alpha virt. eigenvalues --    0.81345   0.82340   0.84368   0.85515   0.87559
 Alpha virt. eigenvalues --    1.16526   1.18432   1.20933   1.23221   2.56496

 Mulliken charges:
               1
     1  O   -0.747191
     2  H    0.380914
     3  H    0.366176
     4  O   -0.746903
     5  H    0.376257
     6  H    0.370747
 Sum of Mulliken charges =   0.00000

 Dipole moment (field-independent basis, Debye):
    X=             -3.2181    Y=             -4.0187    Z=              0.0000  Tot=              5.1484
 Quadrupole moment (field-independent basis, Debye-Ang):
   XX=            -10.0258   YY=             -6.5020   ZZ=            -14.9915
   XY=             -4.8015   XZ=              0.0000   YZ=             -0.0000

 2242\MP4DQ=-33.8929711\MP4SDQ=-33.8949972\CCSD=-33.8960475\CCSD(T)=-33
 Normal termination of Gaussian 16 at Sun Dec 10 06:41:32 2023.
