 Gaussian 16, Revision A.03,
 Gaussian 16:  ES64L-G16RevA.03 25-Dec-2016

 ------------------
 #p CCSD(T)/CEP-31G
 ------------------

 ------------
 H2O_H2O_1530
 ------------
 Symbolic Z-matrix:
 Charge =  0 Multiplicity = 1

                         Standard orientation:
 ---------------------------------------------------------------------
 Center     Atomic      Atomic             Coordinates (Angstroms)
 Number     Number       Type             X           Y           Z
 ---------------------------------------------------------------------
      1          8           0        0.079867   -1.709416    0.000000
      2          1           0        0.079185   -0.726814    0.000000
      3          1           0       -0.849404   -2.028727    0.000000
      4          8           0        0.079867    1.550385    0.000000
      5          1           0        0.395068    2.481060    0.000000
      6          1           0       -0.902727    1.546725    0.000000
 ---------------------------------------------------------------------

 SCF Done:  E(RHF) =  -33.6567415035     A.U. after   11 cycles
 E2 =    -0.2289073284D+00 EUMP2 =    -0.33885648831921D+02
 CCSD(T)
 CCSD(T)= -0.33902605854D+02

 The electronic state is 1-A'.
 Alpha  occ. eigenvalues --   -1.38017  -1.33218  -0.73818  -0.68856  -0.58161
 Alpha  occ. eigenvalues --   -0.52912  -0.52626  -0.47807
 Alpha virt. eigenvalues --    0.17258   0.24629   0.28319   0.37701   0.77123
 Alpha virt. eigenvalues --    0.81122   0.83664   0.85172   0.90036   1.02907
 Alpha virt. eigenvalues --    1.15041   1.18218   1.21293   1.38234   2.50596

 Mulliken charges:
               1
     1  O   -0.763587
     2  H    0.407645
     3  H    0.352696
     4  O   -0.769981
     5  H    0.400664
     6  H    0.372563
 Sum of Mulliken charges =  -0.00000

 Dipole moment (field-independent basis, Debye):
    X=             -3.5793    Y=              4.0326    Z=              0.0000  Tot=              5.3919
 Quadrupole moment (field-independent basis, Debye-Ang):
   XX=            -10.5053   YY=             -8.5731   ZZ=            -14.9976
   XY=              3.3068   XZ=              0.0000   YZ=              0.0000

 699\MP4DQ=-33.8967869\MP4SDQ=-33.8989182\CCSD=-33.8999302\CCSD(T)=-33.
 Normal termination of Gaussian 16 at Sun Dec 10 06:47:41 2023.
