 Gaussian 16, Revision A.03,
 Gaussian 16:  ES64L-G16RevA.03 25-Dec-2016

 ------------------
 #p CCSD(T)/CEP-31G
 ------------------

 -----------
 H2O_H2O_810
 -----------
 Symbolic Z-matrix:
 Charge =  0 Multiplicity = 1

                         Standard orientation:
 ---------------------------------------------------------------------
 Center     Atomic      Atomic             Coordinates (Angstroms)
 Number     Number       Type             X           Y           Z
 ---------------------------------------------------------------------
      1          8           0        0.063304    1.429132   -0.000000
      2          1           0        0.061424    0.446532   -0.000000
      3          1           0       -0.865577    1.749576   -0.000000
      4          8           0        0.063304   -1.253723    0.000000
      5          1           0        0.659982   -2.034416    0.000000
      6          1           0       -0.868701   -1.564964    0.000000
 ---------------------------------------------------------------------

 SCF Done:  E(RHF) =  -33.6595644270     A.U. after   11 cycles
 E2 =    -0.2291090024D+00 EUMP2 =    -0.33888673429364D+02
 CCSD(T)
 CCSD(T)= -0.33904955892D+02

 The electronic state is 1-A'.
 Alpha  occ. eigenvalues --   -1.39682  -1.30802  -0.75344  -0.68929  -0.59177
 Alpha  occ. eigenvalues --   -0.54344  -0.50111  -0.45353
 Alpha virt. eigenvalues --    0.17221   0.26793   0.27539   0.48382   0.74788
 Alpha virt. eigenvalues --    0.76391   0.85213   0.87391   0.95911   1.04481
 Alpha virt. eigenvalues --    1.15624   1.18416   1.22636   1.36514   2.57872

 Mulliken charges:
               1
     1  O   -0.773919
     2  H    0.430326
     3  H    0.338151
     4  O   -0.820937
     5  H    0.432160
     6  H    0.394219
 Sum of Mulliken charges =  -0.00000

 Dipole moment (field-independent basis, Debye):
    X=             -2.7235    Y=             -4.7444    Z=              0.0000  Tot=              5.4705
 Quadrupole moment (field-independent basis, Debye-Ang):
   XX=             -9.7521   YY=             -9.1144   ZZ=            -15.0132
   XY=             -3.7475   XZ=              0.0000   YZ=             -0.0000

 17\MP4DQ=-33.8990298\MP4SDQ=-33.9011952\CCSD=-33.9020941\CCSD(T)=-33.9
 Normal termination of Gaussian 16 at Sun Dec 10 06:33:45 2023.
