 Gaussian 16, Revision A.03,
 Gaussian 16:  ES64L-G16RevA.03 25-Dec-2016

 ------------------
 #p CCSD(T)/CEP-31G
 ------------------

 -----------
 H2O_H2O_554
 -----------
 Symbolic Z-matrix:
 Charge =  0 Multiplicity = 1

                         Standard orientation:
 ---------------------------------------------------------------------
 Center     Atomic      Atomic             Coordinates (Angstroms)
 Number     Number       Type             X           Y           Z
 ---------------------------------------------------------------------
      1          8           0        0.082828   -1.318032    0.000000
      2          1           0        0.082134   -0.335430    0.000000
      3          1           0       -0.846439   -1.637354    0.000000
      4          8           0        0.082828    1.163567    0.000000
      5          1           0        0.336474    2.112866    0.000000
      6          1           0       -0.897422    1.095636    0.000000
 ---------------------------------------------------------------------

 SCF Done:  E(RHF) =  -33.6439968523     A.U. after   11 cycles
 E2 =    -0.2288026067D+00 EUMP2 =    -0.33872799458980D+02
 CCSD(T)
 CCSD(T)= -0.33889072381D+02

 The electronic state is 1-A'.
 Alpha  occ. eigenvalues --   -1.41238  -1.31015  -0.78051  -0.69334  -0.58899
 Alpha  occ. eigenvalues --   -0.55424  -0.50004  -0.45388
 Alpha virt. eigenvalues --    0.16556   0.25348   0.28043   0.51868   0.73824
 Alpha virt. eigenvalues --    0.76738   0.85686   0.88151   0.95497   1.09586
 Alpha virt. eigenvalues --    1.14741   1.23395   1.29219   1.37846   2.67745

 Mulliken charges:
               1
     1  O   -0.729381
     2  H    0.368525
     3  H    0.328741
     4  O   -0.811983
     5  H    0.461121
     6  H    0.382977
 Sum of Mulliken charges =   0.00000

 Dipole moment (field-independent basis, Debye):
    X=             -3.5413    Y=              4.4636    Z=              0.0000  Tot=              5.6978
 Quadrupole moment (field-independent basis, Debye-Ang):
   XX=            -10.6929   YY=             -9.5759   ZZ=            -14.9860
   XY=              2.8904   XZ=              0.0000   YZ=              0.0000

 7\MP4DQ=-33.8829621\MP4SDQ=-33.885273\CCSD=-33.8861291\CCSD(T)=-33.889
 Normal termination of Gaussian 16 at Sun Dec 10 06:28:57 2023.
