 Gaussian 16, Revision A.03,
 Gaussian 16:  ES64L-G16RevA.03 25-Dec-2016

 ------------------
 #p CCSD(T)/CEP-31G
 ------------------

 ------------
 H2O_H2O_3669
 ------------
 Symbolic Z-matrix:
 Charge =  0 Multiplicity = 1

                         Standard orientation:
 ---------------------------------------------------------------------
 Center     Atomic      Atomic             Coordinates (Angstroms)
 Number     Number       Type             X           Y           Z
 ---------------------------------------------------------------------
      1          8           0        0.030171    2.566045    0.000000
      2          1           0        0.028021    1.583446    0.000000
      3          1           0       -0.898623    2.886744    0.000000
      4          8           0        0.030171   -2.390425    0.000000
      5          1           0        0.959933   -2.708307    0.000000
      6          1           0       -0.572060   -3.166844    0.000000
 ---------------------------------------------------------------------

 SCF Done:  E(RHF) =  -33.6542992084     A.U. after   11 cycles
 E2 =    -0.2282777843D+00 EUMP2 =    -0.33882576992649D+02
 CCSD(T)
 CCSD(T)= -0.33899507068D+02

 The electronic state is 1-A'.
 Alpha  occ. eigenvalues --   -1.36450  -1.34401  -0.72092  -0.70035  -0.56329
 Alpha  occ. eigenvalues --   -0.54215  -0.51058  -0.49013
 Alpha virt. eigenvalues --    0.19309   0.21651   0.29691   0.31887   0.79501
 Alpha virt. eigenvalues --    0.81485   0.82249   0.84470   0.85519   0.87607
 Alpha virt. eigenvalues --    1.16557   1.18680   1.20963   1.23545   2.56515

 Mulliken charges:
               1
     1  O   -0.750901
     2  H    0.382497
     3  H    0.368235
     4  O   -0.749821
     5  H    0.375536
     6  H    0.374455
 Sum of Mulliken charges =  -0.00000

 Dipole moment (field-independent basis, Debye):
    X=             -1.3803    Y=             -4.1474    Z=              0.0000  Tot=              4.3710
 Quadrupole moment (field-independent basis, Debye-Ang):
   XX=             -9.4723   YY=             -6.1922   ZZ=            -14.9936
   XY=             -7.8372   XZ=              0.0000   YZ=              0.0000

 51\MP4DQ=-33.8938765\MP4SDQ=-33.8959015\CCSD=-33.8969493\CCSD(T)=-33.8
 Normal termination of Gaussian 16 at Sun Dec 10 06:39:01 2023.
