 Gaussian 16, Revision A.03,
 Gaussian 16:  ES64L-G16RevA.03 25-Dec-2016

 ------------------
 #p CCSD(T)/CEP-31G
 ------------------

 ------------
 H2O_H2O_1127
 ------------
 Symbolic Z-matrix:
 Charge =  0 Multiplicity = 1

                         Standard orientation:
 ---------------------------------------------------------------------
 Center     Atomic      Atomic             Coordinates (Angstroms)
 Number     Number       Type             X           Y           Z
 ---------------------------------------------------------------------
      1          8           0        0.088239   -1.541864    0.000000
      2          1           0        0.087966   -0.559263    0.000000
      3          1           0       -0.841166   -1.860788    0.000000
      4          8           0        0.088239    1.397562    0.000000
      5          1           0        0.216224    2.371792    0.000000
      6          1           0       -0.874843    1.202678    0.000000
 ---------------------------------------------------------------------

 SCF Done:  E(RHF) =  -33.6534361432     A.U. after   11 cycles
 E2 =    -0.2291585672D+00 EUMP2 =    -0.33882594710382D+02
 CCSD(T)
 CCSD(T)= -0.33899559965D+02

 The electronic state is 1-A'.
 Alpha  occ. eigenvalues --   -1.38893  -1.33171  -0.75124  -0.68771  -0.58791
 Alpha  occ. eigenvalues --   -0.53398  -0.52710  -0.47685
 Alpha virt. eigenvalues --    0.16741   0.25160   0.27747   0.41519   0.75647
 Alpha virt. eigenvalues --    0.79803   0.84848   0.84870   0.90949   1.11802
 Alpha virt. eigenvalues --    1.15595   1.21566   1.22552   1.38826   2.50611

 Mulliken charges:
               1
     1  O   -0.750395
     2  H    0.393065
     3  H    0.346826
     4  O   -0.774016
     5  H    0.415951
     6  H    0.368568
 Sum of Mulliken charges =  -0.00000

 Dipole moment (field-independent basis, Debye):
    X=             -3.9194    Y=              3.8100    Z=              0.0000  Tot=              5.4661
 Quadrupole moment (field-independent basis, Debye-Ang):
   XX=            -11.0293   YY=             -9.2498   ZZ=            -14.9927
   XY=              2.6462   XZ=              0.0000   YZ=              0.0000

 9323\MP4DQ=-33.8936154\MP4SDQ=-33.8958258\CCSD=-33.8968029\CCSD(T)=-33
 Normal termination of Gaussian 16 at Sun Dec 10 06:39:42 2023.
