 Gaussian 16, Revision A.03,
 Gaussian 16:  ES64L-G16RevA.03 25-Dec-2016

 ------------------
 #p CCSD(T)/CEP-31G
 ------------------

 -----------
 H2O_H2O_797
 -----------
 Symbolic Z-matrix:
 Charge =  0 Multiplicity = 1

                         Standard orientation:
 ---------------------------------------------------------------------
 Center     Atomic      Atomic             Coordinates (Angstroms)
 Number     Number       Type             X           Y           Z
 ---------------------------------------------------------------------
      1          8           0       -0.020024    1.414618    0.000000
      2          1           0       -0.015365    0.432027    0.000000
      3          1           0        0.907947    1.737688    0.000000
      4          8           0       -0.020024   -1.247592    0.000000
      5          1           0       -0.993600   -1.380466    0.000000
      6          1           0        0.421408   -2.125456    0.000000
 ---------------------------------------------------------------------

 SCF Done:  E(RHF) =  -33.6602415415     A.U. after   11 cycles
 E2 =    -0.2285892924D+00 EUMP2 =    -0.33888830833895D+02
 CCSD(T)
 CCSD(T)= -0.33905127883D+02

 The electronic state is 1-A'.
 Alpha  occ. eigenvalues --   -1.39681  -1.30763  -0.75662  -0.68520  -0.59533
 Alpha  occ. eigenvalues --   -0.54316  -0.50096  -0.45397
 Alpha virt. eigenvalues --    0.17504   0.27014   0.27609   0.48538   0.74737
 Alpha virt. eigenvalues --    0.76854   0.86497   0.87442   0.92850   1.06616
 Alpha virt. eigenvalues --    1.15885   1.21045   1.24822   1.37304   2.58663

 Mulliken charges:
               1
     1  O   -0.778685
     2  H    0.412074
     3  H    0.353241
     4  O   -0.826111
     5  H    0.404404
     6  H    0.435078
 Sum of Mulliken charges =  -0.00000

 Dipole moment (field-independent basis, Debye):
    X=              0.8955    Y=             -4.5589    Z=              0.0000  Tot=              4.6461
 Quadrupole moment (field-independent basis, Debye-Ang):
   XX=             -9.6224   YY=             -9.1424   ZZ=            -15.0157
   XY=              4.6714   XZ=              0.0000   YZ=              0.0000

 61\MP4DQ=-33.8992216\MP4SDQ=-33.9013818\CCSD=-33.9022908\CCSD(T)=-33.9
 Normal termination of Gaussian 16 at Sun Dec 10 06:33:30 2023.
