 Gaussian 16, Revision A.03,
 Gaussian 16:  ES64L-G16RevA.03 25-Dec-2016

 ------------------
 #p CCSD(T)/CEP-31G
 ------------------

 ------------
 H2O_H2O_4232
 ------------
 Symbolic Z-matrix:
 Charge =  0 Multiplicity = 1

                         Standard orientation:
 ---------------------------------------------------------------------
 Center     Atomic      Atomic             Coordinates (Angstroms)
 Number     Number       Type             X           Y           Z
 ---------------------------------------------------------------------
      1          8           0        0.073526    2.790690   -0.000000
      2          1           0        0.072917    1.808089   -0.000000
      3          1           0       -0.855770    3.109932   -0.000000
      4          8           0        0.073526   -2.623730    0.000000
      5          1           0        0.507574   -3.505268    0.000000
      6          1           0       -0.901132   -2.748427    0.000000
 ---------------------------------------------------------------------

 SCF Done:  E(RHF) =  -33.6529067036     A.U. after   11 cycles
 E2 =    -0.2283219027D+00 EUMP2 =    -0.33881228606277D+02
 CCSD(T)
 CCSD(T)= -0.33898197441D+02

 The electronic state is 1-A'.
 Alpha  occ. eigenvalues --   -1.36334  -1.34753  -0.71979  -0.70373  -0.56135
 Alpha  occ. eigenvalues --   -0.54517  -0.50921  -0.49339
 Alpha virt. eigenvalues --    0.19446   0.21160   0.29737   0.31419   0.79638
 Alpha virt. eigenvalues --    0.81184   0.82509   0.84193   0.85651   0.87360
 Alpha virt. eigenvalues --    1.16616   1.18204   1.21048   1.22779   2.56581

 Mulliken charges:
               1
     1  O   -0.745531
     2  H    0.378604
     3  H    0.366902
     4  O   -0.745435
     5  H    0.375223
     6  H    0.370236
 Sum of Mulliken charges =  -0.00000

 Dipole moment (field-independent basis, Debye):
    X=             -3.3769    Y=             -3.9255    Z=              0.0000  Tot=              5.1781
 Quadrupole moment (field-independent basis, Debye-Ang):
   XX=            -10.1667   YY=             -6.4863   ZZ=            -14.9907
   XY=             -4.6490   XZ=              0.0000   YZ=             -0.0000

 8151\MP4DQ=-33.8925603\MP4SDQ=-33.8945856\CCSD=-33.8956382\CCSD(T)=-33
 Normal termination of Gaussian 16 at Sun Dec 10 06:49:10 2023.
