 Gaussian 16, Revision A.03,
 Gaussian 16:  ES64L-G16RevA.03 25-Dec-2016

 ------------------
 #p CCSD(T)/CEP-31G
 ------------------

 ------------
 H2O_H2O_3080
 ------------
 Symbolic Z-matrix:
 Charge =  0 Multiplicity = 1

                         Standard orientation:
 ---------------------------------------------------------------------
 Center     Atomic      Atomic             Coordinates (Angstroms)
 Number     Number       Type             X           Y           Z
 ---------------------------------------------------------------------
      1          8           0        0.079852    2.327691   -0.000000
      2          1           0        0.079358    1.345090   -0.000000
      3          1           0       -0.849480    2.646825    0.000000
      4          8           0        0.079852   -2.168630   -0.000000
      5          1           0        0.395232   -3.099244   -0.000000
      6          1           0       -0.902743   -2.165156    0.000000
 ---------------------------------------------------------------------

 SCF Done:  E(RHF) =  -33.6535657190     A.U. after   11 cycles
 E2 =    -0.2283768845D+00 EUMP2 =    -0.33881942603482D+02
 CCSD(T)
 CCSD(T)= -0.33898899063D+02

 The electronic state is 1-A'.
 Alpha  occ. eigenvalues --   -1.36724  -1.34470  -0.72385  -0.70070  -0.56566
 Alpha  occ. eigenvalues --   -0.54235  -0.51316  -0.49058
 Alpha virt. eigenvalues --    0.18453   0.21933   0.29345   0.31888   0.79260
 Alpha virt. eigenvalues --    0.81457   0.82435   0.84482   0.85336   0.87858
 Alpha virt. eigenvalues --    1.16153   1.18828   1.20644   1.25397   2.56243

 Mulliken charges:
               1
     1  O   -0.748270
     2  H    0.383740
     3  H    0.364006
     4  O   -0.747962
     5  H    0.378882
     6  H    0.369604
 Sum of Mulliken charges =  -0.00000

 Dipole moment (field-independent basis, Debye):
    X=             -3.6503    Y=             -3.7964    Z=              0.0000  Tot=              5.2666
 Quadrupole moment (field-independent basis, Debye-Ang):
   XX=            -10.4832   YY=             -7.7346   ZZ=            -14.9915
   XY=             -3.6930   XZ=             -0.0000   YZ=              0.0000

 5\MP4DQ=-33.8932488\MP4SDQ=-33.895286\CCSD=-33.8963299\CCSD(T)=-33.898
 Normal termination of Gaussian 16 at Sun Dec 10 06:28:30 2023.
