 Gaussian 16, Revision A.03,
 Gaussian 16:  ES64L-G16RevA.03 25-Dec-2016

 ------------------
 #p CCSD(T)/CEP-31G
 ------------------

 ------------
 H2O_H2O_4869
 ------------
 Symbolic Z-matrix:
 Charge =  0 Multiplicity = 1

                         Standard orientation:
 ---------------------------------------------------------------------
 Center     Atomic      Atomic             Coordinates (Angstroms)
 Number     Number       Type             X           Y           Z
 ---------------------------------------------------------------------
      1          8           0        0.030140    3.044708   -0.000000
      2          1           0        0.028338    2.062108   -0.000000
      3          1           0       -0.898768    3.365078   -0.000000
      4          8           0        0.030140   -2.869067    0.000000
      5          1           0        0.960014   -3.186619    0.000000
      6          1           0       -0.571817   -3.645698    0.000000
 ---------------------------------------------------------------------

 SCF Done:  E(RHF) =  -33.6531887360     A.U. after   11 cycles
 E2 =    -0.2283017469D+00 EUMP2 =    -0.33881490482907D+02
 CCSD(T)
 CCSD(T)= -0.33898451610D+02

 The electronic state is 1-A'.
 Alpha  occ. eigenvalues --   -1.36186  -1.34789  -0.71824  -0.70424  -0.55999
 Alpha  occ. eigenvalues --   -0.54573  -0.50779  -0.49385
 Alpha virt. eigenvalues --    0.19660   0.21091   0.29912   0.31369   0.79771
 Alpha virt. eigenvalues --    0.81137   0.82653   0.84124   0.85823   0.87226
 Alpha virt. eigenvalues --    1.16776   1.18174   1.21221   1.22657   2.56753

 Mulliken charges:
               1
     1  O   -0.746561
     2  H    0.377261
     3  H    0.369297
     4  O   -0.746112
     5  H    0.373456
     6  H    0.372658
 Sum of Mulliken charges =   0.00000

 Dipole moment (field-independent basis, Debye):
    X=             -1.3853    Y=             -4.1097    Z=              0.0000  Tot=              4.3369
 Quadrupole moment (field-independent basis, Debye-Ang):
   XX=             -9.4762   YY=             -5.2164   ZZ=            -14.9914
   XY=             -9.2327   XZ=              0.0000   YZ=             -0.0000

 0706\MP4DQ=-33.8928175\MP4SDQ=-33.8948415\CCSD=-33.8958943\CCSD(T)=-33
 Normal termination of Gaussian 16 at Sun Dec 10 07:00:54 2023.
