 Gaussian 16, Revision A.03,
 Gaussian 16:  ES64L-G16RevA.03 25-Dec-2016

 ------------------
 #p CCSD(T)/CEP-31G
 ------------------

 -----------
 H2O_H2O_757
 -----------
 Symbolic Z-matrix:
 Charge =  0 Multiplicity = 1

                         Standard orientation:
 ---------------------------------------------------------------------
 Center     Atomic      Atomic             Coordinates (Angstroms)
 Number     Number       Type             X           Y           Z
 ---------------------------------------------------------------------
      1          8           0        0.073580    1.404544    0.000000
      2          1           0        0.072333    0.421943    0.000000
      3          1           0       -0.855508    1.724390   -0.000000
      4          8           0        0.073580   -1.237680    0.000000
      5          1           0        0.507055   -2.119499    0.000000
      6          1           0       -0.901158   -1.361744   -0.000000
 ---------------------------------------------------------------------

 SCF Done:  E(RHF) =  -33.6557357061     A.U. after   11 cycles
 E2 =    -0.2289944640D+00 EUMP2 =    -0.33884730170051D+02
 CCSD(T)
 CCSD(T)= -0.33901103454D+02

 The electronic state is 1-A'.
 Alpha  occ. eigenvalues --   -1.39979  -1.31092  -0.75985  -0.68946  -0.59151
 Alpha  occ. eigenvalues --   -0.54526  -0.50340  -0.45591
 Alpha virt. eigenvalues --    0.16974   0.26332   0.27550   0.48656   0.74546
 Alpha virt. eigenvalues --    0.76816   0.85258   0.87407   0.95290   1.08378
 Alpha virt. eigenvalues --    1.16310   1.21119   1.22946   1.36464   2.59479

 Mulliken charges:
               1
     1  O   -0.760138
     2  H    0.413929
     3  H    0.335741
     4  O   -0.819499
     5  H    0.442711
     6  H    0.387257
 Sum of Mulliken charges =   0.00000

 Dipole moment (field-independent basis, Debye):
    X=             -3.1668    Y=             -4.5864    Z=             -0.0000  Tot=              5.5734
 Quadrupole moment (field-independent basis, Debye-Ang):
   XX=            -10.1817   YY=             -9.2053   ZZ=            -15.0054
   XY=             -3.3946   XZ=              0.0000   YZ=             -0.0000

 96\MP4DQ=-33.8951255\MP4SDQ=-33.8973352\CCSD=-33.8982378\CCSD(T)=-33.9
 Normal termination of Gaussian 16 at Sun Dec 10 06:32:45 2023.
