 Gaussian 16, Revision A.03,
 Gaussian 16:  ES64L-G16RevA.03 25-Dec-2016

 ------------------
 #p CCSD(T)/CEP-31G
 ------------------

 ------------
 H2O_H2O_1621
 ------------
 Symbolic Z-matrix:
 Charge =  0 Multiplicity = 1

                         Standard orientation:
 ---------------------------------------------------------------------
 Center     Atomic      Atomic             Coordinates (Angstroms)
 Number     Number       Type             X           Y           Z
 ---------------------------------------------------------------------
      1          8           0       -0.023292    1.745487    0.000000
      2          1           0       -0.019727    0.762892    0.000000
      3          1           0        0.905039    2.067524    0.000000
      4          8           0       -0.023292   -1.575146    0.000000
      5          1           0       -0.986311   -1.770337    0.000000
      6          1           0        0.473666   -2.422813    0.000000
 ---------------------------------------------------------------------

 SCF Done:  E(RHF) =  -33.6605651908     A.U. after   11 cycles
 E2 =    -0.2286831408D+00 EUMP2 =    -0.33889248331599D+02
 CCSD(T)
 CCSD(T)= -0.33906080952D+02

 The electronic state is 1-A'.
 Alpha  occ. eigenvalues --   -1.37765  -1.32724  -0.73457  -0.68505  -0.58185
 Alpha  occ. eigenvalues --   -0.52559  -0.52448  -0.47409
 Alpha virt. eigenvalues --    0.17884   0.24887   0.28743   0.37713   0.77444
 Alpha virt. eigenvalues --    0.81009   0.83783   0.86430   0.89041   0.98884
 Alpha virt. eigenvalues --    1.15491   1.19025   1.21341   1.35744   2.50776

 Mulliken charges:
               1
     1  O   -0.778617
     2  H    0.413109
     3  H    0.362808
     4  O   -0.777785
     5  H    0.387124
     6  H    0.393360
 Sum of Mulliken charges =  -0.00000

 Dipole moment (field-independent basis, Debye):
    X=              1.0446    Y=             -4.2745    Z=              0.0000  Tot=              4.4003
 Quadrupole moment (field-independent basis, Debye-Ang):
   XX=             -9.5713   YY=             -8.1449   ZZ=            -15.0065
   XY=              5.7214   XZ=              0.0000   YZ=              0.0000

 5853\MP4DQ=-33.9003186\MP4SDQ=-33.9024144\CCSD=-33.9034255\CCSD(T)=-33
 Normal termination of Gaussian 16 at Sun Dec 10 06:49:30 2023.
