 Gaussian 16, Revision A.03,
 Gaussian 16:  ES64L-G16RevA.03 25-Dec-2016

 ------------------
 #p CCSD(T)/CEP-31G
 ------------------

 -----------
 H2O_H2O_583
 -----------
 Symbolic Z-matrix:
 Charge =  0 Multiplicity = 1

                         Standard orientation:
 ---------------------------------------------------------------------
 Center     Atomic      Atomic             Coordinates (Angstroms)
 Number     Number       Type             X           Y           Z
 ---------------------------------------------------------------------
      1          8           0        0.070258    1.336525    0.000000
      2          1           0        0.068715    0.353925    0.000000
      3          1           0       -0.858733    1.656650   -0.000000
      4          8           0        0.070258   -1.166379    0.000000
      5          1           0        0.560223   -2.018107    0.000000
      6          1           0       -0.894335   -1.353637   -0.000000
 ---------------------------------------------------------------------

 SCF Done:  E(RHF) =  -33.6520147456     A.U. after   11 cycles
 E2 =    -0.2289192701D+00 EUMP2 =    -0.33880934015689D+02
 CCSD(T)
 CCSD(T)= -0.33896937185D+02

 The electronic state is 1-A'.
 Alpha  occ. eigenvalues --   -1.40841  -1.30233  -0.76791  -0.70101  -0.58666
 Alpha  occ. eigenvalues --   -0.55304  -0.49199  -0.44667
 Alpha virt. eigenvalues --    0.16847   0.26235   0.27956   0.52373   0.74054
 Alpha virt. eigenvalues --    0.75670   0.85488   0.88505   0.96392   1.06610
 Alpha virt. eigenvalues --    1.15740   1.20591   1.23429   1.36097   2.67608

 Mulliken charges:
               1
     1  O   -0.756595
     2  H    0.409910
     3  H    0.329134
     4  O   -0.831356
     5  H    0.453565
     6  H    0.395343
 Sum of Mulliken charges =   0.00000

 Dipole moment (field-independent basis, Debye):
    X=             -2.9739    Y=             -4.8078    Z=             -0.0000  Tot=              5.6532
 Quadrupole moment (field-independent basis, Debye-Ang):
   XX=            -10.0172   YY=             -9.4977   ZZ=            -15.0016
   XY=             -3.4298   XZ=              0.0000   YZ=             -0.0000

 41\MP4DQ=-33.8909134\MP4SDQ=-33.8931474\CCSD=-33.8939891\CCSD(T)=-33.8
 Normal termination of Gaussian 16 at Sun Dec 10 06:29:30 2023.
