 Gaussian 16, Revision A.03,
 Gaussian 16:  ES64L-G16RevA.03 25-Dec-2016

 ------------------
 #p CCSD(T)/CEP-31G
 ------------------

 ------------
 H2O_H2O_4616
 ------------
 Symbolic Z-matrix:
 Charge =  0 Multiplicity = 1

                         Standard orientation:
 ---------------------------------------------------------------------
 Center     Atomic      Atomic             Coordinates (Angstroms)
 Number     Number       Type             X           Y           Z
 ---------------------------------------------------------------------
      1          8           0        0.041104    2.947332   -0.000000
      2          1           0        0.039565    1.964732   -0.000000
      3          1           0       -0.887889    3.267454   -0.000000
      4          8           0        0.041104   -2.767374    0.000000
      5          1           0        0.891291   -3.260007    0.000000
      6          1           0       -0.700627   -3.411844    0.000000
 ---------------------------------------------------------------------

 SCF Done:  E(RHF) =  -33.6532945501     A.U. after   11 cycles
 E2 =    -0.2282997751D+00 EUMP2 =    -0.33881594325132D+02
 CCSD(T)
 CCSD(T)= -0.33898552079D+02

 The electronic state is 1-A'.
 Alpha  occ. eigenvalues --   -1.36232  -1.34690  -0.71871  -0.70321  -0.56053
 Alpha  occ. eigenvalues --   -0.54474  -0.50826  -0.49286
 Alpha virt. eigenvalues --    0.19613   0.21208   0.29871   0.31488   0.79726
 Alpha virt. eigenvalues --    0.81232   0.82586   0.84222   0.85773   0.87332
 Alpha virt. eigenvalues --    1.16735   1.18278   1.21178   1.22776   2.56706

 Mulliken charges:
               1
     1  O   -0.746989
     2  H    0.378438
     3  H    0.368544
     4  O   -0.746449
     5  H    0.374091
     6  H    0.372366
 Sum of Mulliken charges =  -0.00000

 Dipole moment (field-independent basis, Debye):
    X=             -1.8882    Y=             -4.2174    Z=              0.0000  Tot=              4.6208
 Quadrupole moment (field-independent basis, Debye-Ang):
   XX=             -9.4135   YY=             -5.0401   ZZ=            -14.9917
   XY=             -7.9180   XZ=              0.0000   YZ=             -0.0000

 1714\MP4DQ=-33.8929187\MP4SDQ=-33.8949425\CCSD=-33.8959949\CCSD(T)=-33
 Normal termination of Gaussian 16 at Sun Dec 10 06:56:05 2023.
