 Gaussian 16, Revision A.03,
 Gaussian 16:  ES64L-G16RevA.03 25-Dec-2016

 ------------------
 #p CCSD(T)/CEP-31G
 ------------------

 ------------
 H2O_H2O_2811
 ------------
 Symbolic Z-matrix:
 Charge =  0 Multiplicity = 1

                         Standard orientation:
 ---------------------------------------------------------------------
 Center     Atomic      Atomic             Coordinates (Angstroms)
 Number     Number       Type             X           Y           Z
 ---------------------------------------------------------------------
      1          8           0        0.059647    2.227983    0.000000
      2          1           0        0.058326    1.245383    0.000000
      3          1           0       -0.869416    2.547900    0.000000
      4          8           0        0.059647   -2.050547   -0.000000
      5          1           0        0.706527   -2.790177   -0.000000
      6          1           0       -0.849796   -2.422595   -0.000000
 ---------------------------------------------------------------------

 SCF Done:  E(RHF) =  -33.6552822187     A.U. after   11 cycles
 E2 =    -0.2283753829D+00 EUMP2 =    -0.33883657601575D+02
 CCSD(T)
 CCSD(T)= -0.33900571035D+02

 The electronic state is 1-A'.
 Alpha  occ. eigenvalues --   -1.36830  -1.33944  -0.72482  -0.69553  -0.56775
 Alpha  occ. eigenvalues --   -0.53756  -0.51450  -0.48560
 Alpha virt. eigenvalues --    0.18605   0.22468   0.29353   0.32596   0.79117
 Alpha virt. eigenvalues --    0.81933   0.83073   0.84819   0.85218   0.88174
 Alpha virt. eigenvalues --    1.16202   1.19406   1.20625   1.26839   2.55514

 Mulliken charges:
               1
     1  O   -0.755109
     2  H    0.390318
     3  H    0.363676
     4  O   -0.752506
     5  H    0.380055
     6  H    0.373565
 Sum of Mulliken charges =  -0.00000

 Dipole moment (field-independent basis, Debye):
    X=             -2.7169    Y=             -4.2607    Z=             -0.0000  Tot=              5.0532
 Quadrupole moment (field-independent basis, Debye-Ang):
   XX=             -9.6725   YY=             -6.8032   ZZ=            -14.9954
   XY=             -5.0804   XZ=             -0.0000   YZ=              0.0000

 1661\MP4DQ=-33.8949186\MP4SDQ=-33.8969626\CCSD=-33.8979993\CCSD(T)=-33
 Normal termination of Gaussian 16 at Sun Dec 10 06:23:35 2023.
