 Gaussian 16, Revision A.03,
 Gaussian 16:  ES64L-G16RevA.03 25-Dec-2016

 ------------------
 #p CCSD(T)/CEP-31G
 ------------------

 -----------
 H2O_H2O_330
 -----------
 Symbolic Z-matrix:
 Charge =  0 Multiplicity = 1

                         Standard orientation:
 ---------------------------------------------------------------------
 Center     Atomic      Atomic             Coordinates (Angstroms)
 Number     Number       Type             X           Y           Z
 ---------------------------------------------------------------------
      1          8           0        0.079890   -1.230740    0.000000
      2          1           0        0.078925   -0.248139    0.000000
      3          1           0       -0.849289   -1.550319    0.000000
      4          8           0        0.079890    1.071756    0.000000
      5          1           0        0.394824    2.002521    0.000000
      6          1           0       -0.902703    1.067811    0.000000
 ---------------------------------------------------------------------

 SCF Done:  E(RHF) =  -33.6291304417     A.U. after   11 cycles
 E2 =    -0.2284782120D+00 EUMP2 =    -0.33857608653787D+02
 CCSD(T)
 CCSD(T)= -0.33873298399D+02

 The electronic state is 1-A'.
 Alpha  occ. eigenvalues --   -1.43052  -1.29683  -0.80067  -0.71269  -0.57599
 Alpha  occ. eigenvalues --   -0.56802  -0.48121  -0.43917
 Alpha virt. eigenvalues --    0.16340   0.24716   0.28915   0.56930   0.73394
 Alpha virt. eigenvalues --    0.75551   0.86928   0.89580   0.96840   1.08199
 Alpha virt. eigenvalues --    1.13892   1.23929   1.25404   1.38601   2.84569

 Mulliken charges:
               1
     1  O   -0.718384
     2  H    0.343795
     3  H    0.316840
     4  O   -0.817478
     5  H    0.481613
     6  H    0.393615
 Sum of Mulliken charges =   0.00000

 Dipole moment (field-independent basis, Debye):
    X=             -3.3295    Y=              4.8363    Z=              0.0000  Tot=              5.8716
 Quadrupole moment (field-independent basis, Debye-Ang):
   XX=            -10.4993   YY=             -9.9450   ZZ=            -14.9633
   XY=              2.9533   XZ=              0.0000   YZ=              0.0000

 813\MP4DQ=-33.8670971\MP4SDQ=-33.8694677\CCSD=-33.870231\CCSD(T)=-33.8
 Normal termination of Gaussian 16 at Sun Dec 10 06:24:33 2023.
