 Gaussian 16, Revision A.03,
 Gaussian 16:  ES64L-G16RevA.03 25-Dec-2016

 ------------------
 #p CCSD(T)/CEP-31G
 ------------------

 -----------
 H2O_H2O_984
 -----------
 Symbolic Z-matrix:
 Charge =  0 Multiplicity = 1

                         Standard orientation:
 ---------------------------------------------------------------------
 Center     Atomic      Atomic             Coordinates (Angstroms)
 Number     Number       Type             X           Y           Z
 ---------------------------------------------------------------------
      1          8           0        0.066813    1.497638   -0.000000
      2          1           0        0.065237    0.515038   -0.000000
      3          1           0       -0.862168    1.817794    0.000000
      4          8           0        0.066813   -1.324615   -0.000000
      5          1           0        0.611406   -2.142492   -0.000000
      6          1           0       -0.883476   -1.574529    0.000000
 ---------------------------------------------------------------------

 SCF Done:  E(RHF) =  -33.6601531987     A.U. after   11 cycles
 E2 =    -0.2290841175D+00 EUMP2 =    -0.33889237316167D+02
 CCSD(T)
 CCSD(T)= -0.33905778140D+02

 The electronic state is 1-A'.
 Alpha  occ. eigenvalues --   -1.39105  -1.31481  -0.74844  -0.68374  -0.59194
 Alpha  occ. eigenvalues --   -0.53772  -0.50963  -0.46063
 Alpha virt. eigenvalues --    0.17321   0.26293   0.27714   0.45194   0.75371
 Alpha virt. eigenvalues --    0.77669   0.85275   0.86381   0.94433   1.06272
 Alpha virt. eigenvalues --    1.15843   1.18097   1.22143   1.36235   2.53423

 Mulliken charges:
               1
     1  O   -0.774320
     2  H    0.428467
     3  H    0.342763
     4  O   -0.808130
     5  H    0.424136
     6  H    0.387083
 Sum of Mulliken charges =   0.00000

 Dipole moment (field-independent basis, Debye):
    X=             -2.9101    Y=             -4.5858    Z=              0.0000  Tot=              5.4312
 Quadrupole moment (field-independent basis, Debye-Ang):
   XX=             -9.8882   YY=             -8.8452   ZZ=            -15.0111
   XY=             -3.7382   XZ=             -0.0000   YZ=              0.0000

 7\MP4DQ=-33.8998861\MP4SDQ=-33.9020371\CCSD=-33.9029811\CCSD(T)=-33.90
 Normal termination of Gaussian 16 at Sun Dec 10 06:37:01 2023.
