 Gaussian 16, Revision A.03,
 Gaussian 16:  ES64L-G16RevA.03 25-Dec-2016

 ------------------
 #p CCSD(T)/CEP-31G
 ------------------

 ------------
 H2O_H2O_1682
 ------------
 Symbolic Z-matrix:
 Charge =  0 Multiplicity = 1

                         Standard orientation:
 ---------------------------------------------------------------------
 Center     Atomic      Atomic             Coordinates (Angstroms)
 Number     Number       Type             X           Y           Z
 ---------------------------------------------------------------------
      1          8           0        0.073557    1.773526    0.000000
      2          1           0        0.072582    0.790925    0.000000
      3          1           0       -0.855620    2.093114   -0.000000
      4          8           0        0.073557   -1.606621    0.000000
      5          1           0        0.507276   -2.488320    0.000000
      6          1           0       -0.901147   -1.730955   -0.000000
 ---------------------------------------------------------------------

 SCF Done:  E(RHF) =  -33.6575192027     A.U. after   11 cycles
 E2 =    -0.2288080100D+00 EUMP2 =    -0.33886327212709D+02
 CCSD(T)
 CCSD(T)= -0.33903252707D+02

 The electronic state is 1-A'.
 Alpha  occ. eigenvalues --   -1.37779  -1.33144  -0.73501  -0.68790  -0.57968
 Alpha  occ. eigenvalues --   -0.52888  -0.52411  -0.47756
 Alpha virt. eigenvalues --    0.17555   0.24408   0.28565   0.36763   0.77574
 Alpha virt. eigenvalues --    0.81659   0.83396   0.85354   0.89862   0.97890
 Alpha virt. eigenvalues --    1.15159   1.19089   1.20891   1.36491   2.50825

 Mulliken charges:
               1
     1  O   -0.766386
     2  H    0.409297
     3  H    0.354669
     4  O   -0.768009
     5  H    0.395814
     6  H    0.374614
 Sum of Mulliken charges =   0.00000

 Dipole moment (field-independent basis, Debye):
    X=             -3.3027    Y=             -4.1855    Z=             -0.0000  Tot=              5.3316
 Quadrupole moment (field-independent basis, Debye-Ang):
   XX=            -10.1822   YY=             -8.2088   ZZ=            -14.9994
   XY=             -3.7240   XZ=              0.0000   YZ=             -0.0000

 73\MP4DQ=-33.8974738\MP4SDQ=-33.8995816\CCSD=-33.900599\CCSD(T)=-33.90
 Normal termination of Gaussian 16 at Sun Dec 10 06:50:39 2023.
