 Gaussian 16, Revision A.03,
 Gaussian 16:  ES64L-G16RevA.03 25-Dec-2016

 ------------------
 #p CCSD(T)/CEP-31G
 ------------------

 ------------
 H2O_H2O_1632
 ------------
 Symbolic Z-matrix:
 Charge =  0 Multiplicity = 1

                         Standard orientation:
 ---------------------------------------------------------------------
 Center     Atomic      Atomic             Coordinates (Angstroms)
 Number     Number       Type             X           Y           Z
 ---------------------------------------------------------------------
      1          8           0        0.073558    1.753581    0.000000
      2          1           0        0.072571    0.770980    0.000000
      3          1           0       -0.855615    2.073180    0.000000
      4          8           0        0.073558   -1.586678   -0.000000
      5          1           0        0.507267   -2.468382   -0.000000
      6          1           0       -0.901147   -1.711000   -0.000000
 ---------------------------------------------------------------------

 SCF Done:  E(RHF) =  -33.6576987302     A.U. after   11 cycles
 E2 =    -0.2288318785D+00 EUMP2 =    -0.33886530608692D+02
 CCSD(T)
 CCSD(T)= -0.33903449986D+02

 The electronic state is 1-A'.
 Alpha  occ. eigenvalues --   -1.37844  -1.33074  -0.73572  -0.68736  -0.58052
 Alpha  occ. eigenvalues --   -0.52810  -0.52477  -0.47685
 Alpha virt. eigenvalues --    0.17534   0.24522   0.28513   0.37163   0.77444
 Alpha virt. eigenvalues --    0.81452   0.83542   0.85360   0.90058   0.98973
 Alpha virt. eigenvalues --    1.15108   1.18970   1.20971   1.36661   2.50620

 Mulliken charges:
               1
     1  O   -0.767087
     2  H    0.410593
     3  H    0.354058
     4  O   -0.769782
     5  H    0.397285
     6  H    0.374933
 Sum of Mulliken charges =  -0.00000

 Dipole moment (field-independent basis, Debye):
    X=             -3.2986    Y=             -4.1980    Z=             -0.0000  Tot=              5.3389
 Quadrupole moment (field-independent basis, Debye-Ang):
   XX=            -10.1825   YY=             -8.2503   ZZ=            -14.9999
   XY=             -3.7065   XZ=             -0.0000   YZ=              0.0000

 9391\MP4DQ=-33.8976632\MP4SDQ=-33.8997743\CCSD=-33.9007898\CCSD(T)=-33
 Normal termination of Gaussian 16 at Sun Dec 10 06:49:42 2023.
