 Gaussian 16, Revision A.03,
 Gaussian 16:  ES64L-G16RevA.03 25-Dec-2016

 ------------------
 #p CCSD(T)/CEP-31G
 ------------------

 ------------
 H2O_H2O_1319
 ------------
 Symbolic Z-matrix:
 Charge =  0 Multiplicity = 1

                         Standard orientation:
 ---------------------------------------------------------------------
 Center     Atomic      Atomic             Coordinates (Angstroms)
 Number     Number       Type             X           Y           Z
 ---------------------------------------------------------------------
      1          8           0        0.030287    1.628647    0.000000
      2          1           0        0.026830    0.646052    0.000000
      3          1           0       -0.898079    1.950582    0.000000
      4          8           0        0.030287   -1.453108   -0.000000
      5          1           0        0.959626   -1.772226   -0.000000
      6          1           0       -0.572977   -2.228723   -0.000000
 ---------------------------------------------------------------------

 SCF Done:  E(RHF) =  -33.6624296865     A.U. after   11 cycles
 E2 =    -0.2288428672D+00 EUMP2 =    -0.33891272553696D+02
 CCSD(T)
 CCSD(T)= -0.33907966901D+02

 The electronic state is 1-A'.
 Alpha  occ. eigenvalues --   -1.38236  -1.31995  -0.73902  -0.68095  -0.58824
 Alpha  occ. eigenvalues --   -0.52952  -0.51742  -0.46680
 Alpha virt. eigenvalues --    0.17834   0.25710   0.28409   0.41019   0.76561
 Alpha virt. eigenvalues --    0.79358   0.85000   0.86366   0.91204   1.01966
 Alpha virt. eigenvalues --    1.15315   1.18529   1.22048   1.35105   2.50258

 Mulliken charges:
               1
     1  O   -0.784839
     2  H    0.425085
     3  H    0.357497
     4  O   -0.792340
     5  H    0.394036
     6  H    0.400561
 Sum of Mulliken charges =  -0.00000

 Dipole moment (field-independent basis, Debye):
    X=             -1.3517    Y=             -4.4925    Z=             -0.0000  Tot=              4.6914
 Quadrupole moment (field-independent basis, Debye-Ang):
   XX=             -9.4369   YY=             -8.3658   ZZ=            -15.0125
   XY=             -5.0472   XZ=             -0.0000   YZ=              0.0000

 4588\MP4DQ=-33.90217\MP4SDQ=-33.9042705\CCSD=-33.9052577\CCSD(T)=-33.9
 Normal termination of Gaussian 16 at Sun Dec 10 06:43:29 2023.
