 Gaussian 16, Revision A.03,
 Gaussian 16:  ES64L-G16RevA.03 25-Dec-2016

 ------------------
 #p CCSD(T)/CEP-31G
 ------------------

 ------------
 H2O_H2O_3775
 ------------
 Symbolic Z-matrix:
 Charge =  0 Multiplicity = 1

                         Standard orientation:
 ---------------------------------------------------------------------
 Center     Atomic      Atomic             Coordinates (Angstroms)
 Number     Number       Type             X           Y           Z
 ---------------------------------------------------------------------
      1          8           0        0.092949   -2.592634    0.000000
      2          1           0        0.092949   -1.610032    0.000000
      3          1           0       -0.836544   -2.911300    0.000000
      4          8           0        0.092949    2.459847    0.000000
      5          1           0        0.092949    3.442448    0.000000
      6          1           0       -0.836544    2.141179    0.000000
 ---------------------------------------------------------------------

 SCF Done:  E(RHF) =  -33.6520640007     A.U. after   11 cycles
 E2 =    -0.2283715727D+00 EUMP2 =    -0.33880435573390D+02
 CCSD(T)
 CCSD(T)= -0.33897431549D+02

 The electronic state is 1-A'.
 Alpha  occ. eigenvalues --   -1.36491  -1.35088  -0.72148  -0.70697  -0.56252
 Alpha  occ. eigenvalues --   -0.54818  -0.51063  -0.49657
 Alpha virt. eigenvalues --    0.18781   0.21121   0.29525   0.31074   0.79511
 Alpha virt. eigenvalues --    0.80884   0.82425   0.83893   0.85469   0.87221
 Alpha virt. eigenvalues --    1.16253   1.17984   1.20854   1.22808   2.55714

 Mulliken charges:
               1
     1  O   -0.742291
     2  H    0.376014
     3  H    0.366222
     4  O   -0.742880
     5  H    0.376037
     6  H    0.366898
 Sum of Mulliken charges =   0.00000

 Dipole moment (field-independent basis, Debye):
    X=             -4.2674    Y=              3.1361    Z=              0.0000  Tot=              5.2958
 Quadrupole moment (field-independent basis, Debye-Ang):
   XX=            -11.2865   YY=             -9.6210   ZZ=            -14.9882
   XY=              2.3034   XZ=              0.0000   YZ=              0.0000

 4\MP4DQ=-33.891785\MP4SDQ=-33.8938141\CCSD=-33.8948671\CCSD(T)=-33.897
 Normal termination of Gaussian 16 at Sun Dec 10 06:40:56 2023.
