 Gaussian 16, Revision A.03,
 Gaussian 16:  ES64L-G16RevA.03 25-Dec-2016

 ------------------
 #p CCSD(T)/CEP-31G
 ------------------

 ------------
 H2O_H2O_3520
 ------------
 Symbolic Z-matrix:
 Charge =  0 Multiplicity = 1

                         Standard orientation:
 ---------------------------------------------------------------------
 Center     Atomic      Atomic             Coordinates (Angstroms)
 Number     Number       Type             X           Y           Z
 ---------------------------------------------------------------------
      1          8           0        0.026643    2.504919   -0.000000
      2          1           0        0.024316    1.522320   -0.000000
      3          1           0       -0.902093    2.825785    0.000000
      4          8           0        0.026643   -2.331685   -0.000000
      5          1           0        0.975158   -2.588247   -0.000000
      6          1           0       -0.523665   -3.145729    0.000000
 ---------------------------------------------------------------------

 SCF Done:  E(RHF) =  -33.6545135995     A.U. after   11 cycles
 E2 =    -0.2282777375D+00 EUMP2 =    -0.33882791337032D+02
 CCSD(T)
 CCSD(T)= -0.33899716205D+02

 The electronic state is 1-A'.
 Alpha  occ. eigenvalues --   -1.36497  -1.34364  -0.72140  -0.69999  -0.56387
 Alpha  occ. eigenvalues --   -0.54184  -0.51107  -0.48979
 Alpha virt. eigenvalues --    0.19203   0.21743   0.29646   0.31952   0.79454
 Alpha virt. eigenvalues --    0.81515   0.82225   0.84473   0.85492   0.87645
 Alpha virt. eigenvalues --    1.16515   1.18764   1.20908   1.23855   2.56478

 Mulliken charges:
               1
     1  O   -0.751746
     2  H    0.383120
     3  H    0.368382
     4  O   -0.750552
     5  H    0.375728
     6  H    0.375069
 Sum of Mulliken charges =  -0.00000

 Dipole moment (field-independent basis, Debye):
    X=             -1.2178    Y=             -4.0983    Z=              0.0000  Tot=              4.2754
 Quadrupole moment (field-independent basis, Debye-Ang):
   XX=             -9.5256   YY=             -6.4759   ZZ=            -14.9940
   XY=             -7.9327   XZ=             -0.0000   YZ=              0.0000

 327\MP4DQ=-33.8940849\MP4SDQ=-33.8961112\CCSD=-33.8971575\CCSD(T)=-33.
 Normal termination of Gaussian 16 at Sun Dec 10 06:36:21 2023.
