 Gaussian 16, Revision A.03,
 Gaussian 16:  ES64L-G16RevA.03 25-Dec-2016

 ------------------
 #p CCSD(T)/CEP-31G
 ------------------

 ------------
 H2O_H2O_4851
 ------------
 Symbolic Z-matrix:
 Charge =  0 Multiplicity = 1

                         Standard orientation:
 ---------------------------------------------------------------------
 Center     Atomic      Atomic             Coordinates (Angstroms)
 Number     Number       Type             X           Y           Z
 ---------------------------------------------------------------------
      1          8           0        0.090683   -3.024645    0.000000
      2          1           0        0.090618   -2.042043    0.000000
      3          1           0       -0.838789   -3.343373    0.000000
      4          8           0        0.090683    2.885933    0.000000
      5          1           0        0.154883    3.866435    0.000000
      6          1           0       -0.857645    2.628677    0.000000
 ---------------------------------------------------------------------

 SCF Done:  E(RHF) =  -33.6520440668     A.U. after   11 cycles
 E2 =    -0.2283582357D+00 EUMP2 =    -0.33880402302574D+02
 CCSD(T)
 CCSD(T)= -0.33897396808D+02

 The electronic state is 1-A'.
 Alpha  occ. eigenvalues --   -1.36235  -1.35176  -0.71880  -0.70797  -0.55989
 Alpha  occ. eigenvalues --   -0.54913  -0.50809  -0.49749
 Alpha virt. eigenvalues --    0.19515   0.20656   0.29792   0.30889   0.79751
 Alpha virt. eigenvalues --    0.80794   0.82730   0.83812   0.85802   0.86970
 Alpha virt. eigenvalues --    1.16676   1.17737   1.21131   1.22224   2.56640

 Mulliken charges:
               1
     1  O   -0.742171
     2  H    0.374388
     3  H    0.367782
     4  O   -0.742402
     5  H    0.373960
     6  H    0.368443
 Sum of Mulliken charges =  -0.00000

 Dipole moment (field-independent basis, Debye):
    X=             -4.1751    Y=              3.2498    Z=              0.0000  Tot=              5.2908
 Quadrupole moment (field-independent basis, Debye-Ang):
   XX=            -11.1240   YY=             -8.9998   ZZ=            -14.9886
   XY=              2.6639   XZ=              0.0000   YZ=              0.0000

 121\MP4DQ=-33.8917536\MP4SDQ=-33.8937807\CCSD=-33.8948356\CCSD(T)=-33.
 Normal termination of Gaussian 16 at Sun Dec 10 07:00:32 2023.
