 Gaussian 16, Revision A.03,
 Gaussian 16:  ES64L-G16RevA.03 25-Dec-2016

 ------------------
 #p CCSD(T)/CEP-31G
 ------------------

 ------------
 H2O_H2O_1979
 ------------
 Symbolic Z-matrix:
 Charge =  0 Multiplicity = 1

                         Standard orientation:
 ---------------------------------------------------------------------
 Center     Atomic      Atomic             Coordinates (Angstroms)
 Number     Number       Type             X           Y           Z
 ---------------------------------------------------------------------
      1          8           0        0.082811   -1.886450    0.000000
      2          1           0        0.082335   -0.903849    0.000000
      3          1           0       -0.846527   -2.205566    0.000000
      4          8           0        0.082811    1.731948    0.000000
      5          1           0        0.336667    2.681192    0.000000
      6          1           0       -0.897454    1.664235    0.000000
 ---------------------------------------------------------------------

 SCF Done:  E(RHF) =  -33.6550783156     A.U. after   11 cycles
 E2 =    -0.2287199040D+00 EUMP2 =    -0.33883798219617D+02
 CCSD(T)
 CCSD(T)= -0.33900788028D+02

 The electronic state is 1-A'.
 Alpha  occ. eigenvalues --   -1.37480  -1.33881  -0.73214  -0.69447  -0.57461
 Alpha  occ. eigenvalues --   -0.53620  -0.52078  -0.48469
 Alpha virt. eigenvalues --    0.17266   0.23644   0.28741   0.34422   0.78186
 Alpha virt. eigenvalues --    0.82404   0.82542   0.84943   0.88563   0.93374
 Alpha virt. eigenvalues --    1.15341   1.19021   1.20661   1.36068   2.53060

 Mulliken charges:
               1
     1  O   -0.756619
     2  H    0.396545
     3  H    0.357765
     4  O   -0.756045
     5  H    0.388735
     6  H    0.369619
 Sum of Mulliken charges =  -0.00000

 Dipole moment (field-independent basis, Debye):
    X=             -3.7481    Y=              3.8167    Z=              0.0000  Tot=              5.3493
 Quadrupole moment (field-independent basis, Debye-Ang):
   XX=            -10.6627   YY=             -8.5007   ZZ=            -14.9934
   XY=              3.1996   XZ=              0.0000   YZ=              0.0000

 052\MP4DQ=-33.8950394\MP4SDQ=-33.8971369\CCSD=-33.8981625\CCSD(T)=-33.
 Normal termination of Gaussian 16 at Sun Dec 10 06:56:14 2023.
