 Gaussian 16, Revision A.03,
 Gaussian 16:  ES64L-G16RevA.03 25-Dec-2016

 ------------------
 #p CCSD(T)/CEP-31G
 ------------------

 ------------
 H2O_H2O_1167
 ------------
 Symbolic Z-matrix:
 Charge =  0 Multiplicity = 1

                         Standard orientation:
 ---------------------------------------------------------------------
 Center     Atomic      Atomic             Coordinates (Angstroms)
 Number     Number       Type             X           Y           Z
 ---------------------------------------------------------------------
      1          8           0        0.037546    1.570629    0.000000
      2          1           0        0.034366    0.588033    0.000000
      3          1           0       -0.890910    1.892303   -0.000000
      4          8           0        0.037546   -1.391749    0.000000
      5          1           0        0.917403   -1.829193    0.000000
      6          1           0       -0.661600   -2.082184   -0.000000
 ---------------------------------------------------------------------

 SCF Done:  E(RHF) =  -33.6631334404     A.U. after   11 cycles
 E2 =    -0.2289721615D+00 EUMP2 =    -0.33892105601883D+02
 CCSD(T)
 CCSD(T)= -0.33908676885D+02

 The electronic state is 1-A'.
 Alpha  occ. eigenvalues --   -1.38552  -1.31546  -0.74166  -0.68035  -0.59115
 Alpha  occ. eigenvalues --   -0.53288  -0.51209  -0.46216
 Alpha virt. eigenvalues --    0.17757   0.26146   0.28209   0.43132   0.76061
 Alpha virt. eigenvalues --    0.78299   0.85737   0.86078   0.93113   1.00940
 Alpha virt. eigenvalues --    1.15157   1.18814   1.22336   1.34950   2.50936

 Mulliken charges:
               1
     1  O   -0.786627
     2  H    0.431982
     3  H    0.352844
     4  O   -0.800552
     5  H    0.400480
     6  H    0.401874
 Sum of Mulliken charges =  -0.00000

 Dipole moment (field-independent basis, Debye):
    X=             -1.6633    Y=             -4.6297    Z=             -0.0000  Tot=              4.9194
 Quadrupole moment (field-independent basis, Debye-Ang):
   XX=             -9.3706   YY=             -8.5380   ZZ=            -15.0159
   XY=             -4.6469   XZ=              0.0000   YZ=             -0.0000

 648\MP4DQ=-33.90286\MP4SDQ=-33.9049626\CCSD=-33.9059272\CCSD(T)=-33.90
 Normal termination of Gaussian 16 at Sun Dec 10 06:40:29 2023.
