 Gaussian 16, Revision A.03,
 Gaussian 16:  ES64L-G16RevA.03 25-Dec-2016

 ------------------
 #p CCSD(T)/CEP-31G
 ------------------

 ------------
 H2O_H2O_1562
 ------------
 Symbolic Z-matrix:
 Charge =  0 Multiplicity = 1

                         Standard orientation:
 ---------------------------------------------------------------------
 Center     Atomic      Atomic             Coordinates (Angstroms)
 Number     Number       Type             X           Y           Z
 ---------------------------------------------------------------------
      1          8           0        0.056038    1.730157   -0.000000
      2          1           0        0.054125    0.747557   -0.000000
      3          1           0       -0.872833    2.050632   -0.000000
      4          8           0        0.056038   -1.551309    0.000000
      5          1           0        0.749488   -2.247463    0.000000
      6          1           0       -0.827384   -1.981510    0.000000
 ---------------------------------------------------------------------

 SCF Done:  E(RHF) =  -33.6602689540     A.U. after   11 cycles
 E2 =    -0.2288429584D+00 EUMP2 =    -0.33889111912388D+02
 CCSD(T)
 CCSD(T)= -0.33905915584D+02

 The electronic state is 1-A'.
 Alpha  occ. eigenvalues --   -1.37888  -1.32496  -0.73540  -0.68294  -0.58306
 Alpha  occ. eigenvalues --   -0.52573  -0.52270  -0.47147
 Alpha virt. eigenvalues --    0.17880   0.24955   0.28602   0.38421   0.77301
 Alpha virt. eigenvalues --    0.80943   0.84088   0.85808   0.91092   0.96668
 Alpha virt. eigenvalues --    1.15190   1.19772   1.20891   1.34222   2.49798

 Mulliken charges:
               1
     1  O   -0.776591
     2  H    0.420228
     3  H    0.354737
     4  O   -0.777056
     5  H    0.396168
     6  H    0.382514
 Sum of Mulliken charges =   0.00000

 Dipole moment (field-independent basis, Debye):
    X=             -2.5000    Y=             -4.5017    Z=              0.0000  Tot=              5.1493
 Quadrupole moment (field-independent basis, Debye-Ang):
   XX=             -9.5717   YY=             -8.0084   ZZ=            -15.0064
   XY=             -4.4455   XZ=              0.0000   YZ=             -0.0000

 45\MP4DQ=-33.9001467\MP4SDQ=-33.9022385\CCSD=-33.9032453\CCSD(T)=-33.9
 Normal termination of Gaussian 16 at Sun Dec 10 06:48:20 2023.
