 Gaussian 16, Revision A.03,
 Gaussian 16:  ES64L-G16RevA.03 25-Dec-2016

 ------------------
 #p CCSD(T)/CEP-31G
 ------------------

 -----------
 H2O_H2O_856
 -----------
 Symbolic Z-matrix:
 Charge =  0 Multiplicity = 1

                         Standard orientation:
 ---------------------------------------------------------------------
 Center     Atomic      Atomic             Coordinates (Angstroms)
 Number     Number       Type             X           Y           Z
 ---------------------------------------------------------------------
      1          8           0        0.076792   -1.442411    0.000000
      2          1           0        0.075782   -0.459810    0.000000
      3          1           0       -0.852373   -1.762032    0.000000
      4          8           0        0.076792    1.279265    0.000000
      5          1           0        0.451884    2.187457    0.000000
      6          1           0       -0.903959    1.339550    0.000000
 ---------------------------------------------------------------------

 SCF Done:  E(RHF) =  -33.6561003250     A.U. after   11 cycles
 E2 =    -0.2290068734D+00 EUMP2 =    -0.33885107198446D+02
 CCSD(T)
 CCSD(T)= -0.33901672564D+02

 The electronic state is 1-A'.
 Alpha  occ. eigenvalues --   -1.39609  -1.31610  -0.75672  -0.68597  -0.59215
 Alpha  occ. eigenvalues --   -0.54162  -0.50972  -0.46127
 Alpha virt. eigenvalues --    0.16985   0.26128   0.27510   0.46609   0.74844
 Alpha virt. eigenvalues --    0.77597   0.85192   0.86753   0.94285   1.09738
 Alpha virt. eigenvalues --    1.16304   1.21873   1.22814   1.36602   2.55959

 Mulliken charges:
               1
     1  O   -0.759419
     2  H    0.411105
     3  H    0.338927
     4  O   -0.809618
     5  H    0.436655
     6  H    0.382350
 Sum of Mulliken charges =   0.00000

 Dipole moment (field-independent basis, Debye):
    X=             -3.3363    Y=              4.4300    Z=              0.0000  Tot=              5.5458
 Quadrupole moment (field-independent basis, Debye-Ang):
   XX=            -10.3480   YY=             -9.0940   ZZ=            -15.0039
   XY=              3.2923   XZ=              0.0000   YZ=              0.0000

 45\MP4DQ=-33.8957101\MP4SDQ=-33.8979152\CCSD=-33.8988468\CCSD(T)=-33.9
 Normal termination of Gaussian 16 at Sun Dec 10 06:34:37 2023.
