 Gaussian 16, Revision A.03,
 Gaussian 16:  ES64L-G16RevA.03 25-Dec-2016

 ------------------
 #p CCSD(T)/CEP-31G
 ------------------

 -----------
 H2O_H2O_781
 -----------
 Symbolic Z-matrix:
 Charge =  0 Multiplicity = 1

                         Standard orientation:
 ---------------------------------------------------------------------
 Center     Atomic      Atomic             Coordinates (Angstroms)
 Number     Number       Type             X           Y           Z
 ---------------------------------------------------------------------
      1          8           0        0.076793   -1.412493    0.000000
      2          1           0        0.075761   -0.429892    0.000000
      3          1           0       -0.852364   -1.732136    0.000000
      4          8           0        0.076793    1.249352    0.000000
      5          1           0        0.451865    2.157551    0.000000
      6          1           0       -0.903958    1.309613    0.000000
 ---------------------------------------------------------------------

 SCF Done:  E(RHF) =  -33.6549103552     A.U. after   11 cycles
 E2 =    -0.2289795163D+00 EUMP2 =    -0.33883889871528D+02
 CCSD(T)
 CCSD(T)= -0.33900363780D+02

 The electronic state is 1-A'.
 Alpha  occ. eigenvalues --   -1.39910  -1.31373  -0.76036  -0.68780  -0.59195
 Alpha  occ. eigenvalues --   -0.54430  -0.50655  -0.45868
 Alpha virt. eigenvalues --    0.16920   0.26150   0.27534   0.47947   0.74591
 Alpha virt. eigenvalues --    0.77208   0.85234   0.87159   0.94793   1.09372
 Alpha virt. eigenvalues --    1.16102   1.22408   1.23636   1.36458   2.58316

 Mulliken charges:
               1
     1  O   -0.756233
     2  H    0.407895
     3  H    0.336606
     4  O   -0.814364
     5  H    0.442178
     6  H    0.383917
 Sum of Mulliken charges =  -0.00000

 Dipole moment (field-independent basis, Debye):
    X=             -3.3194    Y=              4.4811    Z=              0.0000  Tot=              5.5767
 Quadrupole moment (field-independent basis, Debye-Ang):
   XX=            -10.3475   YY=             -9.1917   ZZ=            -15.0030
   XY=              3.2674   XZ=              0.0000   YZ=              0.0000

 97\MP4DQ=-33.8943782\MP4SDQ=-33.8965976\CCSD=-33.8975119\CCSD(T)=-33.9
 Normal termination of Gaussian 16 at Sun Dec 10 06:33:12 2023.
