 Gaussian 16, Revision A.03,
 Gaussian 16:  ES64L-G16RevA.03 25-Dec-2016

 ------------------
 #p CCSD(T)/CEP-31G
 ------------------

 ------------
 H2O_H2O_3252
 ------------
 Symbolic Z-matrix:
 Charge =  0 Multiplicity = 1

                         Standard orientation:
 ---------------------------------------------------------------------
 Center     Atomic      Atomic             Coordinates (Angstroms)
 Number     Number       Type             X           Y           Z
 ---------------------------------------------------------------------
      1          8           0        0.088231   -2.389487    0.000000
      2          1           0        0.088058   -1.406886    0.000000
      3          1           0       -0.841206   -2.708317    0.000000
      4          8           0        0.088231    2.245167    0.000000
      5          1           0        0.216316    3.219385    0.000000
      6          1           0       -0.874870    2.050380    0.000000
 ---------------------------------------------------------------------

 SCF Done:  E(RHF) =  -33.6526946041     A.U. after   10 cycles
 E2 =    -0.2283831314D+00 EUMP2 =    -0.33881077735497D+02
 CCSD(T)
 CCSD(T)= -0.33898057710D+02

 The electronic state is 1-A'.
 Alpha  occ. eigenvalues --   -1.36666  -1.34793  -0.72331  -0.70394  -0.56462
 Alpha  occ. eigenvalues --   -0.54536  -0.51245  -0.49369
 Alpha virt. eigenvalues --    0.18318   0.21680   0.29406   0.31454   0.79334
 Alpha virt. eigenvalues --    0.81162   0.82331   0.84152   0.85376   0.87604
 Alpha virt. eigenvalues --    1.16060   1.18484   1.20723   1.24394   2.56062

 Mulliken charges:
               1
     1  O   -0.744828
     2  H    0.379840
     3  H    0.364710
     4  O   -0.745275
     5  H    0.377962
     6  H    0.367592
 Sum of Mulliken charges =   0.00000

 Dipole moment (field-independent basis, Debye):
    X=             -4.0401    Y=              3.4329    Z=              0.0000  Tot=              5.3016
 Quadrupole moment (field-independent basis, Debye-Ang):
   XX=            -10.9749   YY=             -8.7174   ZZ=            -14.9894
   XY=              2.8758   XZ=              0.0000   YZ=              0.0000

 6649\MP4DQ=-33.8924075\MP4SDQ=-33.8944415\CCSD=-33.8954895\CCSD(T)=-33
 Normal termination of Gaussian 16 at Sun Dec 10 06:31:36 2023.
