 Gaussian 16, Revision A.03,
 Gaussian 16:  ES64L-G16RevA.03 25-Dec-2016

 ------------------
 #p CCSD(T)/CEP-31G
 ------------------

 ------------
 H2O_H2O_1841
 ------------
 Symbolic Z-matrix:
 Charge =  0 Multiplicity = 1

                         Standard orientation:
 ---------------------------------------------------------------------
 Center     Atomic      Atomic             Coordinates (Angstroms)
 Number     Number       Type             X           Y           Z
 ---------------------------------------------------------------------
      1          8           0        0.041193    1.840409    0.000000
      2          1           0        0.038681    0.857811    0.000000
      3          1           0       -0.887482    2.161451    0.000000
      4          8           0        0.041193   -1.660532   -0.000000
      5          1           0        0.890893   -2.154007   -0.000000
      6          1           0       -0.701176   -2.304268   -0.000000
 ---------------------------------------------------------------------

 SCF Done:  E(RHF) =  -33.6595609428     A.U. after   11 cycles
 E2 =    -0.2286526704D+00 EUMP2 =    -0.33888213613166D+02
 CCSD(T)
 CCSD(T)= -0.33905054431D+02

 The electronic state is 1-A'.
 Alpha  occ. eigenvalues --   -1.37527  -1.32847  -0.73173  -0.68545  -0.57849
 Alpha  occ. eigenvalues --   -0.52689  -0.52205  -0.47512
 Alpha virt. eigenvalues --    0.18104   0.24380   0.28911   0.36293   0.77979
 Alpha virt. eigenvalues --    0.82173   0.83346   0.86244   0.89192   0.92410
 Alpha virt. eigenvalues --    1.15592   1.19932   1.20750   1.33264   2.50856

 Mulliken charges:
               1
     1  O   -0.773912
     2  H    0.411549
     3  H    0.360138
     4  O   -0.768752
     5  H    0.387496
     6  H    0.383482
 Sum of Mulliken charges =   0.00000

 Dipole moment (field-independent basis, Debye):
    X=             -1.8505    Y=             -4.4591    Z=             -0.0000  Tot=              4.8278
 Quadrupole moment (field-independent basis, Debye-Ang):
   XX=             -9.3947   YY=             -7.6490   ZZ=            -15.0043
   XY=             -5.2366   XZ=             -0.0000   YZ=              0.0000

 881\MP4DQ=-33.8993277\MP4SDQ=-33.9014055\CCSD=-33.9024238\CCSD(T)=-33.
 Normal termination of Gaussian 16 at Sun Dec 10 06:53:38 2023.
