 Gaussian 16, Revision A.03,
 Gaussian 16:  ES64L-G16RevA.03 25-Dec-2016

 ------------------
 #p CCSD(T)/CEP-31G
 ------------------

 -----------
 H2O_H2O_351
 -----------
 Symbolic Z-matrix:
 Charge =  0 Multiplicity = 1

                         Standard orientation:
 ---------------------------------------------------------------------
 Center     Atomic      Atomic             Coordinates (Angstroms)
 Number     Number       Type             X           Y           Z
 ---------------------------------------------------------------------
      1          8           0        0.090690   -1.229688    0.000000
      2          1           0        0.090525   -0.247086    0.000000
      3          1           0       -0.838749   -1.548511    0.000000
      4          8           0        0.090690    1.090994    0.000000
      5          1           0        0.154791    2.071502    0.000000
      6          1           0       -0.857611    0.833641    0.000000
 ---------------------------------------------------------------------

 SCF Done:  E(RHF) =  -33.6188539634     A.U. after   11 cycles
 E2 =    -0.2288655490D+00 EUMP2 =    -0.33847719512426D+02
 CCSD(T)
 CCSD(T)= -0.33863800642D+02

 The electronic state is 1-A'.
 Alpha  occ. eigenvalues --   -1.43324  -1.31013  -0.81351  -0.69340  -0.58550
 Alpha  occ. eigenvalues --   -0.56635  -0.49689  -0.45237
 Alpha virt. eigenvalues --    0.16235   0.24077   0.28762   0.55253   0.73197
 Alpha virt. eigenvalues --    0.76834   0.86954   0.88757   0.95127   1.10887
 Alpha virt. eigenvalues --    1.12853   1.24198   1.27489   1.46045   2.76288

 Mulliken charges:
               1
     1  O   -0.685838
     2  H    0.286450
     3  H    0.321014
     4  O   -0.766405
     5  H    0.470175
     6  H    0.374604
 Sum of Mulliken charges =  -0.00000

 Dipole moment (field-independent basis, Debye):
    X=             -3.8541    Y=              4.2938    Z=              0.0000  Tot=              5.7698
 Quadrupole moment (field-independent basis, Debye-Ang):
   XX=            -11.2071   YY=            -10.0736   ZZ=            -14.9463
   XY=              2.3136   XZ=              0.0000   YZ=              0.0000

 3\MP4DQ=-33.857492\MP4SDQ=-33.8599515\CCSD=-33.8607129\CCSD(T)=-33.863
 Normal termination of Gaussian 16 at Sun Dec 10 06:24:58 2023.
