 Gaussian 16, Revision A.03,
 Gaussian 16:  ES64L-G16RevA.03 25-Dec-2016

 ------------------
 #p CCSD(T)/CEP-31G
 ------------------

 -----------
 H2O_H2O_667
 -----------
 Symbolic Z-matrix:
 Charge =  0 Multiplicity = 1

                         Standard orientation:
 ---------------------------------------------------------------------
 Center     Atomic      Atomic             Coordinates (Angstroms)
 Number     Number       Type             X           Y           Z
 ---------------------------------------------------------------------
      1          8           0        0.037591    1.371173   -0.000000
      2          1           0        0.033916    0.388578   -0.000000
      3          1           0       -0.890703    1.693314   -0.000000
      4          8           0        0.037591   -1.192330    0.000000
      5          1           0        0.917229   -1.630218    0.000000
      6          1           0       -0.661902   -1.882414    0.000000
 ---------------------------------------------------------------------

 SCF Done:  E(RHF) =  -33.6595494773     A.U. after   11 cycles
 E2 =    -0.2289133073D+00 EUMP2 =    -0.33888462784613D+02
 CCSD(T)
 CCSD(T)= -0.33904376274D+02

 The electronic state is 1-A'.
 Alpha  occ. eigenvalues --   -1.40244  -1.29863  -0.75660  -0.69923  -0.58958
 Alpha  occ. eigenvalues --   -0.54921  -0.48962  -0.44418
 Alpha virt. eigenvalues --    0.17318   0.27230   0.27781   0.51765   0.74385
 Alpha virt. eigenvalues --    0.75063   0.85743   0.88430   0.96321   0.99674
 Alpha virt. eigenvalues --    1.15441   1.18223   1.24250   1.37213   2.62644

 Mulliken charges:
               1
     1  O   -0.781318
     2  H    0.427922
     3  H    0.340210
     4  O   -0.831036
     5  H    0.419068
     6  H    0.425155
 Sum of Mulliken charges =   0.00000

 Dipole moment (field-independent basis, Debye):
    X=             -1.6317    Y=             -4.9310    Z=              0.0000  Tot=              5.1940
 Quadrupole moment (field-independent basis, Debye-Ang):
   XX=             -9.3362   YY=             -9.4014   ZZ=            -15.0174
   XY=             -4.0654   XZ=              0.0000   YZ=             -0.0000

 1\MP4DQ=-33.898453\MP4SDQ=-33.9006053\CCSD=-33.9014498\CCSD(T)=-33.904
 Normal termination of Gaussian 16 at Sun Dec 10 06:31:04 2023.
