 Gaussian 16, Revision A.03,
 Gaussian 16:  ES64L-G16RevA.03 25-Dec-2016

 ------------------
 #p CCSD(T)/CEP-31G
 ------------------

 -----------
 H2O_H2O_619
 -----------
 Symbolic Z-matrix:
 Charge =  0 Multiplicity = 1

                         Standard orientation:
 ---------------------------------------------------------------------
 Center     Atomic      Atomic             Coordinates (Angstroms)
 Number     Number       Type             X           Y           Z
 ---------------------------------------------------------------------
      1          8           0        0.030356    1.349412    0.000000
      2          1           0        0.026134    0.366819    0.000000
      3          1           0       -0.897759    1.672069    0.000000
      4          8           0        0.030356   -1.173919   -0.000000
      5          1           0        0.959445   -1.493761   -0.000000
      6          1           0       -0.573512   -1.949065   -0.000000
 ---------------------------------------------------------------------

 SCF Done:  E(RHF) =  -33.6577381429     A.U. after   11 cycles
 E2 =    -0.2286925503D+00 EUMP2 =    -0.33886430693144D+02
 CCSD(T)
 CCSD(T)= -0.33902292483D+02

 The electronic state is 1-A'.
 Alpha  occ. eigenvalues --   -1.40500  -1.29737  -0.76106  -0.70042  -0.58928
 Alpha  occ. eigenvalues --   -0.55117  -0.48749  -0.44286
 Alpha virt. eigenvalues --    0.17312   0.27023   0.27973   0.52567   0.74243
 Alpha virt. eigenvalues --    0.75186   0.86223   0.88660   0.95235   1.01133
 Alpha virt. eigenvalues --    1.15889   1.19047   1.24788   1.37406   2.64913

 Mulliken charges:
               1
     1  O   -0.778358
     2  H    0.417920
     3  H    0.342036
     4  O   -0.834788
     5  H    0.416530
     6  H    0.436660
 Sum of Mulliken charges =   0.00000

 Dipole moment (field-independent basis, Debye):
    X=             -1.3303    Y=             -4.9000    Z=             -0.0000  Tot=              5.0774
 Quadrupole moment (field-independent basis, Debye-Ang):
   XX=             -9.3925   YY=             -9.4659   ZZ=            -15.0147
   XY=             -4.1310   XZ=             -0.0000   YZ=              0.0000

 \MP4DQ=-33.8963564\MP4SDQ=-33.8985199\CCSD=-33.8993574\CCSD(T)=-33.902
 Normal termination of Gaussian 16 at Sun Dec 10 06:30:10 2023.
