 Gaussian 16, Revision A.03,
 Gaussian 16:  ES64L-G16RevA.03 25-Dec-2016

 ------------------
 #p CCSD(T)/CEP-31G
 ------------------

 ------------
 H2O_H2O_1016
 ------------
 Symbolic Z-matrix:
 Charge =  0 Multiplicity = 1

                         Standard orientation:
 ---------------------------------------------------------------------
 Center     Atomic      Atomic             Coordinates (Angstroms)
 Number     Number       Type             X           Y           Z
 ---------------------------------------------------------------------
      1          8           0        0.041246    1.511312    0.000000
      2          1           0        0.038152    0.528716    0.000000
      3          1           0       -0.887239    1.832904    0.000000
      4          8           0        0.041246   -1.331485    0.000000
      5          1           0        0.890653   -1.825462    0.000000
      6          1           0       -0.701503   -1.974780    0.000000
 ---------------------------------------------------------------------

 SCF Done:  E(RHF) =  -33.6632595284     A.U. after   11 cycles
 E2 =    -0.2290542364D+00 EUMP2 =    -0.33892313764838D+02
 CCSD(T)
 CCSD(T)= -0.33908740492D+02

 The electronic state is 1-A'.
 Alpha  occ. eigenvalues --   -1.38936  -1.31111  -0.74500  -0.68221  -0.59295
 Alpha  occ. eigenvalues --   -0.53680  -0.50659  -0.45758
 Alpha virt. eigenvalues --    0.17634   0.26587   0.27971   0.45419   0.75537
 Alpha virt. eigenvalues --    0.77231   0.85803   0.86493   0.94879   1.00171
 Alpha virt. eigenvalues --    1.15102   1.18827   1.22706   1.35582   2.52809

 Mulliken charges:
               1
     1  O   -0.786752
     2  H    0.435664
     3  H    0.348701
     4  O   -0.809707
     5  H    0.407135
     6  H    0.404958
 Sum of Mulliken charges =   0.00000

 Dipole moment (field-independent basis, Debye):
    X=             -1.8129    Y=             -4.7211    Z=              0.0000  Tot=              5.0572
 Quadrupole moment (field-independent basis, Debye-Ang):
   XX=             -9.3603   YY=             -8.7711   ZZ=            -15.0183
   XY=             -4.3917   XZ=              0.0000   YZ=              0.0000

 2166\MP4DQ=-33.9028961\MP4SDQ=-33.9050084\CCSD=-33.9059448\CCSD(T)=-33
 Normal termination of Gaussian 16 at Sun Dec 10 06:37:37 2023.
