 Gaussian 16, Revision A.03,
 Gaussian 16:  ES64L-G16RevA.03 25-Dec-2016

 ------------------
 #p CCSD(T)/CEP-31G
 ------------------

 ------------
 H2O_H2O_1032
 ------------
 Symbolic Z-matrix:
 Charge =  0 Multiplicity = 1

                         Standard orientation:
 ---------------------------------------------------------------------
 Center     Atomic      Atomic             Coordinates (Angstroms)
 Number     Number       Type             X           Y           Z
 ---------------------------------------------------------------------
      1          8           0        0.073572    1.514242   -0.000000
      2          1           0        0.072420    0.531642   -0.000000
      3          1           0       -0.855547    1.833998   -0.000000
      4          8           0        0.073572   -1.347364    0.000000
      5          1           0        0.507133   -2.229141    0.000000
      6          1           0       -0.901154   -1.471522    0.000000
 ---------------------------------------------------------------------

 SCF Done:  E(RHF) =  -33.6585939741     A.U. after   11 cycles
 E2 =    -0.2290378075D+00 EUMP2 =    -0.33887631781632D+02
 CCSD(T)
 CCSD(T)= -0.33904309997D+02

 The electronic state is 1-A'.
 Alpha  occ. eigenvalues --   -1.39008  -1.31916  -0.74876  -0.68368  -0.59103
 Alpha  occ. eigenvalues --   -0.53632  -0.51425  -0.46484
 Alpha virt. eigenvalues --    0.17207   0.25965   0.27701   0.44012   0.75496
 Alpha virt. eigenvalues --    0.78341   0.85229   0.85954   0.93436   1.09156
 Alpha virt. eigenvalues --    1.17028   1.17544   1.22125   1.36708   2.52438

 Mulliken charges:
               1
     1  O   -0.768384
     2  H    0.420268
     3  H    0.343588
     4  O   -0.801208
     5  H    0.424187
     6  H    0.381549
 Sum of Mulliken charges =   0.00000

 Dipole moment (field-independent basis, Debye):
    X=             -3.2232    Y=             -4.4173    Z=              0.0000  Tot=              5.4683
 Quadrupole moment (field-independent basis, Debye-Ang):
   XX=            -10.1849   YY=             -8.8388   ZZ=            -15.0065
   XY=             -3.4980   XZ=              0.0000   YZ=             -0.0000

 62\MP4DQ=-33.8984074\MP4SDQ=-33.9005731\CCSD=-33.901534\CCSD(T)=-33.90
 Normal termination of Gaussian 16 at Sun Dec 10 06:37:55 2023.
