 Gaussian 16, Revision A.03,
 Gaussian 16:  ES64L-G16RevA.03 25-Dec-2016

 ------------------
 #p CCSD(T)/CEP-31G
 ------------------

 -----------
 H2O_H2O_347
 -----------
 Symbolic Z-matrix:
 Charge =  0 Multiplicity = 1

                         Standard orientation:
 ---------------------------------------------------------------------
 Center     Atomic      Atomic             Coordinates (Angstroms)
 Number     Number       Type             X           Y           Z
 ---------------------------------------------------------------------
      1          8           0       -0.020086    1.235111    0.000000
      2          1           0       -0.014700    0.252524    0.000000
      3          1           0        0.907646    1.558867    0.000000
      4          8           0       -0.020086   -1.068115    0.000000
      5          1           0       -0.993565   -1.201707    0.000000
      6          1           0        0.421994   -1.945651    0.000000
 ---------------------------------------------------------------------

 SCF Done:  E(RHF) =  -33.6387707054     A.U. after   11 cycles
 E2 =    -0.2278243814D+00 EUMP2 =    -0.33866595086850D+02
 CCSD(T)
 CCSD(T)= -0.33881955648D+02

 The electronic state is 1-A'.
 Alpha  occ. eigenvalues --   -1.42591  -1.28631  -0.79078  -0.71674  -0.57897
 Alpha  occ. eigenvalues --   -0.56648  -0.46894  -0.43027
 Alpha virt. eigenvalues --    0.17102   0.25841   0.29060   0.57876   0.73625
 Alpha virt. eigenvalues --    0.75052   0.88089   0.90116   0.93840   1.02650
 Alpha virt. eigenvalues --    1.14888   1.21112   1.28397   1.38509   2.81133

 Mulliken charges:
               1
     1  O   -0.757579
     2  H    0.359424
     3  H    0.338154
     4  O   -0.835095
     5  H    0.424420
     6  H    0.470676
 Sum of Mulliken charges =   0.00000

 Dipole moment (field-independent basis, Debye):
    X=              0.8839    Y=             -5.0201    Z=              0.0000  Tot=              5.0973
 Quadrupole moment (field-independent basis, Debye-Ang):
   XX=             -9.5702   YY=             -9.9459   ZZ=            -14.9851
   XY=              3.9843   XZ=              0.0000   YZ=              0.0000

 6\MP4DQ=-33.8759136\MP4SDQ=-33.8781572\CCSD=-33.8789102\CCSD(T)=-33.88
 Normal termination of Gaussian 16 at Sun Dec 10 06:24:53 2023.
