 Gaussian 16, Revision A.03,
 Gaussian 16:  ES64L-G16RevA.03 25-Dec-2016

 ------------------
 #p CCSD(T)/CEP-31G
 ------------------

 -----------
 H2O_H2O_636
 -----------
 Symbolic Z-matrix:
 Charge =  0 Multiplicity = 1

                         Standard orientation:
 ---------------------------------------------------------------------
 Center     Atomic      Atomic             Coordinates (Angstroms)
 Number     Number       Type             X           Y           Z
 ---------------------------------------------------------------------
      1          8           0        0.059729    1.360372   -0.000000
      2          1           0        0.057505    0.377773   -0.000000
      3          1           0       -0.869041    1.681140   -0.000000
      4          8           0        0.059729   -1.183045    0.000000
      5          1           0        0.705930   -1.923268    0.000000
      6          1           0       -0.850055   -1.554259    0.000000
 ---------------------------------------------------------------------

 SCF Done:  E(RHF) =  -33.6567757178     A.U. after   11 cycles
 E2 =    -0.2290599535D+00 EUMP2 =    -0.33885835671391D+02
 CCSD(T)
 CCSD(T)= -0.33901774246D+02

 The electronic state is 1-A'.
 Alpha  occ. eigenvalues --   -1.40461  -1.30013  -0.75963  -0.70159  -0.58750
 Alpha  occ. eigenvalues --   -0.55073  -0.49054  -0.44504
 Alpha virt. eigenvalues --    0.17072   0.26835   0.27820   0.51971   0.74259
 Alpha virt. eigenvalues --    0.75176   0.85248   0.88455   0.96630   1.03088
 Alpha virt. eigenvalues --    1.14933   1.18342   1.23397   1.36579   2.64567

 Mulliken charges:
               1
     1  O   -0.771357
     2  H    0.426868
     3  H    0.332413
     4  O   -0.831118
     5  H    0.439863
     6  H    0.403331
 Sum of Mulliken charges =  -0.00000

 Dipole moment (field-independent basis, Debye):
    X=             -2.5350    Y=             -4.9217    Z=              0.0000  Tot=              5.5362
 Quadrupole moment (field-independent basis, Debye-Ang):
   XX=             -9.6263   YY=             -9.4473   ZZ=            -15.0112
   XY=             -3.7118   XZ=              0.0000   YZ=             -0.0000

 \MP4DQ=-33.8958053\MP4SDQ=-33.8979925\CCSD=-33.8988321\CCSD(T)=-33.901
 Normal termination of Gaussian 16 at Sun Dec 10 06:30:29 2023.
