 Gaussian 16, Revision A.03,
 Gaussian 16:  ES64L-G16RevA.03 25-Dec-2016

 ------------------
 #p CCSD(T)/CEP-31G
 ------------------

 ------------
 H2O_H2O_2449
 ------------
 Symbolic Z-matrix:
 Charge =  0 Multiplicity = 1

                         Standard orientation:
 ---------------------------------------------------------------------
 Center     Atomic      Atomic             Coordinates (Angstroms)
 Number     Number       Type             X           Y           Z
 ---------------------------------------------------------------------
      1          8           0       -0.013553    2.068536    0.000000
      2          1           0       -0.010164    1.085940    0.000000
      3          1           0        0.914836    2.390405    0.000000
      4          8           0       -0.013553   -1.909285    0.000000
      5          1           0       -0.996149   -1.912673    0.000000
      6          1           0        0.308317   -2.837674    0.000000
 ---------------------------------------------------------------------

 SCF Done:  E(RHF) =  -33.6565914687     A.U. after   11 cycles
 E2 =    -0.2284012914D+00 EUMP2 =    -0.33884992760108D+02
 CCSD(T)
 CCSD(T)= -0.33901900309D+02

 The electronic state is 1-A'.
 Alpha  occ. eigenvalues --   -1.37001  -1.33953  -0.72672  -0.69607  -0.57027
 Alpha  occ. eigenvalues --   -0.53816  -0.51635  -0.48601
 Alpha virt. eigenvalues --    0.17942   0.23071   0.29282   0.33066   0.78861
 Alpha virt. eigenvalues --    0.81954   0.82921   0.84860   0.87550   0.87829
 Alpha virt. eigenvalues --    1.15966   1.19661   1.20563   1.30960   2.55137

 Mulliken charges:
               1
     1  O   -0.761215
     2  H    0.390786
     3  H    0.368848
     4  O   -0.757872
     5  H    0.378426
     6  H    0.381028
 Sum of Mulliken charges =   0.00000

 Dipole moment (field-independent basis, Debye):
    X=              0.6125    Y=             -3.8506    Z=              0.0000  Tot=              3.8990
 Quadrupole moment (field-independent basis, Debye-Ang):
   XX=             -9.8645   YY=             -8.0035   ZZ=            -14.9974
   XY=              7.4561   XZ=              0.0000   YZ=              0.0000

 4713\MP4DQ=-33.8962251\MP4SDQ=-33.8982841\CCSD=-33.8993144\CCSD(T)=-33
 Normal termination of Gaussian 16 at Sun Dec 10 07:06:32 2023.
