 Gaussian 16, Revision A.03,
 Gaussian 16:  ES64L-G16RevA.03 25-Dec-2016

 ------------------
 #p CCSD(T)/CEP-31G
 ------------------

 -----------
 H2O_H2O_133
 -----------
 Symbolic Z-matrix:
 Charge =  0 Multiplicity = 1

                         Standard orientation:
 ---------------------------------------------------------------------
 Center     Atomic      Atomic             Coordinates (Angstroms)
 Number     Number       Type             X           Y           Z
 ---------------------------------------------------------------------
      1          8           0        0.070281    1.157012   -0.000000
      2          1           0        0.068479    0.174412   -0.000000
      3          1           0       -0.858627    1.477381   -0.000000
      4          8           0        0.070281   -0.986903    0.000000
      5          1           0        0.560021   -1.838759    0.000000
      6          1           0       -0.894362   -1.173908    0.000000
 ---------------------------------------------------------------------

 SCF Done:  E(RHF) =  -33.6058162798     A.U. after   11 cycles
 E2 =    -0.2280625936D+00 EUMP2 =    -0.33833878873471D+02
 CCSD(T)
 CCSD(T)= -0.33848777671D+02

 The electronic state is 1-A'.
 Alpha  occ. eigenvalues --   -1.45327  -1.27785  -0.81707  -0.75128  -0.58501
 Alpha  occ. eigenvalues --   -0.55332  -0.45230  -0.41792
 Alpha virt. eigenvalues --    0.16099   0.24391   0.30008   0.61081   0.73215
 Alpha virt. eigenvalues --    0.74148   0.88307   0.91174   0.94683   1.07718
 Alpha virt. eigenvalues --    1.11327   1.20627   1.27390   1.36107   2.99875

 Mulliken charges:
               1
     1  O   -0.723772
     2  H    0.314338
     3  H    0.302278
     4  O   -0.796417
     5  H    0.488756
     6  H    0.414816
 Sum of Mulliken charges =  -0.00000

 Dipole moment (field-independent basis, Debye):
    X=             -2.8323    Y=             -5.4137    Z=              0.0000  Tot=              6.1098
 Quadrupole moment (field-independent basis, Debye-Ang):
   XX=             -9.9665   YY=            -10.4727   ZZ=            -14.9294
   XY=             -3.1349   XZ=              0.0000   YZ=             -0.0000

 133\MP4DQ=-33.8425091\MP4SDQ=-33.8449242\CCSD=-33.8455645\CCSD(T)=-33.
 Normal termination of Gaussian 16 at Sun Dec 10 06:20:39 2023.
