 Gaussian 16, Revision A.03,
 Gaussian 16:  ES64L-G16RevA.03 25-Dec-2016

 ------------------
 #p CCSD(T)/CEP-31G
 ------------------

 ------------
 H2O_H2O_1450
 ------------
 Symbolic Z-matrix:
 Charge =  0 Multiplicity = 1

                         Standard orientation:
 ---------------------------------------------------------------------
 Center     Atomic      Atomic             Coordinates (Angstroms)
 Number     Number       Type             X           Y           Z
 ---------------------------------------------------------------------
      1          8           0        0.092949   -1.665244    0.000000
      2          1           0        0.092949   -0.682642    0.000000
      3          1           0       -0.836544   -1.983910    0.000000
      4          8           0        0.092949    1.532457    0.000000
      5          1           0        0.092950    2.515059    0.000000
      6          1           0       -0.836544    1.213790    0.000000
 ---------------------------------------------------------------------

 SCF Done:  E(RHF) =  -33.6525176150     A.U. after   11 cycles
 E2 =    -0.2291903937D+00 EUMP2 =    -0.33881708008663D+02
 CCSD(T)
 CCSD(T)= -0.33898786829D+02

 The electronic state is 1-A'.
 Alpha  occ. eigenvalues --   -1.38246  -1.34110  -0.74329  -0.69492  -0.58113
 Alpha  occ. eigenvalues --   -0.53733  -0.52769  -0.48634
 Alpha virt. eigenvalues --    0.16524   0.24422   0.28135   0.37617   0.76704
 Alpha virt. eigenvalues --    0.81289   0.83281   0.84549   0.88840   1.06708
 Alpha virt. eigenvalues --    1.15895   1.16983   1.22047   1.39981   2.51319

 Mulliken charges:
               1
     1  O   -0.748591
     2  H    0.389120
     3  H    0.353278
     4  O   -0.755132
     5  H    0.398812
     6  H    0.362512
 Sum of Mulliken charges =  -0.00000

 Dipole moment (field-independent basis, Debye):
    X=             -4.1741    Y=              3.3935    Z=              0.0000  Tot=              5.3795
 Quadrupole moment (field-independent basis, Debye-Ang):
   XX=            -11.3381   YY=             -9.5746   ZZ=            -14.9869
   XY=              2.2581   XZ=              0.0000   YZ=              0.0000

 67\MP4DQ=-33.892906\MP4SDQ=-33.8950815\CCSD=-33.8960805\CCSD(T)=-33.89
 Normal termination of Gaussian 16 at Sun Dec 10 06:46:05 2023.
