 Gaussian 16, Revision A.03,
 Gaussian 16:  ES64L-G16RevA.03 25-Dec-2016

 ------------------
 #p CCSD(T)/CEP-31G
 ------------------

 ------------
 H2O_H2O_4321
 ------------
 Symbolic Z-matrix:
 Charge =  0 Multiplicity = 1

                         Standard orientation:
 ---------------------------------------------------------------------
 Center     Atomic      Atomic             Coordinates (Angstroms)
 Number     Number       Type             X           Y           Z
 ---------------------------------------------------------------------
      1          8           0       -0.023170    2.822485    0.000000
      2          1           0       -0.021008    1.839886    0.000000
      3          1           0        0.905619    3.143196    0.000000
      4          8           0       -0.023170   -2.652077    0.000000
      5          1           0       -0.986467   -2.845893    0.000000
      6          1           0        0.472577   -3.500452    0.000000
 ---------------------------------------------------------------------

 SCF Done:  E(RHF) =  -33.6535762982     A.U. after   11 cycles
 E2 =    -0.2282851040D+00 EUMP2 =    -0.33881861402179D+02
 CCSD(T)
 CCSD(T)= -0.33898812150D+02

 The electronic state is 1-A'.
 Alpha  occ. eigenvalues --   -1.36284  -1.34691  -0.71925  -0.70328  -0.56120
 Alpha  occ. eigenvalues --   -0.54487  -0.50882  -0.49293
 Alpha virt. eigenvalues --    0.19554   0.21235   0.29831   0.31512   0.79670
 Alpha virt. eigenvalues --    0.81221   0.82494   0.84205   0.85690   0.87306
 Alpha virt. eigenvalues --    1.16694   1.18298   1.21126   1.22832   2.56647

 Mulliken charges:
               1
     1  O   -0.748088
     2  H    0.378659
     3  H    0.369408
     4  O   -0.747532
     5  H    0.373897
     6  H    0.373655
 Sum of Mulliken charges =   0.00000

 Dipole moment (field-independent basis, Debye):
    X=              1.0631    Y=             -3.9990    Z=              0.0000  Tot=              4.1379
 Quadrupole moment (field-independent basis, Debye-Ang):
   XX=             -9.5978   YY=             -6.1048   ZZ=            -14.9922
   XY=              9.2379   XZ=              0.0000   YZ=              0.0000

 16\MP4DQ=-33.8931801\MP4SDQ=-33.8952035\CCSD=-33.8962552\CCSD(T)=-33.8
 Normal termination of Gaussian 16 at Sun Dec 10 06:50:46 2023.
