 Gaussian 16, Revision A.03,
 Gaussian 16:  ES64L-G16RevA.03 25-Dec-2016

 ------------------
 #p CCSD(T)/CEP-31G
 ------------------

 ------------
 H2O_H2O_1643
 ------------
 Symbolic Z-matrix:
 Charge =  0 Multiplicity = 1

                         Standard orientation:
 ---------------------------------------------------------------------
 Center     Atomic      Atomic             Coordinates (Angstroms)
 Number     Number       Type             X           Y           Z
 ---------------------------------------------------------------------
      1          8           0        0.033862    1.759328   -0.000000
      2          1           0        0.030856    0.776731   -0.000000
      3          1           0       -0.894652    2.080836   -0.000000
      4          8           0        0.033862   -1.581859    0.000000
      5          1           0        0.940513   -1.960660    0.000000
      6          1           0       -0.618500   -2.316658    0.000000
 ---------------------------------------------------------------------

 SCF Done:  E(RHF) =  -33.6607410240     A.U. after   11 cycles
 E2 =    -0.2287253375D+00 EUMP2 =    -0.33889466361445D+02
 CCSD(T)
 CCSD(T)= -0.33906272729D+02

 The electronic state is 1-A'.
 Alpha  occ. eigenvalues --   -1.37745  -1.32580  -0.73397  -0.68364  -0.58185
 Alpha  occ. eigenvalues --   -0.52438  -0.52409  -0.47258
 Alpha virt. eigenvalues --    0.17999   0.24866   0.28764   0.37768   0.77519
 Alpha virt. eigenvalues --    0.81151   0.83853   0.86405   0.89674   0.96259
 Alpha virt. eigenvalues --    1.15419   1.19463   1.21211   1.34275   2.50228

 Mulliken charges:
               1
     1  O   -0.778814
     2  H    0.416662
     3  H    0.360001
     4  O   -0.776322
     5  H    0.389034
     6  H    0.389438
 Sum of Mulliken charges =  -0.00000

 Dipole moment (field-independent basis, Debye):
    X=             -1.5171    Y=             -4.4435    Z=              0.0000  Tot=              4.6954
 Quadrupole moment (field-independent basis, Debye-Ang):
   XX=             -9.4106   YY=             -7.9392   ZZ=            -15.0072
   XY=             -5.3096   XZ=              0.0000   YZ=             -0.0000

 \MP4DQ=-33.9005215\MP4SDQ=-33.9026073\CCSD=-33.9036179\CCSD(T)=-33.906
 Normal termination of Gaussian 16 at Sun Dec 10 06:49:55 2023.
