 Gaussian 16, Revision A.03,
 Gaussian 16:  ES64L-G16RevA.03 25-Dec-2016

 ------------------
 #p CCSD(T)/CEP-31G
 ------------------

 ------------
 H2O_H2O_3990
 ------------
 Symbolic Z-matrix:
 Charge =  0 Multiplicity = 1

                         Standard orientation:
 ---------------------------------------------------------------------
 Center     Atomic      Atomic             Coordinates (Angstroms)
 Number     Number       Type             X           Y           Z
 ---------------------------------------------------------------------
      1          8           0        0.044836    2.698286    0.000000
      2          1           0        0.043271    1.715686    0.000000
      3          1           0       -0.884148    3.018433   -0.000000
      4          8           0        0.044836   -2.517864    0.000000
      5          1           0        0.860970   -3.065069    0.000000
      6          1           0       -0.737472   -3.112423   -0.000000
 ---------------------------------------------------------------------

 SCF Done:  E(RHF) =  -33.6537892615     A.U. after   11 cycles
 E2 =    -0.2282887454D+00 EUMP2 =    -0.33882078006876D+02
 CCSD(T)
 CCSD(T)= -0.33899021460D+02

 The electronic state is 1-A'.
 Alpha  occ. eigenvalues --   -1.36368  -1.34485  -0.72009  -0.70113  -0.56219
 Alpha  occ. eigenvalues --   -0.54281  -0.50969  -0.49088
 Alpha virt. eigenvalues --    0.19453   0.21485   0.29762   0.31751   0.79588
 Alpha virt. eigenvalues --    0.81419   0.82364   0.84425   0.85608   0.87540
 Alpha virt. eigenvalues --    1.16619   1.18526   1.21057   1.23135   2.56576

 Mulliken charges:
               1
     1  O   -0.748922
     2  H    0.381242
     3  H    0.367611
     4  O   -0.748106
     5  H    0.375337
     6  H    0.372839
 Sum of Mulliken charges =  -0.00000

 Dipole moment (field-independent basis, Debye):
    X=             -2.0552    Y=             -4.2482    Z=             -0.0000  Tot=              4.7192
 Quadrupole moment (field-independent basis, Debye-Ang):
   XX=             -9.4277   YY=             -5.5675   ZZ=            -14.9927
   XY=             -7.0186   XZ=              0.0000   YZ=             -0.0000

 09\MP4DQ=-33.8933901\MP4SDQ=-33.8954141\CCSD=-33.8964642\CCSD(T)=-33.8
 Normal termination of Gaussian 16 at Sun Dec 10 06:44:48 2023.
