 Gaussian 16, Revision A.03,
 Gaussian 16:  ES64L-G16RevA.03 25-Dec-2016

 ------------------
 #p CCSD(T)/CEP-31G
 ------------------

 ------------
 H2O_H2O_2359
 ------------
 Symbolic Z-matrix:
 Charge =  0 Multiplicity = 1

                         Standard orientation:
 ---------------------------------------------------------------------
 Center     Atomic      Atomic             Coordinates (Angstroms)
 Number     Number       Type             X           Y           Z
 ---------------------------------------------------------------------
      1          8           0        0.066774    2.046124   -0.000000
      2          1           0        0.065639    1.063523   -0.000000
      3          1           0       -0.862351    2.365863   -0.000000
      4          8           0        0.066774   -1.873040    0.000000
      5          1           0        0.611735   -2.690674    0.000000
      6          1           0       -0.883403   -2.123381    0.000000
 ---------------------------------------------------------------------

 SCF Done:  E(RHF) =  -33.6560002443     A.U. after   11 cycles
 E2 =    -0.2285007399D+00 EUMP2 =    -0.33884500984284D+02
 CCSD(T)
 CCSD(T)= -0.33901421875D+02

 The electronic state is 1-A'.
 Alpha  occ. eigenvalues --   -1.37121  -1.33696  -0.72786  -0.69296  -0.57133
 Alpha  occ. eigenvalues --   -0.53500  -0.51747  -0.48314
 Alpha virt. eigenvalues --    0.18108   0.23105   0.29103   0.33470   0.78750
 Alpha virt. eigenvalues --    0.82255   0.83568   0.85155   0.86891   0.88531
 Alpha virt. eigenvalues --    1.15875   1.19771   1.20399   1.30740   2.53945

 Mulliken charges:
               1
     1  O   -0.758849
     2  H    0.396082
     3  H    0.360923
     4  O   -0.755354
     5  H    0.383604
     6  H    0.373595
 Sum of Mulliken charges =   0.00000

 Dipole moment (field-independent basis, Debye):
    X=             -3.0300    Y=             -4.2114    Z=              0.0000  Tot=              5.1882
 Quadrupole moment (field-independent basis, Debye-Ang):
   XX=             -9.8984   YY=             -7.4076   ZZ=            -14.9965
   XY=             -4.3947   XZ=              0.0000   YZ=             -0.0000

 864\MP4DQ=-33.8957347\MP4SDQ=-33.8977993\CCSD=-33.8988296\CCSD(T)=-33.
 Normal termination of Gaussian 16 at Sun Dec 10 07:04:51 2023.
