 Gaussian 16, Revision A.03,
 Gaussian 16:  ES64L-G16RevA.03 25-Dec-2016

 ------------------
 #p CCSD(T)/CEP-31G
 ------------------

 -----------
 H2O_H2O_135
 -----------
 Symbolic Z-matrix:
 Charge =  0 Multiplicity = 1

                         Standard orientation:
 ---------------------------------------------------------------------
 Center     Atomic      Atomic             Coordinates (Angstroms)
 Number     Number       Type             X           Y           Z
 ---------------------------------------------------------------------
      1          8           0        0.063347    1.159860    0.000000
      2          1           0        0.060994    0.177261    0.000000
      3          1           0       -0.865381    1.480750    0.000000
      4          8           0        0.063347   -0.984511   -0.000000
      5          1           0        0.659649   -1.765492   -0.000000
      6          1           0       -0.868809   -1.295306   -0.000000
 ---------------------------------------------------------------------

 SCF Done:  E(RHF) =  -33.6093111836     A.U. after   11 cycles
 E2 =    -0.2280635624D+00 EUMP2 =    -0.33837374746038D+02
 CCSD(T)
 CCSD(T)= -0.33852138547D+02

 The electronic state is 1-A'.
 Alpha  occ. eigenvalues --   -1.45164  -1.27426  -0.80774  -0.76230  -0.58517
 Alpha  occ. eigenvalues --   -0.55117  -0.44767  -0.41427
 Alpha virt. eigenvalues --    0.16164   0.24799   0.30053   0.61337   0.73248
 Alpha virt. eigenvalues --    0.73791   0.87496   0.91401   0.93334   1.07952
 Alpha virt. eigenvalues --    1.11407   1.18616   1.27896   1.34834   2.96954

 Mulliken charges:
               1
     1  O   -0.736094
     2  H    0.327536
     3  H    0.302835
     4  O   -0.796144
     5  H    0.478610
     6  H    0.423257
 Sum of Mulliken charges =   0.00000

 Dipole moment (field-independent basis, Debye):
    X=             -2.5475    Y=             -5.5385    Z=             -0.0000  Tot=              6.0963
 Quadrupole moment (field-independent basis, Debye-Ang):
   XX=             -9.6869   YY=            -10.5478   ZZ=            -14.9363
   XY=             -3.2494   XZ=             -0.0000   YZ=              0.0000

 117\MP4DQ=-33.845908\MP4SDQ=-33.8482895\CCSD=-33.8489125\CCSD(T)=-33.8
 Normal termination of Gaussian 16 at Sun Dec 10 06:20:42 2023.
