 Gaussian 16, Revision A.03,
 Gaussian 16:  ES64L-G16RevA.03 25-Dec-2016

 ------------------
 #p CCSD(T)/CEP-31G
 ------------------

 ------------
 H2O_H2O_1095
 ------------
 Symbolic Z-matrix:
 Charge =  0 Multiplicity = 1

                         Standard orientation:
 ---------------------------------------------------------------------
 Center     Atomic      Atomic             Coordinates (Angstroms)
 Number     Number       Type             X           Y           Z
 ---------------------------------------------------------------------
      1          8           0        0.026779    1.537604    0.000000
      2          1           0        0.022902    0.555010    0.000000
      3          1           0       -0.901449    1.859936    0.000000
      4          8           0        0.026779   -1.364454   -0.000000
      5          1           0        0.974889   -1.622513   -0.000000
      6          1           0       -0.524814   -2.177628   -0.000000
 ---------------------------------------------------------------------

 SCF Done:  E(RHF) =  -33.6628978069     A.U. after   11 cycles
 E2 =    -0.2288429496D+00 EUMP2 =    -0.33891740756579D+02
 CCSD(T)
 CCSD(T)= -0.33908302537D+02

 The electronic state is 1-A'.
 Alpha  occ. eigenvalues --   -1.38716  -1.31507  -0.74426  -0.68092  -0.59243
 Alpha  occ. eigenvalues --   -0.53434  -0.51135  -0.46183
 Alpha virt. eigenvalues --    0.17699   0.26333   0.28069   0.43892   0.75788
 Alpha virt. eigenvalues --    0.78091   0.85983   0.86322   0.92212   1.04970
 Alpha virt. eigenvalues --    1.15968   1.17966   1.22821   1.35992   2.52077

 Mulliken charges:
               1
     1  O   -0.786010
     2  H    0.426515
     3  H    0.355542
     4  O   -0.806482
     5  H    0.398129
     6  H    0.412305
 Sum of Mulliken charges =   0.00000

 Dipole moment (field-independent basis, Debye):
    X=             -1.1940    Y=             -4.5278    Z=             -0.0000  Tot=              4.6825
 Quadrupole moment (field-independent basis, Debye-Ang):
   XX=             -9.4823   YY=             -8.6859   ZZ=            -15.0160
   XY=             -4.8700   XZ=             -0.0000   YZ=              0.0000

 9\MP4DQ=-33.9024669\MP4SDQ=-33.9045842\CCSD=-33.9055445\CCSD(T)=-33.90
 Normal termination of Gaussian 16 at Sun Dec 10 06:39:06 2023.
