 Gaussian 16, Revision A.03,
 Gaussian 16:  ES64L-G16RevA.03 25-Dec-2016

 ------------------
 #p CCSD(T)/CEP-31G
 ------------------

 ------------
 H2O_H2O_1492
 ------------
 Symbolic Z-matrix:
 Charge =  0 Multiplicity = 1

                         Standard orientation:
 ---------------------------------------------------------------------
 Center     Atomic      Atomic             Coordinates (Angstroms)
 Number     Number       Type             X           Y           Z
 ---------------------------------------------------------------------
      1          8           0        0.037523    1.700273   -0.000000
      2          1           0        0.034598    0.717676   -0.000000
      3          1           0       -0.891017    2.021705   -0.000000
      4          8           0        0.037523   -1.521374    0.000000
      5          1           0        0.917494   -1.958589    0.000000
      6          1           0       -0.661444   -2.211990    0.000000
 ---------------------------------------------------------------------

 SCF Done:  E(RHF) =  -33.6615964888     A.U. after   11 cycles
 E2 =    -0.2288209532D+00 EUMP2 =    -0.33890417442031D+02
 CCSD(T)
 CCSD(T)= -0.33907171025D+02

 The electronic state is 1-A'.
 Alpha  occ. eigenvalues --   -1.37957  -1.32277  -0.73597  -0.68175  -0.58483
 Alpha  occ. eigenvalues --   -0.52664  -0.52071  -0.46955
 Alpha virt. eigenvalues --    0.17943   0.25252   0.28611   0.39232   0.77108
 Alpha virt. eigenvalues --    0.80359   0.84382   0.86297   0.90789   0.97919
 Alpha virt. eigenvalues --    1.15251   1.19346   1.21454   1.34191   2.49783

 Mulliken charges:
               1
     1  O   -0.781828
     2  H    0.422545
     3  H    0.357512
     4  O   -0.782525
     5  H    0.392607
     6  H    0.391689
 Sum of Mulliken charges =   0.00000

 Dipole moment (field-independent basis, Debye):
    X=             -1.6754    Y=             -4.5182    Z=              0.0000  Tot=              4.8188
 Quadrupole moment (field-independent basis, Debye-Ang):
   XX=             -9.3853   YY=             -8.0918   ZZ=            -15.0097
   XY=             -5.0084   XZ=              0.0000   YZ=             -0.0000

 06\MP4DQ=-33.9014017\MP4SDQ=-33.9034907\CCSD=-33.9044913\CCSD(T)=-33.9
 Normal termination of Gaussian 16 at Sun Dec 10 06:46:55 2023.
