 Gaussian 16, Revision A.03,
 Gaussian 16:  ES64L-G16RevA.03 25-Dec-2016

 ------------------
 #p CCSD(T)/CEP-31G
 ------------------

 ------------
 H2O_H2O_1798
 ------------
 Symbolic Z-matrix:
 Charge =  0 Multiplicity = 1

                         Standard orientation:
 ---------------------------------------------------------------------
 Center     Atomic      Atomic             Coordinates (Angstroms)
 Number     Number       Type             X           Y           Z
 ---------------------------------------------------------------------
      1          8           0       -0.016700    1.811499    0.000000
      2          1           0       -0.012956    0.828905    0.000000
      3          1           0        0.911572    2.133705    0.000000
      4          8           0       -0.016700   -1.648139    0.000000
      5          1           0       -0.996946   -1.716139    0.000000
      6          1           0        0.365528   -2.553350    0.000000
 ---------------------------------------------------------------------

 SCF Done:  E(RHF) =  -33.6592595915     A.U. after   11 cycles
 E2 =    -0.2286029489D+00 EUMP2 =    -0.33887862540415D+02
 CCSD(T)
 CCSD(T)= -0.33904747874D+02

 The electronic state is 1-A'.
 Alpha  occ. eigenvalues --   -1.37552  -1.33181  -0.73261  -0.68889  -0.57834
 Alpha  occ. eigenvalues --   -0.53040  -0.52214  -0.47860
 Alpha virt. eigenvalues --    0.17788   0.24422   0.28896   0.36114   0.77861
 Alpha virt. eigenvalues --    0.81706   0.83134   0.86105   0.88174   0.96625
 Alpha virt. eigenvalues --    1.15654   1.19343   1.20958   1.36323   2.52048

 Mulliken charges:
               1
     1  O   -0.773673
     2  H    0.404811
     3  H    0.366015
     4  O   -0.771022
     5  H    0.383724
     6  H    0.390145
 Sum of Mulliken charges =   0.00000

 Dipole moment (field-independent basis, Debye):
    X=              0.7496    Y=             -4.0590    Z=              0.0000  Tot=              4.1276
 Quadrupole moment (field-independent basis, Debye-Ang):
   XX=             -9.7521   YY=             -8.2190   ZZ=            -15.0029
   XY=              6.3066   XZ=              0.0000   YZ=              0.0000

 2596\MP4DQ=-33.8990017\MP4SDQ=-33.901096\CCSD=-33.9021139\CCSD(T)=-33.
 Normal termination of Gaussian 16 at Sun Dec 10 06:52:49 2023.
