 Gaussian 16, Revision A.03,
 Gaussian 16:  ES64L-G16RevA.03 25-Dec-2016

 ------------------
 #p CCSD(T)/CEP-31G
 ------------------

 ------------
 H2O_H2O_2412
 ------------
 Symbolic Z-matrix:
 Charge =  0 Multiplicity = 1

                         Standard orientation:
 ---------------------------------------------------------------------
 Center     Atomic      Atomic             Coordinates (Angstroms)
 Number     Number       Type             X           Y           Z
 ---------------------------------------------------------------------
      1          8           0        0.056008    2.069221    0.000000
      2          1           0        0.054423    1.086621    0.000000
      3          1           0       -0.872970    2.389386    0.000000
      4          8           0        0.056008   -1.890335   -0.000000
      5          1           0        0.749691   -2.586259   -0.000000
      6          1           0       -0.827270   -2.320831   -0.000000
 ---------------------------------------------------------------------

 SCF Done:  E(RHF) =  -33.6565389203     A.U. after   11 cycles
 E2 =    -0.2284596813D+00 EUMP2 =    -0.33884998601585D+02
 CCSD(T)
 CCSD(T)= -0.33901897599D+02

 The electronic state is 1-A'.
 Alpha  occ. eigenvalues --   -1.37068  -1.33582  -0.72722  -0.69195  -0.57111
 Alpha  occ. eigenvalues --   -0.53409  -0.51705  -0.48212
 Alpha virt. eigenvalues --    0.18329   0.23117   0.29198   0.33482   0.78808
 Alpha virt. eigenvalues --    0.82324   0.83977   0.85201   0.85907   0.88515
 Alpha virt. eigenvalues --    1.15994   1.19858   1.20453   1.29768   2.53953

 Mulliken charges:
               1
     1  O   -0.760754
     2  H    0.396849
     3  H    0.362043
     4  O   -0.756273
     5  H    0.382645
     6  H    0.375490
 Sum of Mulliken charges =  -0.00000

 Dipole moment (field-independent basis, Debye):
    X=             -2.5401    Y=             -4.3437    Z=             -0.0000  Tot=              5.0319
 Quadrupole moment (field-independent basis, Debye-Ang):
   XX=             -9.5827   YY=             -7.0937   ZZ=            -14.9979
   XY=             -5.0306   XZ=              0.0000   YZ=              0.0000

 4695\MP4DQ=-33.8962211\MP4SDQ=-33.8982804\CCSD=-33.8993105\CCSD(T)=-33
 Normal termination of Gaussian 16 at Sun Dec 10 07:05:50 2023.
