 Gaussian 16, Revision A.03,
 Gaussian 16:  ES64L-G16RevA.03 25-Dec-2016

 ------------------
 #p CCSD(T)/CEP-31G
 ------------------

 ------------
 H2O_H2O_1958
 ------------
 Symbolic Z-matrix:
 Charge =  0 Multiplicity = 1

                         Standard orientation:
 ---------------------------------------------------------------------
 Center     Atomic      Atomic             Coordinates (Angstroms)
 Number     Number       Type             X           Y           Z
 ---------------------------------------------------------------------
      1          8           0        0.070218    1.885014   -0.000000
      2          1           0        0.069145    0.902413   -0.000000
      3          1           0       -0.858927    2.204695   -0.000000
      4          8           0        0.070218   -1.714801    0.000000
      5          1           0        0.560589   -2.566295    0.000000
      6          1           0       -0.894287   -1.902521    0.000000
 ---------------------------------------------------------------------

 SCF Done:  E(RHF) =  -33.6569712450     A.U. after   11 cycles
 E2 =    -0.2286664939D+00 EUMP2 =    -0.33885637738969D+02
 CCSD(T)
 CCSD(T)= -0.33902564055D+02

 The electronic state is 1-A'.
 Alpha  occ. eigenvalues --   -1.37463  -1.33378  -0.73149  -0.68989  -0.57579
 Alpha  occ. eigenvalues --   -0.53160  -0.52095  -0.47997
 Alpha virt. eigenvalues --    0.17781   0.23852   0.28838   0.35068   0.78182
 Alpha virt. eigenvalues --    0.82653   0.82813   0.85354   0.89139   0.92151
 Alpha virt. eigenvalues --    1.15489   1.19724   1.20477   1.34418   2.52019

 Mulliken charges:
               1
     1  O   -0.763746
     2  H    0.403803
     3  H    0.357691
     4  O   -0.761277
     5  H    0.389240
     6  H    0.374290
 Sum of Mulliken charges =   0.00000

 Dipole moment (field-independent basis, Debye):
    X=             -3.1690    Y=             -4.2067    Z=              0.0000  Tot=              5.2668
 Quadrupole moment (field-independent basis, Debye-Ang):
   XX=            -10.0339   YY=             -7.8641   ZZ=            -14.9982
   XY=             -4.0147   XZ=              0.0000   YZ=             -0.0000

 0912\MP4DQ=-33.8968296\MP4SDQ=-33.8989169\CCSD=-33.8999412\CCSD(T)=-33
 Normal termination of Gaussian 16 at Sun Dec 10 06:55:50 2023.
