 Gaussian 16, Revision A.03,
 Gaussian 16:  ES64L-G16RevA.03 25-Dec-2016

 ------------------
 #p CCSD(T)/CEP-31G
 ------------------

 -----------
 H2O_H2O_418
 -----------
 Symbolic Z-matrix:
 Charge =  0 Multiplicity = 1

                         Standard orientation:
 ---------------------------------------------------------------------
 Center     Atomic      Atomic             Coordinates (Angstroms)
 Number     Number       Type             X           Y           Z
 ---------------------------------------------------------------------
      1          8           0        0.033974    1.270664    0.000000
      2          1           0        0.029725    0.288071    0.000000
      3          1           0       -0.894133    1.593346    0.000000
      4          8           0        0.033974   -1.093281    0.000000
      5          1           0        0.940145   -1.473227    0.000000
      6          1           0       -0.619317   -1.827254    0.000000
 ---------------------------------------------------------------------

 SCF Done:  E(RHF) =  -33.6479117817     A.U. after   11 cycles
 E2 =    -0.2284644101D+00 EUMP2 =    -0.33876376191771D+02
 CCSD(T)
 CCSD(T)= -0.33891741160D+02

 The electronic state is 1-A'.
 Alpha  occ. eigenvalues --   -1.41856  -1.28676  -0.77173  -0.72484  -0.57765
 Alpha  occ. eigenvalues --   -0.56256  -0.47152  -0.43080
 Alpha virt. eigenvalues --    0.17023   0.26433   0.28790   0.56939   0.73764
 Alpha virt. eigenvalues --    0.74132   0.86469   0.89918   0.94641   1.00691
 Alpha virt. eigenvalues --    1.15346   1.18431   1.25966   1.36638   2.74827

 Mulliken charges:
               1
     1  O   -0.770711
     2  H    0.399804
     3  H    0.331634
     4  O   -0.834799
     5  H    0.428904
     6  H    0.445167
 Sum of Mulliken charges =  -0.00000

 Dipole moment (field-independent basis, Debye):
    X=             -1.4591    Y=             -5.1624    Z=              0.0000  Tot=              5.3646
 Quadrupole moment (field-independent basis, Debye-Ang):
   XX=             -9.3297   YY=             -9.9106   ZZ=            -15.0000
   XY=             -3.8066   XZ=              0.0000   YZ=              0.0000

 07\MP4DQ=-33.8857392\MP4SDQ=-33.8879413\CCSD=-33.888693\CCSD(T)=-33.89
 Normal termination of Gaussian 16 at Sun Dec 10 06:26:17 2023.
