 Gaussian 16, Revision A.03,
 Gaussian 16:  ES64L-G16RevA.03 25-Dec-2016

 ------------------
 #p CCSD(T)/CEP-31G
 ------------------

 ------------
 H2O_H2O_2934
 ------------
 Symbolic Z-matrix:
 Charge =  0 Multiplicity = 1

                         Standard orientation:
 ---------------------------------------------------------------------
 Center     Atomic      Atomic             Coordinates (Angstroms)
 Number     Number       Type             X           Y           Z
 ---------------------------------------------------------------------
      1          8           0        0.066763    2.275486    0.000000
      2          1           0        0.065748    1.292885    0.000000
      3          1           0       -0.862400    2.595113    0.000000
      4          8           0        0.066763   -2.102387   -0.000000
      5          1           0        0.611824   -2.919953   -0.000000
      6          1           0       -0.883383   -2.352842   -0.000000
 ---------------------------------------------------------------------

 SCF Done:  E(RHF) =  -33.6546593096     A.U. after   11 cycles
 E2 =    -0.2283683870D+00 EUMP2 =    -0.33883027696549D+02
 CCSD(T)
 CCSD(T)= -0.33899955164D+02

 The electronic state is 1-A'.
 Alpha  occ. eigenvalues --   -1.36774  -1.34120  -0.72429  -0.69726  -0.56681
 Alpha  occ. eigenvalues --   -0.53916  -0.51384  -0.48726
 Alpha virt. eigenvalues --    0.18617   0.22240   0.29351   0.32348   0.79187
 Alpha virt. eigenvalues --    0.81771   0.82709   0.84829   0.85185   0.88072
 Alpha virt. eigenvalues --    1.16221   1.19189   1.20634   1.26178   2.55879

 Mulliken charges:
               1
     1  O   -0.752574
     2  H    0.387945
     3  H    0.363775
     4  O   -0.750899
     5  H    0.379557
     6  H    0.372197
 Sum of Mulliken charges =   0.00000

 Dipole moment (field-independent basis, Debye):
    X=             -3.0457    Y=             -4.1448    Z=             -0.0000  Tot=              5.1435
 Quadrupole moment (field-independent basis, Debye-Ang):
   XX=             -9.8966   YY=             -6.9482   ZZ=            -14.9941
   XY=             -4.6768   XZ=             -0.0000   YZ=              0.0000

 548\MP4DQ=-33.8943055\MP4SDQ=-33.896346\CCSD=-33.8973855\CCSD(T)=-33.8
 Normal termination of Gaussian 16 at Sun Dec 10 06:25:48 2023.
