 Gaussian 16, Revision A.03,
 Gaussian 16:  ES64L-G16RevA.03 25-Dec-2016

 ------------------
 #p CCSD(T)/CEP-31G
 ------------------

 -----------
 H2O_H2O_308
 -----------
 Symbolic Z-matrix:
 Charge =  0 Multiplicity = 1

                         Standard orientation:
 ---------------------------------------------------------------------
 Center     Atomic      Atomic             Coordinates (Angstroms)
 Number     Number       Type             X           Y           Z
 ---------------------------------------------------------------------
      1          8           0        0.070271    1.226823   -0.000000
      2          1           0        0.068580    0.244223   -0.000000
      3          1           0       -0.858672    1.547088    0.000000
      4          8           0        0.070271   -1.056698   -0.000000
      5          1           0        0.560107   -1.908500   -0.000000
      6          1           0       -0.894350   -1.243811    0.000000
 ---------------------------------------------------------------------

 SCF Done:  E(RHF) =  -33.6327815271     A.U. after   11 cycles
 E2 =    -0.2285322472D+00 EUMP2 =    -0.33861313774268D+02
 CCSD(T)
 CCSD(T)= -0.33876669577D+02

 The electronic state is 1-A'.
 Alpha  occ. eigenvalues --   -1.43057  -1.28864  -0.79217  -0.72867  -0.57002
 Alpha  occ. eigenvalues --   -0.56993  -0.47097  -0.43090
 Alpha virt. eigenvalues --    0.16442   0.25255   0.29091   0.58121   0.73454
 Alpha virt. eigenvalues --    0.74615   0.86821   0.90124   0.96099   1.06736
 Alpha virt. eigenvalues --    1.13621   1.21280   1.24815   1.35051   2.85795

 Mulliken charges:
               1
     1  O   -0.738725
     2  H    0.371155
     3  H    0.314713
     4  O   -0.828589
     5  H    0.475275
     6  H    0.406171
 Sum of Mulliken charges =   0.00000

 Dipole moment (field-independent basis, Debye):
    X=             -2.8919    Y=             -5.1304    Z=              0.0000  Tot=              5.8893
 Quadrupole moment (field-independent basis, Debye-Ang):
   XX=             -9.9927   YY=            -10.0597   ZZ=            -14.9707
   XY=             -3.2666   XZ=             -0.0000   YZ=              0.0000

 023\MP4DQ=-33.8705176\MP4SDQ=-33.8728406\CCSD=-33.873568\CCSD(T)=-33.8
 Normal termination of Gaussian 16 at Sun Dec 10 06:24:07 2023.
