 Gaussian 16, Revision A.03,
 Gaussian 16:  ES64L-G16RevA.03 25-Dec-2016

 ------------------
 #p CCSD(T)/CEP-31G
 ------------------

 ------------
 H2O_H2O_3891
 ------------
 Symbolic Z-matrix:
 Charge =  0 Multiplicity = 1

                         Standard orientation:
 ---------------------------------------------------------------------
 Center     Atomic      Atomic             Coordinates (Angstroms)
 Number     Number       Type             X           Y           Z
 ---------------------------------------------------------------------
      1          8           0        0.041120    2.658139    0.000000
      2          1           0        0.039407    1.675539    0.000000
      3          1           0       -0.887817    2.978425    0.000000
      4          8           0        0.041120   -2.478196    0.000000
      5          1           0        0.891220   -2.970978    0.000000
      6          1           0       -0.700725   -3.122535    0.000000
 ---------------------------------------------------------------------

 SCF Done:  E(RHF) =  -33.6539451212     A.U. after   11 cycles
 E2 =    -0.2282850465D+00 EUMP2 =    -0.33882230167686D+02
 CCSD(T)
 CCSD(T)= -0.33899169327D+02

 The electronic state is 1-A'.
 Alpha  occ. eigenvalues --   -1.36392  -1.34449  -0.72033  -0.70078  -0.56252
 Alpha  occ. eigenvalues --   -0.54250  -0.50995  -0.49054
 Alpha virt. eigenvalues --    0.19419   0.21542   0.29745   0.31801   0.79562
 Alpha virt. eigenvalues --    0.81449   0.82323   0.84456   0.85579   0.87569
 Alpha virt. eigenvalues --    1.16602   1.18579   1.21036   1.23234   2.56558

 Mulliken charges:
               1
     1  O   -0.749524
     2  H    0.381732
     3  H    0.367697
     4  O   -0.748609
     5  H    0.375451
     6  H    0.373252
 Sum of Mulliken charges =  -0.00000

 Dipole moment (field-independent basis, Debye):
    X=             -1.8838    Y=             -4.2406    Z=              0.0000  Tot=              4.6402
 Quadrupole moment (field-independent basis, Debye-Ang):
   XX=             -9.4118   YY=             -5.6913   ZZ=            -14.9930
   XY=             -7.2215   XZ=              0.0000   YZ=              0.0000

 86\MP4DQ=-33.8935385\MP4SDQ=-33.8955626\CCSD=-33.8966121\CCSD(T)=-33.8
 Normal termination of Gaussian 16 at Sun Dec 10 06:43:01 2023.
