 Gaussian 16, Revision A.03,
 Gaussian 16:  ES64L-G16RevA.03 25-Dec-2016

 ------------------
 #p CCSD(T)/CEP-31G
 ------------------

 -----------
 H2O_H2O_340
 -----------
 Symbolic Z-matrix:
 Charge =  0 Multiplicity = 1

                         Standard orientation:
 ---------------------------------------------------------------------
 Center     Atomic      Atomic             Coordinates (Angstroms)
 Number     Number       Type             X           Y           Z
 ---------------------------------------------------------------------
      1          8           0        0.045018    1.242298   -0.000000
      2          1           0        0.041475    0.259703   -0.000000
      3          1           0       -0.883320    1.564314   -0.000000
      4          8           0        0.045018   -1.062057    0.000000
      5          1           0        0.860047   -1.610904    0.000000
      6          1           0       -0.738486   -1.655038   -0.000000
 ---------------------------------------------------------------------

 SCF Done:  E(RHF) =  -33.6416556392     A.U. after   11 cycles
 E2 =    -0.2285326257D+00 EUMP2 =    -0.33870188264904D+02
 CCSD(T)
 CCSD(T)= -0.33885320991D+02

 The electronic state is 1-A'.
 Alpha  occ. eigenvalues --   -1.42546  -1.28217  -0.77206  -0.74338  -0.56958
 Alpha  occ. eigenvalues --   -0.56823  -0.46419  -0.42516
 Alpha virt. eigenvalues --    0.16775   0.26193   0.29122   0.58580   0.73532
 Alpha virt. eigenvalues --    0.73601   0.86041   0.90422   0.93850   1.02887
 Alpha virt. eigenvalues --    1.13930   1.17063   1.26177   1.35800   2.79226

 Mulliken charges:
               1
     1  O   -0.766210
     2  H    0.394500
     3  H    0.322032
     4  O   -0.827827
     5  H    0.442851
     6  H    0.434654
 Sum of Mulliken charges =  -0.00000

 Dipole moment (field-independent basis, Debye):
    X=             -1.8812    Y=             -5.3281    Z=              0.0000  Tot=              5.6505
 Quadrupole moment (field-independent basis, Debye-Ang):
   XX=             -9.3178   YY=            -10.1388   ZZ=            -14.9894
   XY=             -3.6070   XZ=              0.0000   YZ=             -0.0000

 14\MP4DQ=-33.8792713\MP4SDQ=-33.8815049\CCSD=-33.8822101\CCSD(T)=-33.8
 Normal termination of Gaussian 16 at Sun Dec 10 06:24:45 2023.
