 Gaussian 16, Revision A.03,
 Gaussian 16:  ES64L-G16RevA.03 25-Dec-2016

 ------------------
 #p CCSD(T)/CEP-31G
 ------------------

 -----------
 H2O_H2O_751
 -----------
 Symbolic Z-matrix:
 Charge =  0 Multiplicity = 1

                         Standard orientation:
 ---------------------------------------------------------------------
 Center     Atomic      Atomic             Coordinates (Angstroms)
 Number     Number       Type             X           Y           Z
 ---------------------------------------------------------------------
      1          8           0        0.090689   -1.389240    0.000000
      2          1           0        0.090543   -0.406639    0.000000
      3          1           0       -0.838757   -1.708044    0.000000
      4          8           0        0.090689    1.250543    0.000000
      5          1           0        0.154809    2.231051    0.000000
      6          1           0       -0.857618    0.993209    0.000000
 ---------------------------------------------------------------------

 SCF Done:  E(RHF) =  -33.6453897535     A.U. after   11 cycles
 E2 =    -0.2292260931D+00 EUMP2 =    -0.33874615846592D+02
 CCSD(T)
 CCSD(T)= -0.33891373233D+02

 The electronic state is 1-A'.
 Alpha  occ. eigenvalues --   -1.40307  -1.32571  -0.77320  -0.68465  -0.59330
 Alpha  occ. eigenvalues --   -0.54546  -0.51860  -0.46980
 Alpha virt. eigenvalues --    0.16496   0.25168   0.27732   0.47107   0.74222
 Alpha virt. eigenvalues --    0.78441   0.85083   0.86585   0.92653   1.11596
 Alpha virt. eigenvalues --    1.13991   1.23633   1.34142   1.36755   2.55805

 Mulliken charges:
               1
     1  O   -0.724925
     2  H    0.357915
     3  H    0.337946
     4  O   -0.776228
     5  H    0.436988
     6  H    0.368303
 Sum of Mulliken charges =  -0.00000

 Dipole moment (field-independent basis, Debye):
    X=             -3.9663    Y=              3.8871    Z=              0.0000  Tot=              5.5535
 Quadrupole moment (field-independent basis, Debye-Ang):
   XX=            -11.2135   YY=             -9.6273   ZZ=            -14.9841
   XY=              2.3954   XZ=              0.0000   YZ=              0.0000

 82\MP4DQ=-33.8852777\MP4SDQ=-33.8875887\CCSD=-33.8884931\CCSD(T)=-33.8
 Normal termination of Gaussian 16 at Sun Dec 10 06:32:39 2023.
