 Gaussian 16, Revision A.03,
 Gaussian 16:  ES64L-G16RevA.03 25-Dec-2016

 ------------------
 #p CCSD(T)/CEP-31G
 ------------------

 ------------
 H2O_H2O_1434
 ------------
 Symbolic Z-matrix:
 Charge =  0 Multiplicity = 1

                         Standard orientation:
 ---------------------------------------------------------------------
 Center     Atomic      Atomic             Coordinates (Angstroms)
 Number     Number       Type             X           Y           Z
 ---------------------------------------------------------------------
      1          8           0        0.066797    1.677145   -0.000000
      2          1           0        0.065399    0.694544   -0.000000
      3          1           0       -0.862242    1.997133   -0.000000
      4          8           0        0.066797   -1.504097    0.000000
      5          1           0        0.611539   -2.321876    0.000000
      6          1           0       -0.883447   -1.754183    0.000000
 ---------------------------------------------------------------------

 SCF Done:  E(RHF) =  -33.6595740149     A.U. after   11 cycles
 E2 =    -0.2289192509D+00 EUMP2 =    -0.33888493265756D+02
 CCSD(T)
 CCSD(T)= -0.33905316454D+02

 The electronic state is 1-A'.
 Alpha  occ. eigenvalues --   -1.38111  -1.32514  -0.73814  -0.68351  -0.58475
 Alpha  occ. eigenvalues --   -0.52775  -0.52227  -0.47139
 Alpha virt. eigenvalues --    0.17625   0.25118   0.28364   0.39325   0.76902
 Alpha virt. eigenvalues --    0.80384   0.84371   0.85510   0.91424   1.01245
 Alpha virt. eigenvalues --    1.14973   1.18956   1.21194   1.35725   2.49906

 Mulliken charges:
               1
     1  O   -0.773796
     2  H    0.420269
     3  H    0.351703
     4  O   -0.780795
     5  H    0.402977
     6  H    0.379642
 Sum of Mulliken charges =  -0.00000

 Dipole moment (field-independent basis, Debye):
    X=             -2.9716    Y=             -4.4023    Z=              0.0000  Tot=              5.3113
 Quadrupole moment (field-independent basis, Debye-Ang):
   XX=             -9.8960   YY=             -8.2813   ZZ=            -15.0051
   XY=             -3.9525   XZ=              0.0000   YZ=             -0.0000

 \MP4DQ=-33.8995114\MP4SDQ=-33.9016236\CCSD=-33.9026255\CCSD(T)=-33.905
 Normal termination of Gaussian 16 at Sun Dec 10 06:45:46 2023.
