 Gaussian 16, Revision A.03,
 Gaussian 16:  ES64L-G16RevA.03 25-Dec-2016

 ------------------
 #p CCSD(T)/CEP-31G
 ------------------

 -----------
 H2O_H2O_945
 -----------
 Symbolic Z-matrix:
 Charge =  0 Multiplicity = 1

                         Standard orientation:
 ---------------------------------------------------------------------
 Center     Atomic      Atomic             Coordinates (Angstroms)
 Number     Number       Type             X           Y           Z
 ---------------------------------------------------------------------
      1          8           0        0.026794    1.477768    0.000000
      2          1           0        0.022750    0.495175    0.000000
      3          1           0       -0.901380    1.800257    0.000000
      4          8           0        0.026794   -1.304628   -0.000000
      5          1           0        0.974860   -1.562848   -0.000000
      6          1           0       -0.524935   -2.117708   -0.000000
 ---------------------------------------------------------------------

 SCF Done:  E(RHF) =  -33.6626296973     A.U. after   11 cycles
 E2 =    -0.2288263561D+00 EUMP2 =    -0.33891456053378D+02
 CCSD(T)
 CCSD(T)= -0.33907868442D+02

 The electronic state is 1-A'.
 Alpha  occ. eigenvalues --   -1.39137  -1.31060  -0.74861  -0.68280  -0.59420
 Alpha  occ. eigenvalues --   -0.53849  -0.50560  -0.45716
 Alpha virt. eigenvalues --    0.17605   0.26784   0.27804   0.46249   0.75265
 Alpha virt. eigenvalues --    0.77192   0.86267   0.86756   0.93162   1.04691
 Alpha virt. eigenvalues --    1.16183   1.18430   1.23405   1.36581   2.54516

 Mulliken charges:
               1
     1  O   -0.785161
     2  H    0.426296
     3  H    0.352759
     4  O   -0.816574
     5  H    0.402409
     6  H    0.420270
 Sum of Mulliken charges =   0.00000

 Dipole moment (field-independent basis, Debye):
    X=             -1.1920    Y=             -4.6061    Z=             -0.0000  Tot=              4.7579
 Quadrupole moment (field-independent basis, Debye-Ang):
   XX=             -9.4743   YY=             -8.8992   ZZ=            -15.0179
   XY=             -4.6640   XZ=             -0.0000   YZ=              0.0000

 8\MP4DQ=-33.9020055\MP4SDQ=-33.9041344\CCSD=-33.9050674\CCSD(T)=-33.90
 Normal termination of Gaussian 16 at Sun Dec 10 06:36:17 2023.
