 Gaussian 16, Revision A.03,
 Gaussian 16:  ES64L-G16RevA.03 25-Dec-2016

 ------------------
 #p CCSD(T)/CEP-31G
 ------------------

 ------------
 H2O_H2O_3439
 ------------
 Symbolic Z-matrix:
 Charge =  0 Multiplicity = 1

                         Standard orientation:
 ---------------------------------------------------------------------
 Center     Atomic      Atomic             Coordinates (Angstroms)
 Number     Number       Type             X           Y           Z
 ---------------------------------------------------------------------
      1          8           0        0.048575    2.478890   -0.000000
      2          1           0        0.046998    1.496290   -0.000000
      3          1           0       -0.880406    2.799048   -0.000000
      4          8           0        0.048575   -2.298493    0.000000
      5          1           0        0.827164   -2.897914    0.000000
      6          1           0       -0.770951   -2.840603    0.000000
 ---------------------------------------------------------------------

 SCF Done:  E(RHF) =  -33.6544426814     A.U. after   11 cycles
 E2 =    -0.2282973524D+00 EUMP2 =    -0.33882740033748D+02
 CCSD(T)
 CCSD(T)= -0.33899665467D+02

 The electronic state is 1-A'.
 Alpha  occ. eigenvalues --   -1.36538  -1.34249  -0.72182  -0.69872  -0.56428
 Alpha  occ. eigenvalues --   -0.54058  -0.51148  -0.48860
 Alpha virt. eigenvalues --    0.19173   0.21858   0.29626   0.32048   0.79417
 Alpha virt. eigenvalues --    0.81633   0.82232   0.84664   0.85407   0.87801
 Alpha virt. eigenvalues --    1.16476   1.18882   1.20906   1.23985   2.56423

 Mulliken charges:
               1
     1  O   -0.751461
     2  H    0.384765
     3  H    0.366370
     4  O   -0.750108
     5  H    0.376986
     6  H    0.373448
 Sum of Mulliken charges =  -0.00000

 Dipole moment (field-independent basis, Debye):
    X=             -2.2207    Y=             -4.2765    Z=              0.0000  Tot=              4.8187
 Quadrupole moment (field-independent basis, Debye-Ang):
   XX=             -9.4605   YY=             -6.0687   ZZ=            -14.9940
   XY=             -6.2657   XZ=              0.0000   YZ=             -0.0000

 07\MP4DQ=-33.8940324\MP4SDQ=-33.8960604\CCSD=-33.8971058\CCSD(T)=-33.8
 Normal termination of Gaussian 16 at Sun Dec 10 06:34:55 2023.
