 Gaussian 16, Revision A.03,
 Gaussian 16:  ES64L-G16RevA.03 25-Dec-2016

 ------------------
 #p CCSD(T)/CEP-31G
 ------------------

 ------------
 H2O_H2O_1083
 ------------
 Symbolic Z-matrix:
 Charge =  0 Multiplicity = 1

                         Standard orientation:
 ---------------------------------------------------------------------
 Center     Atomic      Atomic             Coordinates (Angstroms)
 Number     Number       Type             X           Y           Z
 ---------------------------------------------------------------------
      1          8           0        0.070240    1.535978   -0.000000
      2          1           0        0.068909    0.553378   -0.000000
      3          1           0       -0.858821    1.855903   -0.000000
      4          8           0        0.070240   -1.365802    0.000000
      5          1           0        0.560388   -2.217424    0.000000
      6          1           0       -0.894313   -1.553269    0.000000
 ---------------------------------------------------------------------

 SCF Done:  E(RHF) =  -33.6596034765     A.U. after   11 cycles
 E2 =    -0.2290462723D+00 EUMP2 =    -0.33888649748716D+02
 CCSD(T)
 CCSD(T)= -0.33905321665D+02

 The electronic state is 1-A'.
 Alpha  occ. eigenvalues --   -1.38849  -1.31887  -0.74635  -0.68297  -0.59064
 Alpha  occ. eigenvalues --   -0.53501  -0.51436  -0.46475
 Alpha virt. eigenvalues --    0.17326   0.25943   0.27821   0.43482   0.75702
 Alpha virt. eigenvalues --    0.78454   0.85291   0.85800   0.93414   1.07555
 Alpha virt. eigenvalues --    1.15925   1.17759   1.21954   1.36388   2.51808

 Mulliken charges:
               1
     1  O   -0.772386
     2  H    0.424448
     3  H    0.344903
     4  O   -0.799944
     5  H    0.420117
     6  H    0.382864
 Sum of Mulliken charges =   0.00000

 Dipole moment (field-independent basis, Debye):
    X=             -3.0806    Y=             -4.4700    Z=              0.0000  Tot=              5.4287
 Quadrupole moment (field-independent basis, Debye-Ang):
   XX=            -10.0321   YY=             -8.7372   ZZ=            -15.0082
   XY=             -3.6573   XZ=              0.0000   YZ=             -0.0000

 7566\MP4DQ=-33.8994418\MP4SDQ=-33.901591\CCSD=-33.9025563\CCSD(T)=-33.
 Normal termination of Gaussian 16 at Sun Dec 10 06:38:53 2023.
