 Gaussian 16, Revision A.03,
 Gaussian 16:  ES64L-G16RevA.03 25-Dec-2016

 ------------------
 #p CCSD(T)/CEP-31G
 ------------------

 -----------
 H2O_H2O_987
 -----------
 Symbolic Z-matrix:
 Charge =  0 Multiplicity = 1

                         Standard orientation:
 ---------------------------------------------------------------------
 Center     Atomic      Atomic             Coordinates (Angstroms)
 Number     Number       Type             X           Y           Z
 ---------------------------------------------------------------------
      1          8           0        0.056066    1.500785    0.000000
      2          1           0        0.053843    0.518186    0.000000
      3          1           0       -0.872704    1.821554    0.000000
      4          8           0        0.056066   -1.321973   -0.000000
      5          1           0        0.749297   -2.018347   -0.000000
      6          1           0       -0.827492   -1.751895   -0.000000
 ---------------------------------------------------------------------

 SCF Done:  E(RHF) =  -33.6620656732     A.U. after   11 cycles
 E2 =    -0.2291300235D+00 EUMP2 =    -0.33891195696745D+02
 CCSD(T)
 CCSD(T)= -0.33907635428D+02

 The electronic state is 1-A'.
 Alpha  occ. eigenvalues --   -1.39052  -1.31172  -0.74643  -0.68338  -0.59245
 Alpha  occ. eigenvalues --   -0.53772  -0.50673  -0.45784
 Alpha virt. eigenvalues --    0.17490   0.26521   0.27843   0.45659   0.75421
 Alpha virt. eigenvalues --    0.77222   0.85383   0.86557   0.95400   1.01567
 Alpha virt. eigenvalues --    1.14961   1.18918   1.22239   1.35741   2.53347

 Mulliken charges:
               1
     1  O   -0.781848
     2  H    0.435573
     3  H    0.344330
     4  O   -0.809984
     5  H    0.417361
     6  H    0.394568
 Sum of Mulliken charges =   0.00000

 Dipole moment (field-independent basis, Debye):
    X=             -2.4413    Y=             -4.7148    Z=             -0.0000  Tot=              5.3094
 Quadrupole moment (field-independent basis, Debye-Ang):
   XX=             -9.5503   YY=             -8.8202   ZZ=            -15.0159
   XY=             -4.0414   XZ=             -0.0000   YZ=              0.0000

 46\MP4DQ=-33.9017688\MP4SDQ=-33.9038963\CCSD=-33.9048298\CCSD(T)=-33.9
 Normal termination of Gaussian 16 at Sun Dec 10 06:37:04 2023.
