 Gaussian 16, Revision A.03,
 Gaussian 16:  ES64L-G16RevA.03 25-Dec-2016

 ------------------
 #p CCSD(T)/CEP-31G
 ------------------

 -----------
 H2O_H2O_404
 -----------
 Symbolic Z-matrix:
 Charge =  0 Multiplicity = 1

                         Standard orientation:
 ---------------------------------------------------------------------
 Center     Atomic      Atomic             Coordinates (Angstroms)
 Number     Number       Type             X           Y           Z
 ---------------------------------------------------------------------
      1          8           0        0.082831   -1.258197    0.000000
      2          1           0        0.082102   -0.275596    0.000000
      3          1           0       -0.846425   -1.577553    0.000000
      4          8           0        0.082831    1.103738    0.000000
      5          1           0        0.336443    2.053047    0.000000
      6          1           0       -0.897418    1.035773    0.000000
 ---------------------------------------------------------------------

 SCF Done:  E(RHF) =  -33.6338204689     A.U. after   11 cycles
 E2 =    -0.2286074552D+00 EUMP2 =    -0.33862427924040D+02
 CCSD(T)
 CCSD(T)= -0.33878391771D+02

 The electronic state is 1-A'.
 Alpha  occ. eigenvalues --   -1.42420  -1.30338  -0.79549  -0.70233  -0.58245
 Alpha  occ. eigenvalues --   -0.56290  -0.49021  -0.44622
 Alpha virt. eigenvalues --    0.16391   0.24824   0.28580   0.55077   0.73481
 Alpha virt. eigenvalues --    0.76133   0.86437   0.88999   0.96352   1.09076
 Alpha virt. eigenvalues --    1.14165   1.23750   1.27174   1.39821   2.77929

 Mulliken charges:
               1
     1  O   -0.716603
     2  H    0.344978
     3  H    0.321555
     4  O   -0.811902
     5  H    0.474851
     6  H    0.387120
 Sum of Mulliken charges =  -0.00000

 Dipole moment (field-independent basis, Debye):
    X=             -3.4937    Y=              4.6300    Z=              0.0000  Tot=              5.8002
 Quadrupole moment (field-independent basis, Debye-Ang):
   XX=            -10.6851   YY=             -9.8157   ZZ=            -14.9703
   XY=              2.8399   XZ=              0.0000   YZ=              0.0000

 867\MP4DQ=-33.8722072\MP4SDQ=-33.8745698\CCSD=-33.8753693\CCSD(T)=-33.
 Normal termination of Gaussian 16 at Sun Dec 10 06:26:01 2023.
