 Gaussian 16, Revision A.03,
 Gaussian 16:  ES64L-G16RevA.03 25-Dec-2016

 ------------------
 #p CCSD(T)/CEP-31G
 ------------------

 -----------
 H2O_H2O_588
 -----------
 Symbolic Z-matrix:
 Charge =  0 Multiplicity = 1

                         Standard orientation:
 ---------------------------------------------------------------------
 Center     Atomic      Atomic             Coordinates (Angstroms)
 Number     Number       Type             X           Y           Z
 ---------------------------------------------------------------------
      1          8           0        0.052411    1.341752    0.000000
      2          1           0        0.049655    0.359154    0.000000
      3          1           0       -0.876184    1.663024    0.000000
      4          8           0        0.052411   -1.161992    0.000000
      5          1           0        0.789350   -1.811936    0.000000
      6          1           0       -0.801401   -1.648317    0.000000
 ---------------------------------------------------------------------

 SCF Done:  E(RHF) =  -33.6563956381     A.U. after   11 cycles
 E2 =    -0.2290236464D+00 EUMP2 =    -0.33885419284423D+02
 CCSD(T)
 CCSD(T)= -0.33901191094D+02

 The electronic state is 1-A'.
 Alpha  occ. eigenvalues --   -1.40698  -1.29616  -0.75973  -0.70808  -0.58530
 Alpha  occ. eigenvalues --   -0.55316  -0.48552  -0.44097
 Alpha virt. eigenvalues --    0.17093   0.26917   0.28024   0.53282   0.74146
 Alpha virt. eigenvalues --    0.74592   0.85288   0.88846   0.96499   1.01327
 Alpha virt. eigenvalues --    1.14387   1.18062   1.23984   1.36713   2.66384

 Mulliken charges:
               1
     1  O   -0.774718
     2  H    0.427001
     3  H    0.331994
     4  O   -0.832553
     5  H    0.435591
     6  H    0.412685
 Sum of Mulliken charges =   0.00000

 Dipole moment (field-independent basis, Debye):
    X=             -2.2231    Y=             -5.0207    Z=              0.0000  Tot=              5.4909
 Quadrupole moment (field-independent basis, Debye-Ang):
   XX=             -9.4446   YY=             -9.5731   ZZ=            -15.0120
   XY=             -3.7863   XZ=              0.0000   YZ=              0.0000

 2\MP4DQ=-33.8952235\MP4SDQ=-33.8974045\CCSD=-33.8982184\CCSD(T)=-33.90
 Normal termination of Gaussian 16 at Sun Dec 10 06:29:35 2023.
