 Gaussian 16, Revision A.03,
 Gaussian 16:  ES64L-G16RevA.03 25-Dec-2016

 ------------------
 #p CCSD(T)/CEP-31G
 ------------------

 ------------
 H2O_H2O_4335
 ------------
 Symbolic Z-matrix:
 Charge =  0 Multiplicity = 1

                         Standard orientation:
 ---------------------------------------------------------------------
 Center     Atomic      Atomic             Coordinates (Angstroms)
 Number     Number       Type             X           Y           Z
 ---------------------------------------------------------------------
      1          8           0        0.063219    2.835235    0.000000
      2          1           0        0.062301    1.852634    0.000000
      3          1           0       -0.865976    3.154770    0.000000
      4          8           0        0.063219   -2.659703   -0.000000
      5          1           0        0.660660   -3.439811   -0.000000
      6          1           0       -0.868482   -2.971856   -0.000000
 ---------------------------------------------------------------------

 SCF Done:  E(RHF) =  -33.6531392011     A.U. after   11 cycles
 E2 =    -0.2283104598D+00 EUMP2 =    -0.33881449660818D+02
 CCSD(T)
 CCSD(T)= -0.33898411571D+02

 The electronic state is 1-A'.
 Alpha  occ. eigenvalues --   -1.36301  -1.34676  -0.71943  -0.70300  -0.56115
 Alpha  occ. eigenvalues --   -0.54450  -0.50892  -0.49267
 Alpha virt. eigenvalues --    0.19516   0.21233   0.29789   0.31508   0.79664
 Alpha virt. eigenvalues --    0.81252   0.82520   0.84254   0.85693   0.87395
 Alpha virt. eigenvalues --    1.16660   1.18287   1.21097   1.22829   2.56630

 Mulliken charges:
               1
     1  O   -0.746416
     2  H    0.379083
     3  H    0.367312
     4  O   -0.746071
     5  H    0.374953
     6  H    0.371138
 Sum of Mulliken charges =  -0.00000

 Dipole moment (field-independent basis, Debye):
    X=             -2.9033    Y=             -4.1231    Z=             -0.0000  Tot=              5.0427
 Quadrupole moment (field-independent basis, Debye-Ang):
   XX=             -9.7755   YY=             -5.6738   ZZ=            -14.9913
   XY=             -5.6942   XZ=             -0.0000   YZ=              0.0000

 0302\MP4DQ=-33.8927766\MP4SDQ=-33.8948011\CCSD=-33.8958534\CCSD(T)=-33
 Normal termination of Gaussian 16 at Sun Dec 10 06:51:02 2023.
