 Gaussian 16, Revision A.03,
 Gaussian 16:  ES64L-G16RevA.03 25-Dec-2016

 ------------------
 #p CCSD(T)/CEP-31G
 ------------------

 ----------
 H2O_H2O_69
 ----------
 Symbolic Z-matrix:
 Charge =  0 Multiplicity = 1

                         Standard orientation:
 ---------------------------------------------------------------------
 Center     Atomic      Atomic             Coordinates (Angstroms)
 Number     Number       Type             X           Y           Z
 ---------------------------------------------------------------------
      1          8           0        0.030435    1.130004   -0.000000
      2          1           0        0.025324    0.147416   -0.000000
      3          1           0       -0.897388    1.453500   -0.000000
      4          8           0        0.030435   -0.954567    0.000000
      5          1           0        0.959235   -1.275249    0.000000
      6          1           0       -0.574133   -1.729166    0.000000
 ---------------------------------------------------------------------

 SCF Done:  E(RHF) =  -33.5951949151     A.U. after   11 cycles
 E2 =    -0.2270265048D+00 EUMP2 =    -0.33822221419951D+02
 CCSD(T)
 CCSD(T)= -0.33836711005D+02

 The electronic state is 1-A'.
 Alpha  occ. eigenvalues --   -1.46210  -1.26483  -0.81999  -0.76989  -0.59170
 Alpha  occ. eigenvalues --   -0.54660  -0.43207  -0.40427
 Alpha virt. eigenvalues --    0.16428   0.24767   0.30485   0.62458   0.73268
 Alpha virt. eigenvalues --    0.73727   0.86824   0.92097   0.92097   1.04271
 Alpha virt. eigenvalues --    1.12856   1.18732   1.31003   1.38610   2.96603

 Mulliken charges:
               1
     1  O   -0.747149
     2  H    0.278597
     3  H    0.312675
     4  O   -0.766848
     5  H    0.447560
     6  H    0.475165
 Sum of Mulliken charges =  -0.00000

 Dipole moment (field-independent basis, Debye):
    X=             -1.2620    Y=             -5.7023    Z=              0.0000  Tot=              5.8403
 Quadrupole moment (field-independent basis, Debye-Ang):
   XX=             -9.3048   YY=            -10.7076   ZZ=            -14.9223
   XY=             -3.3868   XZ=              0.0000   YZ=             -0.0000

 \MP4DQ=-33.83054\MP4SDQ=-33.8328807\CCSD=-33.8334714\CCSD(T)=-33.83671
 Normal termination of Gaussian 16 at Sun Dec 10 06:19:23 2023.
