 Gaussian 16, Revision A.03,
 Gaussian 16:  ES64L-G16RevA.03 25-Dec-2016

 ------------------
 #p CCSD(T)/CEP-31G
 ------------------

 ------------
 H2O_H2O_1026
 ------------
 Symbolic Z-matrix:
 Charge =  0 Multiplicity = 1

                         Standard orientation:
 ---------------------------------------------------------------------
 Center     Atomic      Atomic             Coordinates (Angstroms)
 Number     Number       Type             X           Y           Z
 ---------------------------------------------------------------------
      1          8           0        0.090688   -1.498933    0.000000
      2          1           0        0.090554   -0.516331    0.000000
      3          1           0       -0.838761   -1.817726    0.000000
      4          8           0        0.090688    1.360233    0.000000
      5          1           0        0.154820    2.340740    0.000000
      6          1           0       -0.857621    1.102910    0.000000
 ---------------------------------------------------------------------

 SCF Done:  E(RHF) =  -33.6511012428     A.U. after   11 cycles
 E2 =    -0.2292665352D+00 EUMP2 =    -0.33880367777995D+02
 CCSD(T)
 CCSD(T)= -0.33897328866D+02

 The electronic state is 1-A'.
 Alpha  occ. eigenvalues --   -1.39219  -1.33235  -0.75703  -0.68735  -0.58946
 Alpha  occ. eigenvalues --   -0.53657  -0.52721  -0.47716
 Alpha virt. eigenvalues --    0.16598   0.25147   0.27693   0.42668   0.75212
 Alpha virt. eigenvalues --    0.79585   0.84777   0.85190   0.91040   1.12079
 Alpha virt. eigenvalues --    1.14927   1.22992   1.25742   1.38254   2.51011

 Mulliken charges:
               1
     1  O   -0.742106
     2  H    0.381718
     3  H    0.345270
     4  O   -0.770294
     5  H    0.419216
     6  H    0.366196
 Sum of Mulliken charges =  -0.00000

 Dipole moment (field-independent basis, Debye):
    X=             -4.0179    Y=              3.7144    Z=              0.0000  Tot=              5.4718
 Quadrupole moment (field-independent basis, Debye-Ang):
   XX=            -11.2011   YY=             -9.4649   ZZ=            -14.9892
   XY=              2.4325   XZ=              0.0000   YZ=              0.0000

 81\MP4DQ=-33.891337\MP4SDQ=-33.8935796\CCSD=-33.8945387\CCSD(T)=-33.89
 Normal termination of Gaussian 16 at Sun Dec 10 06:37:48 2023.
