 Gaussian 16, Revision A.03,
 Gaussian 16:  ES64L-G16RevA.03 25-Dec-2016

 ------------------
 #p CCSD(T)/CEP-31G
 ------------------

 -----------
 H2O_H2O_487
 -----------
 Symbolic Z-matrix:
 Charge =  0 Multiplicity = 1

                         Standard orientation:
 ---------------------------------------------------------------------
 Center     Atomic      Atomic             Coordinates (Angstroms)
 Number     Number       Type             X           Y           Z
 ---------------------------------------------------------------------
      1          8           0        0.056099    1.301326    0.000000
      2          1           0        0.053511    0.318728    0.000000
      3          1           0       -0.872551    1.622440    0.000000
      4          8           0        0.056099   -1.122555    0.000000
      5          1           0        0.749071   -1.819188    0.000000
      6          1           0       -0.827618   -1.552149    0.000000
 ---------------------------------------------------------------------

 SCF Done:  E(RHF) =  -33.6513228883     A.U. after   11 cycles
 E2 =    -0.2289169728D+00 EUMP2 =    -0.33880239861070D+02
 CCSD(T)
 CCSD(T)= -0.33895811417D+02

 The electronic state is 1-A'.
 Alpha  occ. eigenvalues --   -1.41363  -1.29220  -0.76594  -0.71880  -0.58002
 Alpha  occ. eigenvalues --   -0.55860  -0.47920  -0.43627
 Alpha virt. eigenvalues --    0.16908   0.26534   0.28402   0.55269   0.73879
 Alpha virt. eigenvalues --    0.74262   0.85488   0.89403   0.95815   1.03255
 Alpha virt. eigenvalues --    1.14005   1.17886   1.24398   1.36157   2.71855

 Mulliken charges:
               1
     1  O   -0.767783
     2  H    0.416900
     3  H    0.326467
     4  O   -0.834555
     5  H    0.445552
     6  H    0.413419
 Sum of Mulliken charges =   0.00000

 Dipole moment (field-independent basis, Debye):
    X=             -2.3523    Y=             -5.1028    Z=              0.0000  Tot=              5.6189
 Quadrupole moment (field-independent basis, Debye-Ang):
   XX=             -9.5149   YY=             -9.7769   ZZ=            -15.0036
   XY=             -3.6504   XZ=              0.0000   YZ=              0.0000

 9\MP4DQ=-33.8897979\MP4SDQ=-33.8920106\CCSD=-33.8927877\CCSD(T)=-33.89
 Normal termination of Gaussian 16 at Sun Dec 10 06:27:41 2023.
