 Gaussian 16, Revision A.03,
 Gaussian 16:  ES64L-G16RevA.03 25-Dec-2016

 ------------------
 #p CCSD(T)/CEP-31G
 ------------------

 ------------
 H2O_H2O_1503
 ------------
 Symbolic Z-matrix:
 Charge =  0 Multiplicity = 1

                         Standard orientation:
 ---------------------------------------------------------------------
 Center     Atomic      Atomic             Coordinates (Angstroms)
 Number     Number       Type             X           Y           Z
 ---------------------------------------------------------------------
      1          8           0        0.085609   -1.694309    0.000000
      2          1           0        0.085224   -0.711707    0.000000
      3          1           0       -0.843759   -2.013339    0.000000
      4          8           0        0.085609    1.544731    0.000000
      5          1           0        0.276928    2.508527    0.000000
      6          1           0       -0.888141    1.413141    0.000000
 ---------------------------------------------------------------------

 SCF Done:  E(RHF) =  -33.6552665857     A.U. after   11 cycles
 E2 =    -0.2289792770D+00 EUMP2 =    -0.33884245862757D+02
 CCSD(T)
 CCSD(T)= -0.33901253963D+02

 The electronic state is 1-A'.
 Alpha  occ. eigenvalues --   -1.38094  -1.33536  -0.73979  -0.69097  -0.58134
 Alpha  occ. eigenvalues --   -0.53202  -0.52672  -0.48101
 Alpha virt. eigenvalues --    0.16977   0.24551   0.28220   0.37593   0.76988
 Alpha virt. eigenvalues --    0.81171   0.83515   0.84948   0.89606   1.04807
 Alpha virt. eigenvalues --    1.15222   1.17675   1.21528   1.39386   2.50846

 Mulliken charges:
               1
     1  O   -0.758243
     2  H    0.401247
     3  H    0.352690
     4  O   -0.765445
     5  H    0.400612
     6  H    0.369139
 Sum of Mulliken charges =   0.00000

 Dipole moment (field-independent basis, Debye):
    X=             -3.8418    Y=              3.8045    Z=              0.0000  Tot=              5.4068
 Quadrupole moment (field-independent basis, Debye-Ang):
   XX=            -10.8442   YY=             -8.9090   ZZ=            -14.9938
   XY=              2.9033   XZ=              0.0000   YZ=              0.0000

 7009\MP4DQ=-33.8954134\MP4SDQ=-33.8975609\CCSD=-33.8985707\CCSD(T)=-33
 Normal termination of Gaussian 16 at Sun Dec 10 06:47:08 2023.
