 Gaussian 16, Revision A.03,
 Gaussian 16:  ES64L-G16RevA.03 25-Dec-2016

 ------------------
 #p CCSD(T)/CEP-31G
 ------------------

 ------------
 H2O_H2O_3948
 ------------
 Symbolic Z-matrix:
 Charge =  0 Multiplicity = 1

                         Standard orientation:
 ---------------------------------------------------------------------
 Center     Atomic      Atomic             Coordinates (Angstroms)
 Number     Number       Type             X           Y           Z
 ---------------------------------------------------------------------
      1          8           0       -0.016597    2.669102    0.000000
      2          1           0       -0.014094    1.686504    0.000000
      3          1           0        0.912081    2.990135    0.000000
      4          8           0       -0.016597   -2.505700    0.000000
      5          1           0       -0.996928   -2.572463    0.000000
      6          1           0        0.364488   -3.411394    0.000000
 ---------------------------------------------------------------------

 SCF Done:  E(RHF) =  -33.6538771806     A.U. after   11 cycles
 E2 =    -0.2282752836D+00 EUMP2 =    -0.33882152464160D+02
 CCSD(T)
 CCSD(T)= -0.33899095707D+02

 The electronic state is 1-A'.
 Alpha  occ. eigenvalues --   -1.36369  -1.34651  -0.72013  -0.70292  -0.56222
 Alpha  occ. eigenvalues --   -0.54458  -0.50971  -0.49259
 Alpha virt. eigenvalues --    0.19398   0.21350   0.29754   0.31586   0.79584
 Alpha virt. eigenvalues --    0.81250   0.82363   0.84225   0.85573   0.87356
 Alpha virt. eigenvalues --    1.16614   1.18384   1.21032   1.23056   2.56540

 Mulliken charges:
               1
     1  O   -0.749267
     2  H    0.379432
     3  H    0.369772
     4  O   -0.748716
     5  H    0.374093
     6  H    0.374686
 Sum of Mulliken charges =  -0.00000

 Dipole moment (field-independent basis, Debye):
    X=              0.7604    Y=             -3.8448    Z=              0.0000  Tot=              3.9193
 Quadrupole moment (field-independent basis, Debye-Ang):
   XX=             -9.7720   YY=             -6.9268   ZZ=            -14.9927
   XY=              9.3552   XZ=              0.0000   YZ=              0.0000

 7145\MP4DQ=-33.8934641\MP4SDQ=-33.8954879\CCSD=-33.8965382\CCSD(T)=-33
 Normal termination of Gaussian 16 at Sun Dec 10 06:44:03 2023.
