 Gaussian 16, Revision A.03,
 Gaussian 16:  ES64L-G16RevA.03 25-Dec-2016

 ------------------
 #p CCSD(T)/CEP-31G
 ------------------

 -----------
 H2O_H2O_162
 -----------
 Symbolic Z-matrix:
 Charge =  0 Multiplicity = 1

                         Standard orientation:
 ---------------------------------------------------------------------
 Center     Atomic      Atomic             Coordinates (Angstroms)
 Number     Number       Type             X           Y           Z
 ---------------------------------------------------------------------
      1          8           0        0.056127    1.171674    0.000000
      2          1           0        0.053229    0.189077    0.000000
      3          1           0       -0.872421    1.493081    0.000000
      4          8           0        0.056127   -0.992938   -0.000000
      5          1           0        0.748879   -1.689789   -0.000000
      6          1           0       -0.827726   -1.422253   -0.000000
 ---------------------------------------------------------------------

 SCF Done:  E(RHF) =  -33.6164149682     A.U. after   11 cycles
 E2 =    -0.2281112714D+00 EUMP2 =    -0.33844526239537D+02
 CCSD(T)
 CCSD(T)= -0.33859259501D+02

 The electronic state is 1-A'.
 Alpha  occ. eigenvalues --   -1.44686  -1.27326  -0.79427  -0.76896  -0.58287
 Alpha  occ. eigenvalues --   -0.55271  -0.44740  -0.41368
 Alpha virt. eigenvalues --    0.16292   0.25225   0.29955   0.61233   0.73304
 Alpha virt. eigenvalues --    0.73520   0.86631   0.91409   0.92774   1.07386
 Alpha virt. eigenvalues --    1.11934   1.16907   1.27933   1.34678   2.92477

 Mulliken charges:
               1
     1  O   -0.747263
     2  H    0.344202
     3  H    0.306325
     4  O   -0.800749
     5  H    0.466838
     6  H    0.430647
 Sum of Mulliken charges =   0.00000

 Dipole moment (field-independent basis, Debye):
    X=             -2.2697    Y=             -5.5751    Z=             -0.0000  Tot=              6.0194
 Quadrupole moment (field-independent basis, Debye-Ang):
   XX=             -9.4748   YY=            -10.5426   ZZ=            -14.9484
   XY=             -3.3436   XZ=             -0.0000   YZ=              0.0000

 \MP4DQ=-33.853079\MP4SDQ=-33.8554173\CCSD=-33.8560409\CCSD(T)=-33.8592
 Normal termination of Gaussian 16 at Sun Dec 10 06:21:14 2023.
