 Gaussian 16, Revision A.03,
 Gaussian 16:  ES64L-G16RevA.03 25-Dec-2016

 ------------------
 #p CCSD(T)/CEP-31G
 ------------------

 ------------
 H2O_H2O_1625
 ------------
 Symbolic Z-matrix:
 Charge =  0 Multiplicity = 1

                         Standard orientation:
 ---------------------------------------------------------------------
 Center     Atomic      Atomic             Coordinates (Angstroms)
 Number     Number       Type             X           Y           Z
 ---------------------------------------------------------------------
      1          8           0        0.092949   -1.735047    0.000000
      2          1           0        0.092949   -0.752446    0.000000
      3          1           0       -0.836544   -2.053714    0.000000
      4          8           0        0.092949    1.602260    0.000000
      5          1           0        0.092950    2.584862    0.000000
      6          1           0       -0.836544    1.283593    0.000000
 ---------------------------------------------------------------------

 SCF Done:  E(RHF) =  -33.6528041762     A.U. after   11 cycles
 E2 =    -0.2290747691D+00 EUMP2 =    -0.33881878945305D+02
 CCSD(T)
 CCSD(T)= -0.33898956213D+02

 The electronic state is 1-A'.
 Alpha  occ. eigenvalues --   -1.37963  -1.34275  -0.73921  -0.69705  -0.57832
 Alpha  occ. eigenvalues --   -0.53929  -0.52505  -0.48813
 Alpha virt. eigenvalues --    0.16518   0.24129   0.28316   0.36179   0.77254
 Alpha virt. eigenvalues --    0.81777   0.82730   0.84515   0.88388   1.02023
 Alpha virt. eigenvalues --    1.15570   1.17333   1.21598   1.39578   2.52376

 Mulliken charges:
               1
     1  O   -0.749411
     2  H    0.389723
     3  H    0.355433
     4  O   -0.752432
     5  H    0.393946
     6  H    0.362741
 Sum of Mulliken charges =  -0.00000

 Dipole moment (field-independent basis, Debye):
    X=             -4.1895    Y=              3.3469    Z=              0.0000  Tot=              5.3622
 Quadrupole moment (field-independent basis, Debye-Ang):
   XX=            -11.3302   YY=             -9.5642   ZZ=            -14.9870
   XY=              2.2663   XZ=              0.0000   YZ=              0.0000

 4083\MP4DQ=-33.8931184\MP4SDQ=-33.8952683\CCSD=-33.896278\CCSD(T)=-33.
 Normal termination of Gaussian 16 at Sun Dec 10 06:49:34 2023.
