 Gaussian 16, Revision A.03,
 Gaussian 16:  ES64L-G16RevA.03 25-Dec-2016

 ------------------
 #p CCSD(T)/CEP-31G
 ------------------

 ---------
 H2O_H2O_6
 ---------
 Symbolic Z-matrix:
 Charge =  0 Multiplicity = 1

                         Standard orientation:
 ---------------------------------------------------------------------
 Center     Atomic      Atomic             Coordinates (Angstroms)
 Number     Number       Type             X           Y           Z
 ---------------------------------------------------------------------
      1          8           0        0.076819   -1.103339    0.000000
      2          1           0        0.075475   -0.120739    0.000000
      3          1           0       -0.852237   -1.423277    0.000000
      4          8           0        0.076819    0.940246    0.000000
      5          1           0        0.451603    1.848565    0.000000
      6          1           0       -0.903951    1.000196    0.000000
 ---------------------------------------------------------------------

 SCF Done:  E(RHF) =  -33.5675641169     A.U. after   11 cycles
 E2 =    -0.2275476929D+00 EUMP2 =    -0.33795111809842D+02
 CCSD(T)
 CCSD(T)= -0.33809883842D+02

 The electronic state is 1-A'.
 Alpha  occ. eigenvalues --   -1.47902  -1.27375  -0.84998  -0.75652  -0.59809
 Alpha  occ. eigenvalues --   -0.54228  -0.44188  -0.41199
 Alpha virt. eigenvalues --    0.15764   0.23154   0.30707   0.61981   0.73039
 Alpha virt. eigenvalues --    0.74152   0.90228   0.91634   0.95053   1.08301
 Alpha virt. eigenvalues --    1.09212   1.20258   1.29628   1.43838   3.13309

 Mulliken charges:
               1
     1  O   -0.693126
     2  H    0.214741
     3  H    0.291982
     4  O   -0.732409
     5  H    0.505984
     6  H    0.412827
 Sum of Mulliken charges =  -0.00000

 Dipole moment (field-independent basis, Debye):
    X=             -3.0655    Y=              5.4889    Z=              0.0000  Tot=              6.2869
 Quadrupole moment (field-independent basis, Debye-Ang):
   XX=            -10.2661   YY=            -10.7179   ZZ=            -14.8764
   XY=              2.8635   XZ=              0.0000   YZ=              0.0000

 \MP4DQ=-33.8034511\MP4SDQ=-33.8060093\CCSD=-33.8065976\CCSD(T)=-33.809
 Normal termination of Gaussian 16 at Sun Dec 10 06:18:08 2023.
