 Gaussian 16, Revision A.03,
 Gaussian 16:  ES64L-G16RevA.03 25-Dec-2016

 ------------------
 #p CCSD(T)/CEP-31G
 ------------------

 ------------
 H2O_H2O_2026
 ------------
 Symbolic Z-matrix:
 Charge =  0 Multiplicity = 1

                         Standard orientation:
 ---------------------------------------------------------------------
 Center     Atomic      Atomic             Coordinates (Angstroms)
 Number     Number       Type             X           Y           Z
 ---------------------------------------------------------------------
      1          8           0        0.090686   -1.897812    0.000000
      2          1           0        0.090581   -0.915211    0.000000
      3          1           0       -0.838773   -2.216578    0.000000
      4          8           0        0.090686    1.759108    0.000000
      5          1           0        0.154846    2.739613    0.000000
      6          1           0       -0.857632    1.501813    0.000000
 ---------------------------------------------------------------------

 SCF Done:  E(RHF) =  -33.6533909732     A.U. after   11 cycles
 E2 =    -0.2287769341D+00 EUMP2 =    -0.33882167907251D+02
 CCSD(T)
 CCSD(T)= -0.33899201328D+02

 The electronic state is 1-A'.
 Alpha  occ. eigenvalues --   -1.37468  -1.34381  -0.73241  -0.69909  -0.57338
 Alpha  occ. eigenvalues --   -0.54088  -0.52039  -0.48944
 Alpha virt. eigenvalues --    0.16740   0.23477   0.28702   0.33867   0.78232
 Alpha virt. eigenvalues --    0.81968   0.82553   0.84545   0.88004   0.93099
 Alpha virt. eigenvalues --    1.15339   1.18471   1.20763   1.36346   2.54306

 Mulliken charges:
               1
     1  O   -0.750153
     2  H    0.389221
     3  H    0.358812
     4  O   -0.750031
     5  H    0.386902
     6  H    0.365250
 Sum of Mulliken charges =  -0.00000

 Dipole moment (field-independent basis, Debye):
    X=             -4.1124    Y=              3.4168    Z=              0.0000  Tot=              5.3466
 Quadrupole moment (field-independent basis, Debye-Ang):
   XX=            -11.1588   YY=             -9.2494   ZZ=            -14.9889
   XY=              2.5173   XZ=              0.0000   YZ=              0.0000

 84\MP4DQ=-33.8934477\MP4SDQ=-33.8955483\CCSD=-33.8965741\CCSD(T)=-33.8
 Normal termination of Gaussian 16 at Sun Dec 10 06:57:06 2023.
