 Gaussian 16, Revision A.03,
 Gaussian 16:  ES64L-G16RevA.03 25-Dec-2016

 ------------------
 #p CCSD(T)/CEP-31G
 ------------------

 ------------
 H2O_H2O_1600
 ------------
 Symbolic Z-matrix:
 Charge =  0 Multiplicity = 1

                         Standard orientation:
 ---------------------------------------------------------------------
 Center     Atomic      Atomic             Coordinates (Angstroms)
 Number     Number       Type             X           Y           Z
 ---------------------------------------------------------------------
      1          8           0        0.092949   -1.725075    0.000000
      2          1           0        0.092949   -0.742474    0.000000
      3          1           0       -0.836544   -2.043742    0.000000
      4          8           0        0.092949    1.592289    0.000000
      5          1           0        0.092949    2.574890    0.000000
      6          1           0       -0.836544    1.273621    0.000000
 ---------------------------------------------------------------------

 SCF Done:  E(RHF) =  -33.6527796898     A.U. after   11 cycles
 E2 =    -0.2290916695D+00 EUMP2 =    -0.33881871359302D+02
 CCSD(T)
 CCSD(T)= -0.33898949522D+02

 The electronic state is 1-A'.
 Alpha  occ. eigenvalues --   -1.38000  -1.34254  -0.73973  -0.69677  -0.57870
 Alpha  occ. eigenvalues --   -0.53904  -0.52540  -0.48789
 Alpha virt. eigenvalues --    0.16519   0.24171   0.28291   0.36367   0.77180
 Alpha virt. eigenvalues --    0.81713   0.82803   0.84520   0.88444   1.02684
 Alpha virt. eigenvalues --    1.15605   1.17263   1.21658   1.39677   2.52218

 Mulliken charges:
               1
     1  O   -0.749376
     2  H    0.389747
     3  H    0.355148
     4  O   -0.752792
     5  H    0.394571
     6  H    0.362701
 Sum of Mulliken charges =  -0.00000

 Dipole moment (field-independent basis, Debye):
    X=             -4.1875    Y=              3.3530    Z=              0.0000  Tot=              5.3645
 Quadrupole moment (field-independent basis, Debye-Ang):
   XX=            -11.3313   YY=             -9.5653   ZZ=            -14.9870
   XY=              2.2652   XZ=              0.0000   YZ=              0.0000

 3971\MP4DQ=-33.8931058\MP4SDQ=-33.8952593\CCSD=-33.8962676\CCSD(T)=-33
 Normal termination of Gaussian 16 at Sun Dec 10 06:49:05 2023.
