 Gaussian 16, Revision A.03,
 Gaussian 16:  ES64L-G16RevA.03 25-Dec-2016

 ------------------
 #p CCSD(T)/CEP-31G
 ------------------

 ------------
 H2O_H2O_3857
 ------------
 Symbolic Z-matrix:
 Charge =  0 Multiplicity = 1

                         Standard orientation:
 ---------------------------------------------------------------------
 Center     Atomic      Atomic             Coordinates (Angstroms)
 Number     Number       Type             X           Y           Z
 ---------------------------------------------------------------------
      1          8           0        0.073529    2.641108    0.000000
      2          1           0        0.072884    1.658507    0.000000
      3          1           0       -0.855755    2.960384   -0.000000
      4          8           0        0.073529   -2.474154    0.000000
      5          1           0        0.507545   -3.355707    0.000000
      6          1           0       -0.901133   -2.598816   -0.000000
 ---------------------------------------------------------------------

 SCF Done:  E(RHF) =  -33.6531609416     A.U. after   11 cycles
 E2 =    -0.2283205333D+00 EUMP2 =    -0.33881481474840D+02
 CCSD(T)
 CCSD(T)= -0.33898443125D+02

 The electronic state is 1-A'.
 Alpha  occ. eigenvalues --   -1.36430  -1.34641  -0.72077  -0.70257  -0.56246
 Alpha  occ. eigenvalues --   -0.54409  -0.51019  -0.49230
 Alpha virt. eigenvalues --    0.19283   0.21345   0.29642   0.31577   0.79544
 Alpha virt. eigenvalues --    0.81287   0.82368   0.84307   0.85528   0.87509
 Alpha virt. eigenvalues --    1.16526   1.18358   1.20938   1.23115   2.56490

 Mulliken charges:
               1
     1  O   -0.746523
     2  H    0.380235
     3  H    0.366205
     4  O   -0.746377
     5  H    0.376134
     6  H    0.370327
 Sum of Mulliken charges =   0.00000

 Dipole moment (field-independent basis, Debye):
    X=             -3.3724    Y=             -3.9388    Z=             -0.0000  Tot=              5.1853
 Quadrupole moment (field-independent basis, Debye-Ang):
   XX=            -10.1681   YY=             -6.7270   ZZ=            -14.9911
   XY=             -4.5132   XZ=              0.0000   YZ=             -0.0000

 0599\MP4DQ=-33.892806\MP4SDQ=-33.8948322\CCSD=-33.8958831\CCSD(T)=-33.
 Normal termination of Gaussian 16 at Sun Dec 10 06:42:25 2023.
