 Gaussian 16, Revision A.03,
 Gaussian 16:  ES64L-G16RevA.03 25-Dec-2016

 ------------------
 #p CCSD(T)/CEP-31G
 ------------------

 -----------
 H2O_H2O_772
 -----------
 Symbolic Z-matrix:
 Charge =  0 Multiplicity = 1

                         Standard orientation:
 ---------------------------------------------------------------------
 Center     Atomic      Atomic             Coordinates (Angstroms)
 Number     Number       Type             X           Y           Z
 ---------------------------------------------------------------------
      1          8           0       -0.020027    1.404645    0.000000
      2          1           0       -0.015333    0.422055    0.000000
      3          1           0        0.907933    1.727749    0.000000
      4          8           0       -0.020027   -1.237621    0.000000
      5          1           0       -0.993599   -1.370529    0.000000
      6          1           0        0.421436   -2.115469    0.000000
 ---------------------------------------------------------------------

 SCF Done:  E(RHF) =  -33.6598339615     A.U. after   11 cycles
 E2 =    -0.2285666182D+00 EUMP2 =    -0.33888400579656D+02
 CCSD(T)
 CCSD(T)= -0.33904660652D+02

 The electronic state is 1-A'.
 Alpha  occ. eigenvalues --   -1.39785  -1.30670  -0.75784  -0.68604  -0.59520
 Alpha  occ. eigenvalues --   -0.54410  -0.49967  -0.45296
 Alpha virt. eigenvalues --    0.17487   0.27028   0.27617   0.49009   0.74658
 Alpha virt. eigenvalues --    0.76732   0.86523   0.87584   0.92968   1.06382
 Alpha virt. eigenvalues --    1.15842   1.21195   1.25020   1.37392   2.59482

 Mulliken charges:
               1
     1  O   -0.777902
     2  H    0.410793
     3  H    0.352656
     4  O   -0.827680
     5  H    0.405276
     6  H    0.436856
 Sum of Mulliken charges =   0.00000

 Dipole moment (field-independent basis, Debye):
    X=              0.8954    Y=             -4.5773    Z=              0.0000  Tot=              4.6641
 Quadrupole moment (field-independent basis, Debye-Ang):
   XX=             -9.6206   YY=             -9.1795   ZZ=            -15.0154
   XY=              4.6334   XZ=              0.0000   YZ=              0.0000

 51\MP4DQ=-33.8987486\MP4SDQ=-33.9009119\CCSD=-33.9018145\CCSD(T)=-33.9
 Normal termination of Gaussian 16 at Sun Dec 10 06:33:02 2023.
