 Gaussian 16, Revision A.03,
 Gaussian 16:  ES64L-G16RevA.03 25-Dec-2016

 ------------------
 #p CCSD(T)/CEP-31G
 ------------------

 ------------
 H2O_H2O_1749
 ------------
 Symbolic Z-matrix:
 Charge =  0 Multiplicity = 1

                         Standard orientation:
 ---------------------------------------------------------------------
 Center     Atomic      Atomic             Coordinates (Angstroms)
 Number     Number       Type             X           Y           Z
 ---------------------------------------------------------------------
      1          8           0       -0.013597    1.789316    0.000000
      2          1           0       -0.009655    0.806722    0.000000
      3          1           0        0.914610    2.111708    0.000000
      4          8           0       -0.013597   -1.630081    0.000000
      5          1           0       -0.996191   -1.634023    0.000000
      6          1           0        0.308795   -2.558288    0.000000
 ---------------------------------------------------------------------

 SCF Done:  E(RHF) =  -33.6592040826     A.U. after   11 cycles
 E2 =    -0.2286154511D+00 EUMP2 =    -0.33887819533711D+02
 CCSD(T)
 CCSD(T)= -0.33904714241D+02

 The electronic state is 1-A'.
 Alpha  occ. eigenvalues --   -1.37607  -1.33229  -0.73343  -0.68937  -0.57891
 Alpha  occ. eigenvalues --   -0.53082  -0.52265  -0.47908
 Alpha virt. eigenvalues --    0.17689   0.24517   0.28849   0.36342   0.77735
 Alpha virt. eigenvalues --    0.81555   0.83176   0.86013   0.88108   0.98234
 Alpha virt. eigenvalues --    1.15706   1.19155   1.20989   1.37148   2.52199

 Mulliken charges:
               1
     1  O   -0.773753
     2  H    0.403752
     3  H    0.366870
     4  O   -0.772149
     5  H    0.383529
     6  H    0.391750
 Sum of Mulliken charges =   0.00000

 Dipole moment (field-independent basis, Debye):
    X=              0.6097    Y=             -3.9669    Z=              0.0000  Tot=              4.0134
 Quadrupole moment (field-independent basis, Debye-Ang):
   XX=             -9.8549   YY=             -8.3995   ZZ=            -15.0026
   XY=              6.4163   XZ=              0.0000   YZ=              0.0000

 17\MP4DQ=-33.8989576\MP4SDQ=-33.9010583\CCSD=-33.9020748\CCSD(T)=-33.9
 Normal termination of Gaussian 16 at Sun Dec 10 06:51:54 2023.
