 Gaussian 16, Revision A.03,
 Gaussian 16:  ES64L-G16RevA.03 25-Dec-2016

 ------------------
 #p CCSD(T)/CEP-31G
 ------------------

 -----------
 H2O_H2O_944
 -----------
 Symbolic Z-matrix:
 Charge =  0 Multiplicity = 1

                         Standard orientation:
 ---------------------------------------------------------------------
 Center     Atomic      Atomic             Coordinates (Angstroms)
 Number     Number       Type             X           Y           Z
 ---------------------------------------------------------------------
      1          8           0        0.030321    1.479057   -0.000000
      2          1           0        0.026492    0.496464   -0.000000
      3          1           0       -0.897924    1.801343   -0.000000
      4          8           0        0.030321   -1.303541    0.000000
      5          1           0        0.959538   -1.623011    0.000000
      6          1           0       -0.573236   -2.078929    0.000000
 ---------------------------------------------------------------------

 SCF Done:  E(RHF) =  -33.6629009567     A.U. after   11 cycles
 E2 =    -0.2288958115D+00 EUMP2 =    -0.33891796768214D+02
 CCSD(T)
 CCSD(T)= -0.33908181122D+02

 The electronic state is 1-A'.
 Alpha  occ. eigenvalues --   -1.39139  -1.30983  -0.74796  -0.68319  -0.59396
 Alpha  occ. eigenvalues --   -0.53864  -0.50479  -0.45635
 Alpha virt. eigenvalues --    0.17605   0.26813   0.27818   0.46395   0.75272
 Alpha virt. eigenvalues --    0.77018   0.86149   0.86808   0.93732   1.03215
 Alpha virt. eigenvalues --    1.15924   1.18304   1.23314   1.36435   2.54405

 Mulliken charges:
               1
     1  O   -0.786056
     2  H    0.429733
     3  H    0.351138
     4  O   -0.816228
     5  H    0.404015
     6  H    0.417397
 Sum of Mulliken charges =   0.00000

 Dipole moment (field-independent basis, Debye):
    X=             -1.3438    Y=             -4.6615    Z=              0.0000  Tot=              4.8513
 Quadrupole moment (field-independent basis, Debye-Ang):
   XX=             -9.4179   YY=             -8.8938   ZZ=            -15.0186
   XY=             -4.5636   XZ=              0.0000   YZ=             -0.0000

 5\MP4DQ=-33.9023214\MP4SDQ=-33.9044453\CCSD=-33.9053741\CCSD(T)=-33.90
 Normal termination of Gaussian 16 at Sun Dec 10 06:36:16 2023.
