 Gaussian 16, Revision A.03,
 Gaussian 16:  ES64L-G16RevA.03 25-Dec-2016

 ------------------
 #p CCSD(T)/CEP-31G
 ------------------

 ------------
 H2O_H2O_3587
 ------------
 Symbolic Z-matrix:
 Charge =  0 Multiplicity = 1

                         Standard orientation:
 ---------------------------------------------------------------------
 Center     Atomic      Atomic             Coordinates (Angstroms)
 Number     Number       Type             X           Y           Z
 ---------------------------------------------------------------------
      1          8           0        0.055980    2.537918    0.000000
      2          1           0        0.054699    1.555318    0.000000
      3          1           0       -0.873096    2.857797    0.000000
      4          8           0        0.055980   -2.358998   -0.000000
      5          1           0        0.749878   -3.054708   -0.000000
      6          1           0       -0.827164   -2.789766   -0.000000
 ---------------------------------------------------------------------

 SCF Done:  E(RHF) =  -33.6540473186     A.U. after   11 cycles
 E2 =    -0.2283005057D+00 EUMP2 =    -0.33882347824256D+02
 CCSD(T)
 CCSD(T)= -0.33899283901D+02

 The electronic state is 1-A'.
 Alpha  occ. eigenvalues --   -1.36493  -1.34352  -0.72138  -0.69973  -0.56360
 Alpha  occ. eigenvalues --   -0.54149  -0.51097  -0.48956
 Alpha virt. eigenvalues --    0.19240   0.21704   0.29641   0.31925   0.79467
 Alpha virt. eigenvalues --    0.81544   0.82247   0.84583   0.85449   0.87726
 Alpha virt. eigenvalues --    1.16505   1.18723   1.20927   1.23652   2.56473

 Mulliken charges:
               1
     1  O   -0.749927
     2  H    0.383457
     3  H    0.366252
     4  O   -0.748972
     5  H    0.376710
     6  H    0.372479
 Sum of Mulliken charges =  -0.00000

 Dipole moment (field-independent basis, Debye):
    X=             -2.5622    Y=             -4.2333    Z=             -0.0000  Tot=              4.9483
 Quadrupole moment (field-independent basis, Debye-Ang):
   XX=             -9.5845   YY=             -6.0395   ZZ=            -14.9931
   XY=             -5.8400   XZ=             -0.0000   YZ=              0.0000

 005\MP4DQ=-33.8936506\MP4SDQ=-33.8956773\CCSD=-33.8967247\CCSD(T)=-33.
 Normal termination of Gaussian 16 at Sun Dec 10 06:37:33 2023.
