 Gaussian 16, Revision A.03,
 Gaussian 16:  ES64L-G16RevA.03 25-Dec-2016

 ------------------
 #p CCSD(T)/CEP-31G
 ------------------

 ------------
 H2O_H2O_3913
 ------------
 Symbolic Z-matrix:
 Charge =  0 Multiplicity = 1

                         Standard orientation:
 ---------------------------------------------------------------------
 Center     Atomic      Atomic             Coordinates (Angstroms)
 Number     Number       Type             X           Y           Z
 ---------------------------------------------------------------------
      1          8           0        0.052281    2.668092    0.000000
      2          1           0        0.050943    1.685491    0.000000
      3          1           0       -0.876777    2.988024    0.000000
      4          8           0        0.052281   -2.488181   -0.000000
      5          1           0        0.790158   -3.137061   -0.000000
      6          1           0       -0.800827   -2.975738   -0.000000
 ---------------------------------------------------------------------

 SCF Done:  E(RHF) =  -33.6537457780     A.U. after   11 cycles
 E2 =    -0.2282942387D+00 EUMP2 =    -0.33882040016694D+02
 CCSD(T)
 CCSD(T)= -0.33898984508D+02

 The electronic state is 1-A'.
 Alpha  occ. eigenvalues --   -1.36393  -1.34471  -0.72035  -0.70095  -0.56242
 Alpha  occ. eigenvalues --   -0.54263  -0.50993  -0.49071
 Alpha virt. eigenvalues --    0.19410   0.21509   0.29732   0.31769   0.79566
 Alpha virt. eigenvalues --    0.81435   0.82341   0.84451   0.85577   0.87577
 Alpha virt. eigenvalues --    1.16593   1.18544   1.21028   1.23194   2.56553

 Mulliken charges:
               1
     1  O   -0.748757
     2  H    0.381590
     3  H    0.367080
     4  O   -0.747996
     5  H    0.375711
     6  H    0.372373
 Sum of Mulliken charges =  -0.00000

 Dipole moment (field-independent basis, Debye):
    X=             -2.3962    Y=             -4.2401    Z=             -0.0000  Tot=              4.8704
 Quadrupole moment (field-independent basis, Debye-Ang):
   XX=             -9.5142   YY=             -5.6785   ZZ=            -14.9926
   XY=             -6.3610   XZ=             -0.0000   YZ=              0.0000

 4\MP4DQ=-33.8933524\MP4SDQ=-33.8953769\CCSD=-33.8964268\CCSD(T)=-33.89
 Normal termination of Gaussian 16 at Sun Dec 10 06:43:25 2023.
