 Gaussian 16, Revision A.03,
 Gaussian 16:  ES64L-G16RevA.03 25-Dec-2016

 ------------------
 #p CCSD(T)/CEP-31G
 ------------------

 -----------
 H2O_H2O_750
 -----------
 Symbolic Z-matrix:
 Charge =  0 Multiplicity = 1

                         Standard orientation:
 ---------------------------------------------------------------------
 Center     Atomic      Atomic             Coordinates (Angstroms)
 Number     Number       Type             X           Y           Z
 ---------------------------------------------------------------------
      1          8           0        0.092949   -1.386030    0.000000
      2          1           0        0.092949   -0.403428    0.000000
      3          1           0       -0.836544   -1.704696    0.000000
      4          8           0        0.092949    1.253243    0.000000
      5          1           0        0.092949    2.235844    0.000000
      6          1           0       -0.836544    0.934576    0.000000
 ---------------------------------------------------------------------

 SCF Done:  E(RHF) =  -33.6430417409     A.U. after   11 cycles
 E2 =    -0.2293941524D+00 EUMP2 =    -0.33872435893330D+02
 CCSD(T)
 CCSD(T)= -0.33889234992D+02

 The electronic state is 1-A'.
 Alpha  occ. eigenvalues --   -1.40380  -1.32881  -0.77604  -0.68407  -0.59364
 Alpha  occ. eigenvalues --   -0.54552  -0.52174  -0.47272
 Alpha virt. eigenvalues --    0.16432   0.24997   0.27798   0.46830   0.74143
 Alpha virt. eigenvalues --    0.78706   0.85038   0.86418   0.92082   1.11859
 Alpha virt. eigenvalues --    1.13581   1.23893   1.34632   1.36889   2.54872

 Mulliken charges:
               1
     1  O   -0.718715
     2  H    0.347856
     3  H    0.338736
     4  O   -0.764732
     5  H    0.432789
     6  H    0.364067
 Sum of Mulliken charges =  -0.00000

 Dipole moment (field-independent basis, Debye):
    X=             -4.0718    Y=              3.7305    Z=              0.0000  Tot=              5.5223
 Quadrupole moment (field-independent basis, Debye-Ang):
   XX=            -11.3746   YY=             -9.7833   ZZ=            -14.9795
   XY=              2.1990   XZ=              0.0000   YZ=              0.0000

 845\MP4DQ=-33.8831143\MP4SDQ=-33.8854437\CCSD=-33.8863382\CCSD(T)=-33.
 Normal termination of Gaussian 16 at Sun Dec 10 06:32:37 2023.
