 Gaussian 16, Revision A.03,
 Gaussian 16:  ES64L-G16RevA.03 25-Dec-2016

 ------------------
 #p CCSD(T)/CEP-31G
 ------------------

 ------------
 H2O_H2O_3153
 ------------
 Symbolic Z-matrix:
 Charge =  0 Multiplicity = 1

                         Standard orientation:
 ---------------------------------------------------------------------
 Center     Atomic      Atomic             Coordinates (Angstroms)
 Number     Number       Type             X           Y           Z
 ---------------------------------------------------------------------
      1          8           0        0.085601   -2.352466    0.000000
      2          1           0        0.085327   -1.369864    0.000000
      3          1           0       -0.843803   -2.671391    0.000000
      4          8           0        0.085601    2.202868    0.000000
      5          1           0        0.277028    3.166644    0.000000
      6          1           0       -0.888165    2.071389    0.000000
 ---------------------------------------------------------------------

 SCF Done:  E(RHF) =  -33.6530102450     A.U. after   11 cycles
 E2 =    -0.2283847368D+00 EUMP2 =    -0.33881394981791D+02
 CCSD(T)
 CCSD(T)= -0.33898366888D+02

 The electronic state is 1-A'.
 Alpha  occ. eigenvalues --   -1.36702  -1.34670  -0.72367  -0.70269  -0.56515
 Alpha  occ. eigenvalues --   -0.54420  -0.51286  -0.49250
 Alpha virt. eigenvalues --    0.18312   0.21807   0.29371   0.31619   0.79292
 Alpha virt. eigenvalues --    0.81276   0.82370   0.84275   0.85375   0.87715
 Alpha virt. eigenvalues --    1.16074   1.18636   1.20681   1.24931   2.56219

 Mulliken charges:
               1
     1  O   -0.746093
     2  H    0.381392
     3  H    0.364318
     4  O   -0.746307
     5  H    0.378449
     6  H    0.368240
 Sum of Mulliken charges =   0.00000

 Dipole moment (field-independent basis, Debye):
    X=             -3.9167    Y=              3.5649    Z=              0.0000  Tot=              5.2961
 Quadrupole moment (field-independent basis, Debye-Ang):
   XX=            -10.8113   YY=             -8.3565   ZZ=            -14.9902
   XY=              3.1503   XZ=              0.0000   YZ=              0.0000

 718\MP4DQ=-33.8927157\MP4SDQ=-33.8947516\CCSD=-33.8957977\CCSD(T)=-33.
 Normal termination of Gaussian 16 at Sun Dec 10 06:29:49 2023.
