 Gaussian 16, Revision A.03,
 Gaussian 16:  ES64L-G16RevA.03 25-Dec-2016

 ------------------
 #p CCSD(T)/CEP-31G
 ------------------

 ------------
 H2O_H2O_1984
 ------------
 Symbolic Z-matrix:
 Charge =  0 Multiplicity = 1

                         Standard orientation:
 ---------------------------------------------------------------------
 Center     Atomic      Atomic             Coordinates (Angstroms)
 Number     Number       Type             X           Y           Z
 ---------------------------------------------------------------------
      1          8           0        0.066782    1.896539    0.000000
      2          1           0        0.065554    0.913938    0.000000
      3          1           0       -0.862312    2.216367    0.000000
      4          8           0        0.066782   -1.723468   -0.000000
      5          1           0        0.611665   -2.541153   -0.000000
      6          1           0       -0.883418   -1.973718   -0.000000
 ---------------------------------------------------------------------

 SCF Done:  E(RHF) =  -33.6572528248     A.U. after   11 cycles
 E2 =    -0.2286443407D+00 EUMP2 =    -0.33885897165460D+02
 CCSD(T)
 CCSD(T)= -0.33902810277D+02

 The electronic state is 1-A'.
 Alpha  occ. eigenvalues --   -1.37430  -1.33317  -0.73106  -0.68934  -0.57564
 Alpha  occ. eigenvalues --   -0.53111  -0.52069  -0.47942
 Alpha virt. eigenvalues --    0.17887   0.23842   0.28882   0.35038   0.78233
 Alpha virt. eigenvalues --    0.82779   0.82830   0.85434   0.89171   0.91311
 Alpha virt. eigenvalues --    1.15557   1.19893   1.20404   1.33803   2.51992

 Mulliken charges:
               1
     1  O   -0.764721
     2  H    0.404366
     3  H    0.358125
     4  O   -0.761497
     5  H    0.388564
     6  H    0.375162
 Sum of Mulliken charges =   0.00000

 Dipole moment (field-independent basis, Debye):
    X=             -3.0136    Y=             -4.2713    Z=             -0.0000  Tot=              5.2274
 Quadrupole moment (field-independent basis, Debye-Ang):
   XX=             -9.8989   YY=             -7.7342   ZZ=            -14.9990
   XY=             -4.2130   XZ=             -0.0000   YZ=              0.0000

 43\MP4DQ=-33.8970831\MP4SDQ=-33.8991663\CCSD=-33.9001907\CCSD(T)=-33.9
 Normal termination of Gaussian 16 at Sun Dec 10 06:56:19 2023.
