 Gaussian 16, Revision A.03,
 Gaussian 16:  ES64L-G16RevA.03 25-Dec-2016

 ------------------
 #p CCSD(T)/CEP-31G
 ------------------

 ------------
 H2O_H2O_3445
 ------------
 Symbolic Z-matrix:
 Charge =  0 Multiplicity = 1

                         Standard orientation:
 ---------------------------------------------------------------------
 Center     Atomic      Atomic             Coordinates (Angstroms)
 Number     Number       Type             X           Y           Z
 ---------------------------------------------------------------------
      1          8           0        0.026645    2.475002    0.000000
      2          1           0        0.024290    1.492404    0.000000
      3          1           0       -0.902081    2.795896    0.000000
      4          8           0        0.026645   -2.301770   -0.000000
      5          1           0        0.975153   -2.558360   -0.000000
      6          1           0       -0.523687   -3.115798   -0.000000
 ---------------------------------------------------------------------

 SCF Done:  E(RHF) =  -33.6546324028     A.U. after   11 cycles
 E2 =    -0.2282797359D+00 EUMP2 =    -0.33882912138751D+02
 CCSD(T)
 CCSD(T)= -0.33899834039D+02

 The electronic state is 1-A'.
 Alpha  occ. eigenvalues --   -1.36522  -1.34328  -0.72166  -0.69964  -0.56420
 Alpha  occ. eigenvalues --   -0.54151  -0.51135  -0.48946
 Alpha virt. eigenvalues --    0.19150   0.21807   0.29624   0.32001   0.79427
 Alpha virt. eigenvalues --    0.81546   0.82224   0.84490   0.85484   0.87680
 Alpha virt. eigenvalues --    1.16493   1.18826   1.20883   1.24050   2.56452

 Mulliken charges:
               1
     1  O   -0.752217
     2  H    0.383638
     3  H    0.368283
     4  O   -0.750913
     5  H    0.375939
     6  H    0.375270
 Sum of Mulliken charges =  -0.00000

 Dipole moment (field-independent basis, Debye):
    X=             -1.2173    Y=             -4.1027    Z=             -0.0000  Tot=              4.2794
 Quadrupole moment (field-independent basis, Debye-Ang):
   XX=             -9.5251   YY=             -6.5330   ZZ=            -14.9943
   XY=             -7.8406   XZ=             -0.0000   YZ=              0.0000

 495\MP4DQ=-33.8942021\MP4SDQ=-33.8962293\CCSD=-33.8972748\CCSD(T)=-33.
 Normal termination of Gaussian 16 at Sun Dec 10 06:35:02 2023.
