 Gaussian 16, Revision A.03,
 Gaussian 16:  ES64L-G16RevA.03 25-Dec-2016

 ------------------
 #p CCSD(T)/CEP-31G
 ------------------

 -----------
 H2O_H2O_738
 -----------
 Symbolic Z-matrix:
 Charge =  0 Multiplicity = 1

                         Standard orientation:
 ---------------------------------------------------------------------
 Center     Atomic      Atomic             Coordinates (Angstroms)
 Number     Number       Type             X           Y           Z
 ---------------------------------------------------------------------
      1          8           0        0.052400    1.401590   -0.000000
      2          1           0        0.049769    0.418992   -0.000000
      3          1           0       -0.876237    1.722743   -0.000000
      4          8           0        0.052400   -1.221817    0.000000
      5          1           0        0.789422   -1.871667    0.000000
      6          1           0       -0.801349   -1.708252    0.000000
 ---------------------------------------------------------------------

 SCF Done:  E(RHF) =  -33.6603051004     A.U. after   11 cycles
 E2 =    -0.2291209363D+00 EUMP2 =    -0.33889426036767D+02
 CCSD(T)
 CCSD(T)= -0.33905490842D+02

 The electronic state is 1-A'.
 Alpha  occ. eigenvalues --   -1.39938  -1.30248  -0.75368  -0.69481  -0.59053
 Alpha  occ. eigenvalues --   -0.54634  -0.49459  -0.44801
 Alpha virt. eigenvalues --    0.17280   0.27204   0.27565   0.50234   0.74588
 Alpha virt. eigenvalues --    0.75452   0.85237   0.87967   0.97229   1.00130
 Alpha virt. eigenvalues --    1.14766   1.18477   1.23266   1.36743   2.60108

 Mulliken charges:
               1
     1  O   -0.779653
     2  H    0.434425
     3  H    0.337756
     4  O   -0.825972
     5  H    0.427209
     6  H    0.406235
 Sum of Mulliken charges =   0.00000

 Dipole moment (field-independent basis, Debye):
    X=             -2.2488    Y=             -4.8930    Z=              0.0000  Tot=              5.3850
 Quadrupole moment (field-independent basis, Debye-Ang):
   XX=             -9.4568   YY=             -9.2692   ZZ=            -15.0170
   XY=             -3.9180   XZ=              0.0000   YZ=             -0.0000

 1\MP4DQ=-33.8995695\MP4SDQ=-33.9017231\CCSD=-33.9025889\CCSD(T)=-33.90
 Normal termination of Gaussian 16 at Sun Dec 10 06:32:24 2023.
