 Gaussian 16, Revision A.03,
 Gaussian 16:  ES64L-G16RevA.03 25-Dec-2016

 ------------------
 #p CCSD(T)/CEP-31G
 ------------------

 ------------
 H2O_H2O_1049
 ------------
 Symbolic Z-matrix:
 Charge =  0 Multiplicity = 1

                         Standard orientation:
 ---------------------------------------------------------------------
 Center     Atomic      Atomic             Coordinates (Angstroms)
 Number     Number       Type             X           Y           Z
 ---------------------------------------------------------------------
      1          8           0        0.013660   -1.510094    0.000000
      2          1           0        0.008948   -0.527504    0.000000
      3          1           0       -0.914295   -1.833213    0.000000
      4          8           0        0.013660    1.350880    0.000000
      5          1           0        0.996251    1.355591    0.000000
      6          1           0       -0.309460    2.278835    0.000000
 ---------------------------------------------------------------------

 SCF Done:  E(RHF) =  -33.6609384303     A.U. after   11 cycles
 E2 =    -0.2286395741D+00 EUMP2 =    -0.33889578004376D+02
 CCSD(T)
 CCSD(T)= -0.33906236225D+02

 The electronic state is 1-A'.
 Alpha  occ. eigenvalues --   -1.38860  -1.31863  -0.74883  -0.68148  -0.59336
 Alpha  occ. eigenvalues --   -0.53506  -0.51468  -0.46541
 Alpha virt. eigenvalues --    0.17590   0.26276   0.27960   0.43917   0.75543
 Alpha virt. eigenvalues --    0.78597   0.85910   0.86371   0.90558   1.10803
 Alpha virt. eigenvalues --    1.16101   1.20321   1.23654   1.37059   2.53383

 Mulliken charges:
               1
     1  O   -0.779506
     2  H    0.408502
     3  H    0.361543
     4  O   -0.806637
     5  H    0.394803
     6  H    0.421295
 Sum of Mulliken charges =  -0.00000

 Dipole moment (field-independent basis, Debye):
    X=             -0.6121    Y=              4.2134    Z=              0.0000  Tot=              4.2577
 Quadrupole moment (field-independent basis, Debye-Ang):
   XX=             -9.8378   YY=             -8.9249   ZZ=            -15.0118
   XY=              5.3385   XZ=              0.0000   YZ=              0.0000

 631\MP4DQ=-33.9003643\MP4SDQ=-33.902518\CCSD=-33.9034827\CCSD(T)=-33.9
 Normal termination of Gaussian 16 at Sun Dec 10 06:38:14 2023.
