 Gaussian 16, Revision A.03,
 Gaussian 16:  ES64L-G16RevA.03 25-Dec-2016

 ------------------
 #p CCSD(T)/CEP-31G
 ------------------

 ------------
 H2O_H2O_1273
 ------------
 Symbolic Z-matrix:
 Charge =  0 Multiplicity = 1

                         Standard orientation:
 ---------------------------------------------------------------------
 Center     Atomic      Atomic             Coordinates (Angstroms)
 Number     Number       Type             X           Y           Z
 ---------------------------------------------------------------------
      1          8           0       -0.016743    1.602082    0.000000
      2          1           0       -0.012483    0.619489    0.000000
      3          1           0        0.911360    1.924774    0.000000
      4          8           0       -0.016743   -1.438739    0.000000
      5          1           0       -0.996953   -1.507255    0.000000
      6          1           0        0.365960   -2.343750    0.000000
 ---------------------------------------------------------------------

 SCF Done:  E(RHF) =  -33.6614746204     A.U. after   11 cycles
 E2 =    -0.2287130032D+00 EUMP2 =    -0.33890187623640D+02
 CCSD(T)
 CCSD(T)= -0.33906947780D+02

 The electronic state is 1-A'.
 Alpha  occ. eigenvalues --   -1.38327  -1.32269  -0.74152  -0.68272  -0.58864
 Alpha  occ. eigenvalues --   -0.53006  -0.52006  -0.46958
 Alpha virt. eigenvalues --    0.17687   0.25733   0.28306   0.41055   0.76351
 Alpha virt. eigenvalues --    0.79496   0.84946   0.86385   0.89931   1.07976
 Alpha virt. eigenvalues --    1.16449   1.17461   1.22203   1.37030   2.51314

 Mulliken charges:
               1
     1  O   -0.781964
     2  H    0.414616
     3  H    0.362381
     4  O   -0.794338
     5  H    0.390990
     6  H    0.408315
 Sum of Mulliken charges =  -0.00000

 Dipole moment (field-independent basis, Debye):
    X=              0.7500    Y=             -4.2138    Z=              0.0000  Tot=              4.2800
 Quadrupole moment (field-independent basis, Debye-Ang):
   XX=             -9.7400   YY=             -8.6361   ZZ=            -15.0101
   XY=              5.5303   XZ=              0.0000   YZ=              0.0000

 086\MP4DQ=-33.9011239\MP4SDQ=-33.90325\CCSD=-33.9042395\CCSD(T)=-33.90
 Normal termination of Gaussian 16 at Sun Dec 10 06:42:34 2023.
