 Gaussian 16, Revision A.03,
 Gaussian 16:  ES64L-G16RevA.03 25-Dec-2016

 ------------------
 #p CCSD(T)/CEP-31G
 ------------------

 ------------
 H2O_H2O_1610
 ------------
 Symbolic Z-matrix:
 Charge =  0 Multiplicity = 1

                         Standard orientation:
 ---------------------------------------------------------------------
 Center     Atomic      Atomic             Coordinates (Angstroms)
 Number     Number       Type             X           Y           Z
 ---------------------------------------------------------------------
      1          8           0        0.063272    1.748257   -0.000000
      2          1           0        0.061753    0.765656   -0.000000
      3          1           0       -0.865727    2.068360    0.000000
      4          8           0        0.063272   -1.572801   -0.000000
      5          1           0        0.660237   -2.353274   -0.000000
      6          1           0       -0.868620   -1.884385    0.000000
 ---------------------------------------------------------------------

 SCF Done:  E(RHF) =  -33.6592712027     A.U. after   11 cycles
 E2 =    -0.2288243519D+00 EUMP2 =    -0.33888095554548D+02
 CCSD(T)
 CCSD(T)= -0.33904945669D+02

 The electronic state is 1-A'.
 Alpha  occ. eigenvalues --   -1.37840  -1.32719  -0.73517  -0.68453  -0.58174
 Alpha  occ. eigenvalues --   -0.52506  -0.52483  -0.47356
 Alpha virt. eigenvalues --    0.17789   0.24742   0.28594   0.37780   0.77418
 Alpha virt. eigenvalues --    0.81265   0.83835   0.85628   0.90650   0.97121
 Alpha virt. eigenvalues --    1.15181   1.19551   1.20844   1.34948   2.50104

 Mulliken charges:
               1
     1  O   -0.772883
     2  H    0.416522
     3  H    0.354468
     4  O   -0.773777
     5  H    0.396525
     6  H    0.379143
 Sum of Mulliken charges =   0.00000

 Dipole moment (field-independent basis, Debye):
    X=             -2.8288    Y=             -4.4097    Z=              0.0000  Tot=              5.2390
 Quadrupole moment (field-independent basis, Debye-Ang):
   XX=             -9.7738   YY=             -8.0321   ZZ=            -15.0039
   XY=             -4.1903   XZ=             -0.0000   YZ=              0.0000

 4495\MP4DQ=-33.8991738\MP4SDQ=-33.9012712\CCSD=-33.9022829\CCSD(T)=-33
 Normal termination of Gaussian 16 at Sun Dec 10 06:49:17 2023.
