 Gaussian 16, Revision A.03,
 Gaussian 16:  ES64L-G16RevA.03 25-Dec-2016

 ------------------
 #p CCSD(T)/CEP-31G
 ------------------

 ------------
 H2O_H2O_2172
 ------------
 Symbolic Z-matrix:
 Charge =  0 Multiplicity = 1

                         Standard orientation:
 ---------------------------------------------------------------------
 Center     Atomic      Atomic             Coordinates (Angstroms)
 Number     Number       Type             X           Y           Z
 ---------------------------------------------------------------------
      1          8           0       -0.019909    1.963097    0.000000
      2          1           0       -0.016609    0.980501    0.000000
      3          1           0        0.908509    2.284883    0.000000
      4          8           0       -0.019909   -1.796016    0.000000
      5          1           0       -0.993668   -1.927542    0.000000
      6          1           0        0.420308   -2.674490    0.000000
 ---------------------------------------------------------------------

 SCF Done:  E(RHF) =  -33.6578361098     A.U. after   11 cycles
 E2 =    -0.2284813107D+00 EUMP2 =    -0.33886317420545D+02
 CCSD(T)
 CCSD(T)= -0.33903210573D+02

 The electronic state is 1-A'.
 Alpha  occ. eigenvalues --   -1.37205  -1.33531  -0.72875  -0.69194  -0.57339
 Alpha  occ. eigenvalues --   -0.53402  -0.51855  -0.48193
 Alpha virt. eigenvalues --    0.17992   0.23613   0.29152   0.34166   0.78539
 Alpha virt. eigenvalues --    0.82454   0.82753   0.85624   0.87832   0.90031
 Alpha virt. eigenvalues --    1.15848   1.19903   1.20549   1.33093   2.53517

 Mulliken charges:
               1
     1  O   -0.766846
     2  H    0.398034
     3  H    0.366622
     4  O   -0.762108
     5  H    0.381124
     6  H    0.383174
 Sum of Mulliken charges =   0.00000

 Dipole moment (field-independent basis, Debye):
    X=              0.8974    Y=             -4.0826    Z=              0.0000  Tot=              4.1800
 Quadrupole moment (field-independent basis, Debye-Ang):
   XX=             -9.6643   YY=             -7.8038   ZZ=            -15.0001
   XY=              6.6479   XZ=              0.0000   YZ=              0.0000

 \MP4DQ=-33.8975118\MP4SDQ=-33.8995838\CCSD=-33.9006093\CCSD(T)=-33.903
 Normal termination of Gaussian 16 at Sun Dec 10 07:00:00 2023.
