 Gaussian 16, Revision A.03,
 Gaussian 16:  ES64L-G16RevA.03 25-Dec-2016

 ------------------
 #p CCSD(T)/CEP-31G
 ------------------

 ------------
 H2O_H2O_1485
 ------------
 Symbolic Z-matrix:
 Charge =  0 Multiplicity = 1

                         Standard orientation:
 ---------------------------------------------------------------------
 Center     Atomic      Atomic             Coordinates (Angstroms)
 Number     Number       Type             X           Y           Z
 ---------------------------------------------------------------------
      1          8           0        0.063276    1.698394    0.000000
      2          1           0        0.061711    0.715794    0.000000
      3          1           0       -0.865708    2.018541    0.000000
      4          8           0        0.063276   -1.522945   -0.000000
      5          1           0        0.660204   -2.303447   -0.000000
      6          1           0       -0.868629   -1.834484   -0.000000
 ---------------------------------------------------------------------

 SCF Done:  E(RHF) =  -33.6598591912     A.U. after   11 cycles
 E2 =    -0.2288926426D+00 EUMP2 =    -0.33888751833820D+02
 CCSD(T)
 CCSD(T)= -0.33905567679D+02

 The electronic state is 1-A'.
 Alpha  occ. eigenvalues --   -1.38019  -1.32506  -0.73699  -0.68327  -0.58407
 Alpha  occ. eigenvalues --   -0.52692  -0.52243  -0.47142
 Alpha virt. eigenvalues --    0.17725   0.25049   0.28461   0.38949   0.77067
 Alpha virt. eigenvalues --    0.80604   0.84253   0.85605   0.91317   0.99338
 Alpha virt. eigenvalues --    1.15040   1.19317   1.21055   1.35134   2.49838

 Mulliken charges:
               1
     1  O   -0.774956
     2  H    0.420500
     3  H    0.352790
     4  O   -0.779238
     5  H    0.400335
     6  H    0.380570
 Sum of Mulliken charges =  -0.00000

 Dipole moment (field-independent basis, Debye):
    X=             -2.8179    Y=             -4.4436    Z=             -0.0000  Tot=              5.2618
 Quadrupole moment (field-independent basis, Debye-Ang):
   XX=             -9.7720   YY=             -8.1729   ZZ=            -15.0056
   XY=             -4.1229   XZ=             -0.0000   YZ=              0.0000

 609\MP4DQ=-33.8997774\MP4SDQ=-33.901881\CCSD=-33.902885\CCSD(T)=-33.90
 Normal termination of Gaussian 16 at Sun Dec 10 06:46:47 2023.
