 Gaussian 16, Revision A.03,
 Gaussian 16:  ES64L-G16RevA.03 25-Dec-2016

 ------------------
 #p CCSD(T)/CEP-31G
 ------------------

 ------------
 H2O_H2O_2522
 ------------
 Symbolic Z-matrix:
 Charge =  0 Multiplicity = 1

                         Standard orientation:
 ---------------------------------------------------------------------
 Center     Atomic      Atomic             Coordinates (Angstroms)
 Number     Number       Type             X           Y           Z
 ---------------------------------------------------------------------
      1          8           0       -0.019889    2.102708    0.000000
      2          1           0       -0.016818    1.120112    0.000000
      3          1           0        0.908603    2.424279    0.000000
      4          8           0       -0.019889   -1.935618    0.000000
      5          1           0       -0.993679   -2.066918    0.000000
      6          1           0        0.420123   -2.814194    0.000000
 ---------------------------------------------------------------------

 SCF Done:  E(RHF) =  -33.6566279460     A.U. after   11 cycles
 E2 =    -0.2283858471D+00 EUMP2 =    -0.33885013793082D+02
 CCSD(T)
 CCSD(T)= -0.33901911609D+02

 The electronic state is 1-A'.
 Alpha  occ. eigenvalues --   -1.36958  -1.33851  -0.72617  -0.69499  -0.56987
 Alpha  occ. eigenvalues --   -0.53713  -0.51595  -0.48498
 Alpha virt. eigenvalues --    0.18210   0.22951   0.29307   0.33052   0.78925
 Alpha virt. eigenvalues --    0.82026   0.83129   0.84845   0.86750   0.87949
 Alpha virt. eigenvalues --    1.16058   1.19710   1.20574   1.29796   2.54981

 Mulliken charges:
               1
     1  O   -0.761068
     2  H    0.391890
     3  H    0.367631
     4  O   -0.757276
     5  H    0.378973
     6  H    0.379850
 Sum of Mulliken charges =  -0.00000

 Dipole moment (field-independent basis, Debye):
    X=              0.9003    Y=             -4.0350    Z=              0.0000  Tot=              4.1342
 Quadrupole moment (field-independent basis, Debye-Ang):
   XX=             -9.6686   YY=             -7.5560   ZZ=            -14.9978
   XY=              7.1256   XZ=              0.0000   YZ=              0.0000

 4894\MP4DQ=-33.8962444\MP4SDQ=-33.898299\CCSD=-33.8993301\CCSD(T)=-33.
 Normal termination of Gaussian 16 at Sun Dec 10 06:18:24 2023.
