 Gaussian 16, Revision A.03,
 Gaussian 16:  ES64L-G16RevA.03 25-Dec-2016

 ------------------
 #p CCSD(T)/CEP-31G
 ------------------

 ------------
 H2O_H2O_1342
 ------------
 Symbolic Z-matrix:
 Charge =  0 Multiplicity = 1

                         Standard orientation:
 ---------------------------------------------------------------------
 Center     Atomic      Atomic             Coordinates (Angstroms)
 Number     Number       Type             X           Y           Z
 ---------------------------------------------------------------------
      1          8           0        0.037533    1.640438   -0.000000
      2          1           0        0.034496    0.657841   -0.000000
      3          1           0       -0.890970    1.961976   -0.000000
      4          8           0        0.037533   -1.461547    0.000000
      5          1           0        0.917455   -1.898862    0.000000
      6          1           0       -0.661513   -2.152083    0.000000
 ---------------------------------------------------------------------

 SCF Done:  E(RHF) =  -33.6624118781     A.U. after   11 cycles
 E2 =    -0.2288971879D+00 EUMP2 =    -0.33891309065951D+02
 CCSD(T)
 CCSD(T)= -0.33907994605D+02

 The electronic state is 1-A'.
 Alpha  occ. eigenvalues --   -1.38201  -1.31967  -0.73834  -0.68057  -0.58786
 Alpha  occ. eigenvalues --   -0.52923  -0.51713  -0.46644
 Alpha virt. eigenvalues --    0.17864   0.25653   0.28442   0.40881   0.76647
 Alpha virt. eigenvalues --    0.79447   0.84962   0.86215   0.91788   0.99740
 Alpha virt. eigenvalues --    1.15148   1.19088   1.21823   1.34419   2.49919

 Mulliken charges:
               1
     1  O   -0.784534
     2  H    0.427348
     3  H    0.355593
     4  O   -0.790224
     5  H    0.395889
     6  H    0.395928
 Sum of Mulliken charges =  -0.00000

 Dipole moment (field-independent basis, Debye):
    X=             -1.6703    Y=             -4.5644    Z=              0.0000  Tot=              4.8604
 Quadrupole moment (field-independent basis, Debye-Ang):
   XX=             -9.3791   YY=             -8.2891   ZZ=            -15.0125
   XY=             -4.8430   XZ=              0.0000   YZ=             -0.0000

 946\MP4DQ=-33.9022046\MP4SDQ=-33.9042989\CCSD=-33.905286\CCSD(T)=-33.9
 Normal termination of Gaussian 16 at Sun Dec 10 06:43:56 2023.
