 Gaussian 16, Revision A.03,
 Gaussian 16:  ES64L-G16RevA.03 25-Dec-2016

 ------------------
 #p CCSD(T)/CEP-31G
 ------------------

 -----------
 H2O_H2O_676
 -----------
 Symbolic Z-matrix:
 Charge =  0 Multiplicity = 1

                         Standard orientation:
 ---------------------------------------------------------------------
 Center     Atomic      Atomic             Coordinates (Angstroms)
 Number     Number       Type             X           Y           Z
 ---------------------------------------------------------------------
      1          8           0        0.090689   -1.359324    0.000000
      2          1           0        0.090540   -0.376723    0.000000
      3          1           0       -0.838756   -1.678131    0.000000
      4          8           0        0.090689    1.220627    0.000000
      5          1           0        0.154806    2.201136    0.000000
      6          1           0       -0.857617    0.963292    0.000000
 ---------------------------------------------------------------------

 SCF Done:  E(RHF) =  -33.6426460076     A.U. after   11 cycles
 E2 =    -0.2291864670D+00 EUMP2 =    -0.33871832474641D+02
 CCSD(T)
 CCSD(T)= -0.33888502351D+02

 The electronic state is 1-A'.
 Alpha  occ. eigenvalues --   -1.40707  -1.32341  -0.77899  -0.68467  -0.59353
 Alpha  occ. eigenvalues --   -0.54851  -0.51553  -0.46724
 Alpha virt. eigenvalues --    0.16459   0.25066   0.27836   0.48508   0.73981
 Alpha virt. eigenvalues --    0.78131   0.85258   0.86986   0.93125   1.11409
 Alpha virt. eigenvalues --    1.13771   1.23783   1.33557   1.38648   2.58292

 Mulliken charges:
               1
     1  O   -0.718613
     2  H    0.348390
     3  H    0.335444
     4  O   -0.776963
     5  H    0.442604
     6  H    0.369138
 Sum of Mulliken charges =  -0.00000

 Dipole moment (field-independent basis, Debye):
    X=             -3.9490    Y=              3.9468    Z=              0.0000  Tot=              5.5832
 Quadrupole moment (field-independent basis, Debye-Ang):
   XX=            -11.2155   YY=             -9.6888   ZZ=            -14.9807
   XY=              2.3831   XZ=              0.0000   YZ=              0.0000

 28\MP4DQ=-33.8823737\MP4SDQ=-33.8847071\CCSD=-33.8855912\CCSD(T)=-33.8
 Normal termination of Gaussian 16 at Sun Dec 10 06:31:14 2023.
