 Gaussian 16, Revision A.03,
 Gaussian 16:  ES64L-G16RevA.03 25-Dec-2016

 ------------------
 #p CCSD(T)/CEP-31G
 ------------------

 ------------
 H2O_H2O_4813
 ------------
 Symbolic Z-matrix:
 Charge =  0 Multiplicity = 1

                         Standard orientation:
 ---------------------------------------------------------------------
 Center     Atomic      Atomic             Coordinates (Angstroms)
 Number     Number       Type             X           Y           Z
 ---------------------------------------------------------------------
      1          8           0        0.052266    3.027089    0.000000
      2          1           0        0.051092    2.044489    0.000000
      3          1           0       -0.876845    3.346867   -0.000000
      4          8           0        0.052266   -2.847162    0.000000
      5          1           0        0.790251   -3.495919    0.000000
      6          1           0       -0.800761   -3.334861   -0.000000
 ---------------------------------------------------------------------

 SCF Done:  E(RHF) =  -33.6530468723     A.U. after   11 cycles
 E2 =    -0.2283110005D+00 EUMP2 =    -0.33881357872809D+02
 CCSD(T)
 CCSD(T)= -0.33898322466D+02

 The electronic state is 1-A'.
 Alpha  occ. eigenvalues --   -1.36203  -1.34752  -0.71842  -0.70381  -0.56010
 Alpha  occ. eigenvalues --   -0.54527  -0.50794  -0.49343
 Alpha virt. eigenvalues --    0.19632   0.21128   0.29885   0.31405   0.79758
 Alpha virt. eigenvalues --    0.81180   0.82648   0.84173   0.85813   0.87294
 Alpha virt. eigenvalues --    1.16753   1.18203   1.21199   1.22695   2.56734

 Mulliken charges:
               1
     1  O   -0.746027
     2  H    0.377757
     3  H    0.368266
     4  O   -0.745630
     5  H    0.374023
     6  H    0.371611
 Sum of Mulliken charges =   0.00000

 Dipole moment (field-independent basis, Debye):
    X=             -2.4029    Y=             -4.2131    Z=             -0.0000  Tot=              4.8502
 Quadrupole moment (field-independent basis, Debye-Ang):
   XX=             -9.5149   YY=             -4.8711   ZZ=            -14.9911
   XY=             -7.0396   XZ=              0.0000   YZ=             -0.0000

 413\MP4DQ=-33.8926875\MP4SDQ=-33.8947118\CCSD=-33.8957647\CCSD(T)=-33.
 Normal termination of Gaussian 16 at Sun Dec 10 06:59:39 2023.
