 Gaussian 16, Revision A.03,
 Gaussian 16:  ES64L-G16RevA.03 25-Dec-2016

 ------------------
 #p CCSD(T)/CEP-31G
 ------------------

 ------------
 H2O_H2O_1599
 ------------
 Symbolic Z-matrix:
 Charge =  0 Multiplicity = 1

                         Standard orientation:
 ---------------------------------------------------------------------
 Center     Atomic      Atomic             Coordinates (Angstroms)
 Number     Number       Type             X           Y           Z
 ---------------------------------------------------------------------
      1          8           0        0.013609   -1.729483    0.000000
      2          1           0        0.009524   -0.746890    0.000000
      3          1           0       -0.914551   -2.052011    0.000000
      4          8           0        0.013609    1.570252    0.000000
      5          1           0        0.996203    1.574336    0.000000
      6          1           0       -0.308919    2.498412    0.000000
 ---------------------------------------------------------------------

 SCF Done:  E(RHF) =  -33.6598539502     A.U. after   11 cycles
 E2 =    -0.2286564535D+00 EUMP2 =    -0.33888510403775D+02
 CCSD(T)
 CCSD(T)= -0.33905387793D+02

 The electronic state is 1-A'.
 Alpha  occ. eigenvalues --   -1.37795  -1.33009  -0.73563  -0.68755  -0.58157
 Alpha  occ. eigenvalues --   -0.52843  -0.52457  -0.47694
 Alpha virt. eigenvalues --    0.17675   0.24871   0.28702   0.37532   0.77346
 Alpha virt. eigenvalues --    0.81025   0.83620   0.86162   0.88427   1.01762
 Alpha virt. eigenvalues --    1.15760   1.18680   1.21267   1.37658   2.51666

 Mulliken charges:
               1
     1  O   -0.776519
     2  H    0.406724
     3  H    0.366148
     4  O   -0.777581
     5  H    0.385204
     6  H    0.396024
 Sum of Mulliken charges =   0.00000

 Dipole moment (field-independent basis, Debye):
    X=             -0.6096    Y=              4.0043    Z=              0.0000  Tot=              4.0504
 Quadrupole moment (field-independent basis, Debye-Ang):
   XX=             -9.8521   YY=             -8.4952   ZZ=            -15.0044
   XY=              6.1896   XZ=              0.0000   YZ=              0.0000

 746\MP4DQ=-33.8996091\MP4SDQ=-33.9017195\CCSD=-33.9027307\CCSD(T)=-33.
 Normal termination of Gaussian 16 at Sun Dec 10 06:49:04 2023.
