 Gaussian 16, Revision A.03,
 Gaussian 16:  ES64L-G16RevA.03 25-Dec-2016

 ------------------
 #p CCSD(T)/CEP-31G
 ------------------

 ------------
 H2O_H2O_3376
 ------------
 Symbolic Z-matrix:
 Charge =  0 Multiplicity = 1

                         Standard orientation:
 ---------------------------------------------------------------------
 Center     Atomic      Atomic             Coordinates (Angstroms)
 Number     Number       Type             X           Y           Z
 ---------------------------------------------------------------------
      1          8           0        0.090684   -2.436299    0.000000
      2          1           0        0.090603   -1.453698    0.000000
      3          1           0       -0.838782   -2.755042    0.000000
      4          8           0        0.090684    2.297590    0.000000
      5          1           0        0.154870    3.278093    0.000000
      6          1           0       -0.857639    2.040319    0.000000
 ---------------------------------------------------------------------

 SCF Done:  E(RHF) =  -33.6523941678     A.U. after   11 cycles
 E2 =    -0.2283818260D+00 EUMP2 =    -0.33880775993780D+02
 CCSD(T)
 CCSD(T)= -0.33897763904D+02

 The electronic state is 1-A'.
 Alpha  occ. eigenvalues --   -1.36623  -1.34919  -0.72286  -0.70521  -0.56403
 Alpha  occ. eigenvalues --   -0.54654  -0.51198  -0.49490
 Alpha virt. eigenvalues --    0.18359   0.21532   0.29434   0.31303   0.79381
 Alpha virt. eigenvalues --    0.81045   0.82323   0.84034   0.85381   0.87477
 Alpha virt. eigenvalues --    1.16059   1.18317   1.20760   1.23843   2.55802

 Mulliken charges:
               1
     1  O   -0.743625
     2  H    0.378270
     3  H    0.365171
     4  O   -0.744231
     5  H    0.377399
     6  H    0.367016
 Sum of Mulliken charges =   0.00000

 Dipole moment (field-independent basis, Debye):
    X=             -4.1558    Y=              3.2926    Z=              0.0000  Tot=              5.3021
 Quadrupole moment (field-independent basis, Debye-Ang):
   XX=            -11.1348   YY=             -9.1325   ZZ=            -14.9887
   XY=              2.5930   XZ=              0.0000   YZ=              0.0000

 73\MP4DQ=-33.8921145\MP4SDQ=-33.8941468\CCSD=-33.8951967\CCSD(T)=-33.8
 Normal termination of Gaussian 16 at Sun Dec 10 06:33:49 2023.
