 Gaussian 16, Revision A.03,
 Gaussian 16:  ES64L-G16RevA.03 25-Dec-2016

 ------------------
 #p CCSD(T)/CEP-31G
 ------------------

 ------------
 H2O_H2O_4015
 ------------
 Symbolic Z-matrix:
 Charge =  0 Multiplicity = 1

                         Standard orientation:
 ---------------------------------------------------------------------
 Center     Atomic      Atomic             Coordinates (Angstroms)
 Number     Number       Type             X           Y           Z
 ---------------------------------------------------------------------
      1          8           0        0.044836    2.708258    0.000000
      2          1           0        0.043276    1.725658    0.000000
      3          1           0       -0.884150    3.028399    0.000000
      4          8           0        0.044836   -2.527836   -0.000000
      5          1           0        0.860972   -3.075036   -0.000000
      6          1           0       -0.737469   -3.122399   -0.000000
 ---------------------------------------------------------------------

 SCF Done:  E(RHF) =  -33.6537630878     A.U. after   11 cycles
 E2 =    -0.2282890555D+00 EUMP2 =    -0.33882052143310D+02
 CCSD(T)
 CCSD(T)= -0.33898996348D+02

 The electronic state is 1-A'.
 Alpha  occ. eigenvalues --   -1.36362  -1.34494  -0.72002  -0.70123  -0.56211
 Alpha  occ. eigenvalues --   -0.54290  -0.50962  -0.49097
 Alpha virt. eigenvalues --    0.19461   0.21472   0.29767   0.31739   0.79594
 Alpha virt. eigenvalues --    0.81410   0.82374   0.84415   0.85615   0.87530
 Alpha virt. eigenvalues --    1.16625   1.18513   1.21063   1.23113   2.56581

 Mulliken charges:
               1
     1  O   -0.748821
     2  H    0.381110
     3  H    0.367647
     4  O   -0.748021
     5  H    0.375281
     6  H    0.372805
 Sum of Mulliken charges =  -0.00000

 Dipole moment (field-independent basis, Debye):
    X=             -2.0554    Y=             -4.2472    Z=             -0.0000  Tot=              4.7184
 Quadrupole moment (field-independent basis, Debye-Ang):
   XX=             -9.4277   YY=             -5.5448   ZZ=            -14.9926
   XY=             -7.0409   XZ=             -0.0000   YZ=              0.0000

 158\MP4DQ=-33.8933649\MP4SDQ=-33.8953889\CCSD=-33.8964391\CCSD(T)=-33.
 Normal termination of Gaussian 16 at Sun Dec 10 06:45:16 2023.
