 Gaussian 16, Revision A.03,
 Gaussian 16:  ES64L-G16RevA.03 25-Dec-2016

 ------------------
 #p CCSD(T)/CEP-31G
 ------------------

 -----------
 H2O_H2O_955
 -----------
 Symbolic Z-matrix:
 Charge =  0 Multiplicity = 1

                         Standard orientation:
 ---------------------------------------------------------------------
 Center     Atomic      Atomic             Coordinates (Angstroms)
 Number     Number       Type             X           Y           Z
 ---------------------------------------------------------------------
      1          8           0        0.079876   -1.480052    0.000000
      2          1           0        0.079083   -0.497451    0.000000
      3          1           0       -0.849359   -1.799469    0.000000
      4          8           0        0.079876    1.321040    0.000000
      5          1           0        0.394972    2.251750    0.000000
      6          1           0       -0.902718    1.317267    0.000000
 ---------------------------------------------------------------------

 SCF Done:  E(RHF) =  -33.6559413774     A.U. after   11 cycles
 E2 =    -0.2290251976D+00 EUMP2 =    -0.33884966574922D+02
 CCSD(T)
 CCSD(T)= -0.33901688183D+02

 The electronic state is 1-A'.
 Alpha  occ. eigenvalues --   -1.39296  -1.32097  -0.75391  -0.68478  -0.59146
 Alpha  occ. eigenvalues --   -0.53847  -0.51544  -0.46624
 Alpha virt. eigenvalues --    0.16971   0.25849   0.27562   0.44715   0.75155
 Alpha virt. eigenvalues --    0.78355   0.85125   0.86112   0.93230   1.10763
 Alpha virt. eigenvalues --    1.16193   1.22128   1.22550   1.37006   2.53331

 Mulliken charges:
               1
     1  O   -0.758342
     2  H    0.407523
     3  H    0.341817
     4  O   -0.799062
     5  H    0.429983
     6  H    0.378081
 Sum of Mulliken charges =   0.00000

 Dipole moment (field-independent basis, Debye):
    X=             -3.4997    Y=              4.2695    Z=              0.0000  Tot=              5.5205
 Quadrupole moment (field-independent basis, Debye-Ang):
   XX=            -10.5176   YY=             -9.0353   ZZ=            -15.0016
   XY=              3.1644   XZ=              0.0000   YZ=              0.0000

 8\MP4DQ=-33.8957392\MP4SDQ=-33.8979409\CCSD=-33.8988951\CCSD(T)=-33.90
 Normal termination of Gaussian 16 at Sun Dec 10 06:36:28 2023.
