 Gaussian 16, Revision A.03,
 Gaussian 16:  ES64L-G16RevA.03 25-Dec-2016

 ------------------
 #p CCSD(T)/CEP-31G
 ------------------

 ------------
 H2O_H2O_1390
 ------------
 Symbolic Z-matrix:
 Charge =  0 Multiplicity = 1

                         Standard orientation:
 ---------------------------------------------------------------------
 Center     Atomic      Atomic             Coordinates (Angstroms)
 Number     Number       Type             X           Y           Z
 ---------------------------------------------------------------------
      1          8           0        0.044931    1.661160   -0.000000
      2          1           0        0.042333    0.678562   -0.000000
      3          1           0       -0.883716    1.982283   -0.000000
      4          8           0        0.044931   -1.480832    0.000000
      5          1           0        0.860488   -2.028895    0.000000
      6          1           0       -0.738003   -2.074568    0.000000
 ---------------------------------------------------------------------

 SCF Done:  E(RHF) =  -33.6619636296     A.U. after   11 cycles
 E2 =    -0.2289158565D+00 EUMP2 =    -0.33890879486179D+02
 CCSD(T)
 CCSD(T)= -0.33907587326D+02

 The electronic state is 1-A'.
 Alpha  occ. eigenvalues --   -1.38129  -1.32060  -0.73755  -0.68076  -0.58683
 Alpha  occ. eigenvalues --   -0.52845  -0.51812  -0.46728
 Alpha virt. eigenvalues --    0.17876   0.25496   0.28481   0.40353   0.76802
 Alpha virt. eigenvalues --    0.79784   0.84779   0.86038   0.92022   0.98282
 Alpha virt. eigenvalues --    1.15092   1.19534   1.21465   1.34045   2.49680

 Mulliken charges:
               1
     1  O   -0.782773
     2  H    0.427057
     3  H    0.354424
     4  O   -0.786714
     5  H    0.397266
     6  H    0.390739
 Sum of Mulliken charges =   0.00000

 Dipole moment (field-independent basis, Debye):
    X=             -1.9967    Y=             -4.5836    Z=              0.0000  Tot=              4.9996
 Quadrupole moment (field-independent basis, Debye-Ang):
   XX=             -9.3974   YY=             -8.2044   ZZ=            -15.0112
   XY=             -4.6705   XZ=              0.0000   YZ=             -0.0000

 915\MP4DQ=-33.9018033\MP4SDQ=-33.9038951\CCSD=-33.9048863\CCSD(T)=-33.
 Normal termination of Gaussian 16 at Sun Dec 10 06:44:53 2023.
