 Gaussian 16, Revision A.03,
 Gaussian 16:  ES64L-G16RevA.03 25-Dec-2016

 ------------------
 #p CCSD(T)/CEP-31G
 ------------------

 -----------
 H2O_H2O_733
 -----------
 Symbolic Z-matrix:
 Charge =  0 Multiplicity = 1

                         Standard orientation:
 ---------------------------------------------------------------------
 Center     Atomic      Atomic             Coordinates (Angstroms)
 Number     Number       Type             X           Y           Z
 ---------------------------------------------------------------------
      1          8           0        0.070252    1.396361    0.000000
      2          1           0        0.068779    0.413761    0.000000
      3          1           0       -0.858762    1.716420    0.000000
      4          8           0        0.070252   -1.226205   -0.000000
      5          1           0        0.560277   -2.077898   -0.000000
      6          1           0       -0.894329   -1.413532   -0.000000
 ---------------------------------------------------------------------

 SCF Done:  E(RHF) =  -33.6564180872     A.U. after   11 cycles
 E2 =    -0.2290190356D+00 EUMP2 =    -0.33885437122802D+02
 CCSD(T)
 CCSD(T)= -0.33901709450D+02

 The electronic state is 1-A'.
 Alpha  occ. eigenvalues --   -1.40055  -1.30826  -0.75940  -0.69152  -0.59091
 Alpha  occ. eigenvalues --   -0.54627  -0.50037  -0.45328
 Alpha virt. eigenvalues --    0.17019   0.26503   0.27577   0.49368   0.74497
 Alpha virt. eigenvalues --    0.76424   0.85263   0.87647   0.95734   1.07163
 Alpha virt. eigenvalues --    1.16317   1.19704   1.22880   1.36482   2.60571

 Mulliken charges:
               1
     1  O   -0.763762
     2  H    0.419086
     3  H    0.334980
     4  O   -0.823478
     5  H    0.442450
     6  H    0.390723
 Sum of Mulliken charges =   0.00000

 Dipole moment (field-independent basis, Debye):
    X=             -3.0115    Y=             -4.6805    Z=             -0.0000  Tot=              5.5657
 Quadrupole moment (field-independent basis, Debye-Ang):
   XX=            -10.0243   YY=             -9.2372   ZZ=            -15.0075
   XY=             -3.5042   XZ=             -0.0000   YZ=              0.0000

 49\MP4DQ=-33.8957377\MP4SDQ=-33.8979387\CCSD=-33.8988284\CCSD(T)=-33.9
 Normal termination of Gaussian 16 at Sun Dec 10 06:32:18 2023.
