 Gaussian 16, Revision A.03,
 Gaussian 16:  ES64L-G16RevA.03 25-Dec-2016

 ------------------
 #p CCSD(T)/CEP-31G
 ------------------

 ------------
 H2O_H2O_4910
 ------------
 Symbolic Z-matrix:
 Charge =  0 Multiplicity = 1

                         Standard orientation:
 ---------------------------------------------------------------------
 Center     Atomic      Atomic             Coordinates (Angstroms)
 Number     Number       Type             X           Y           Z
 ---------------------------------------------------------------------
      1          8           0        0.063212    3.064594   -0.000000
      2          1           0        0.062365    2.081993   -0.000000
      3          1           0       -0.866006    3.384062   -0.000000
      4          8           0        0.063212   -2.889052    0.000000
      5          1           0        0.660710   -3.669118    0.000000
      6          1           0       -0.868466   -3.201272    0.000000
 ---------------------------------------------------------------------

 SCF Done:  E(RHF) =  -33.6528206999     A.U. after   11 cycles
 E2 =    -0.2283211942D+00 EUMP2 =    -0.33881141894087D+02
 CCSD(T)
 CCSD(T)= -0.33898112925D+02

 The electronic state is 1-A'.
 Alpha  occ. eigenvalues --   -1.36194  -1.34825  -0.71834  -0.70451  -0.55988
 Alpha  occ. eigenvalues --   -0.54591  -0.50781  -0.49412
 Alpha virt. eigenvalues --    0.19628   0.21042   0.29881   0.31312   0.79772
 Alpha virt. eigenvalues --    0.81115   0.82685   0.84114   0.85828   0.87244
 Alpha virt. eigenvalues --    1.16753   1.18120   1.21200   1.22611   2.56741

 Mulliken charges:
               1
     1  O   -0.745155
     2  H    0.377117
     3  H    0.368036
     4  O   -0.744921
     5  H    0.374008
     6  H    0.370916
 Sum of Mulliken charges =  -0.00000

 Dipole moment (field-independent basis, Debye):
    X=             -2.9077    Y=             -4.1093    Z=              0.0000  Tot=              5.0340
 Quadrupole moment (field-independent basis, Debye-Ang):
   XX=             -9.7748   YY=             -5.2075   ZZ=            -14.9906
   XY=             -6.0113   XZ=              0.0000   YZ=             -0.0000

 311\MP4DQ=-33.8924762\MP4SDQ=-33.8945011\CCSD=-33.8955546\CCSD(T)=-33.
 Normal termination of Gaussian 16 at Sun Dec 10 07:01:57 2023.
