 Gaussian 16, Revision A.03,
 Gaussian 16:  ES64L-G16RevA.03 25-Dec-2016

 ------------------
 #p CCSD(T)/CEP-31G
 ------------------

 ----------
 H2O_H2O_73
 ----------
 Symbolic Z-matrix:
 Charge =  0 Multiplicity = 1

                         Standard orientation:
 ---------------------------------------------------------------------
 Center     Atomic      Atomic             Coordinates (Angstroms)
 Number     Number       Type             X           Y           Z
 ---------------------------------------------------------------------
      1          8           0        0.016905   -1.123402    0.000000
      2          1           0        0.010689   -0.140820    0.000000
      3          1           0       -0.910553   -1.447943    0.000000
      4          8           0        0.016905    0.960126    0.000000
      5          1           0        0.996976    1.030593    0.000000
      6          1           0       -0.367600    1.864374    0.000000
 ---------------------------------------------------------------------

 SCF Done:  E(RHF) =  -33.5896943555     A.U. after   11 cycles
 E2 =    -0.2266603572D+00 EUMP2 =    -0.33816354712693D+02
 CCSD(T)
 CCSD(T)= -0.33831041457D+02

 The electronic state is 1-A'.
 Alpha  occ. eigenvalues --   -1.46450  -1.26948  -0.83710  -0.74319  -0.59004
 Alpha  occ. eigenvalues --   -0.55663  -0.43813  -0.41030
 Alpha virt. eigenvalues --    0.16779   0.24327   0.30367   0.62212   0.73313
 Alpha virt. eigenvalues --    0.74328   0.90563   0.91716   0.92696   1.04473
 Alpha virt. eigenvalues --    1.11734   1.19723   1.30936   1.45648   3.01245

 Mulliken charges:
               1
     1  O   -0.734221
     2  H    0.240464
     3  H    0.326216
     4  O   -0.770947
     5  H    0.440370
     6  H    0.498119
 Sum of Mulliken charges =  -0.00000

 Dipole moment (field-independent basis, Debye):
    X=             -0.7178    Y=              5.3949    Z=              0.0000  Tot=              5.4425
 Quadrupole moment (field-independent basis, Debye-Ang):
   XX=             -9.5955   YY=            -10.5424   ZZ=            -14.9148
   XY=              3.6634   XZ=              0.0000   YZ=              0.0000

 3\MP4DQ=-33.8248466\MP4SDQ=-33.8272167\CCSD=-33.8278458\CCSD(T)=-33.83
 Normal termination of Gaussian 16 at Sun Dec 10 06:19:28 2023.
