 Gaussian 16, Revision A.03,
 Gaussian 16:  ES64L-G16RevA.03 25-Dec-2016

 ------------------
 #p CCSD(T)/CEP-31G
 ------------------

 -----------
 H2O_H2O_407
 -----------
 Symbolic Z-matrix:
 Charge =  0 Multiplicity = 1

                         Standard orientation:
 ---------------------------------------------------------------------
 Center     Atomic      Atomic             Coordinates (Angstroms)
 Number     Number       Type             X           Y           Z
 ---------------------------------------------------------------------
      1          8           0       -0.073592    1.264926    0.000000
      2          1           0       -0.072198    0.282325    0.000000
      3          1           0        0.855447    1.584911    0.000000
      4          8           0       -0.073592   -1.098084    0.000000
      5          1           0       -0.506935   -1.979968    0.000000
      6          1           0        0.901164   -1.222002    0.000000
 ---------------------------------------------------------------------

 SCF Done:  E(RHF) =  -33.6404474089     A.U. after   11 cycles
 E2 =    -0.2286641872D+00 EUMP2 =    -0.33869111596165D+02
 CCSD(T)
 CCSD(T)= -0.33884802605D+02

 The electronic state is 1-A'.
 Alpha  occ. eigenvalues --   -1.42164  -1.29608  -0.78496  -0.71364  -0.57840
 Alpha  occ. eigenvalues --   -0.56297  -0.48189  -0.43917
 Alpha virt. eigenvalues --    0.16553   0.25462   0.28614   0.55838   0.73608
 Alpha virt. eigenvalues --    0.75237   0.86259   0.89416   0.96668   1.07052
 Alpha virt. eigenvalues --    1.14672   1.22878   1.24072   1.35655   2.78821

 Mulliken charges:
               1
     1  O   -0.739554
     2  H    0.381437
     3  H    0.320595
     4  O   -0.831440
     5  H    0.470682
     6  H    0.398279
 Sum of Mulliken charges =  -0.00000

 Dipole moment (field-independent basis, Debye):
    X=              3.0694    Y=             -4.9224    Z=              0.0000  Tot=              5.8010
 Quadrupole moment (field-independent basis, Debye-Ang):
   XX=            -10.1629   YY=             -9.8191   ZZ=            -14.9825
   XY=              3.2326   XZ=              0.0000   YZ=              0.0000

 11\MP4DQ=-33.8786856\MP4SDQ=-33.8809874\CCSD=-33.8817688\CCSD(T)=-33.8
 Normal termination of Gaussian 16 at Sun Dec 10 06:26:04 2023.
