 Gaussian 16, Revision A.03,
 Gaussian 16:  ES64L-G16RevA.03 25-Dec-2016

 ------------------
 #p CCSD(T)/CEP-31G
 ------------------

 ------------
 H2O_H2O_1314
 ------------
 Symbolic Z-matrix:
 Charge =  0 Multiplicity = 1

                         Standard orientation:
 ---------------------------------------------------------------------
 Center     Atomic      Atomic             Coordinates (Angstroms)
 Number     Number       Type             X           Y           Z
 ---------------------------------------------------------------------
      1          8           0        0.048654    1.631235   -0.000000
      2          1           0        0.046210    0.648637   -0.000000
      3          1           0       -0.880043    1.952212    0.000000
      4          8           0        0.048654   -1.450924   -0.000000
      5          1           0        0.826715   -2.051030   -0.000000
      6          1           0       -0.771349   -1.992310    0.000000
 ---------------------------------------------------------------------

 SCF Done:  E(RHF) =  -33.6621414270     A.U. after   11 cycles
 E2 =    -0.2289738419D+00 EUMP2 =    -0.33891115268887D+02
 CCSD(T)
 CCSD(T)= -0.33907788805D+02

 The electronic state is 1-A'.
 Alpha  occ. eigenvalues --   -1.38270  -1.31915  -0.73890  -0.68047  -0.58821
 Alpha  occ. eigenvalues --   -0.52989  -0.51632  -0.46576
 Alpha virt. eigenvalues --    0.17808   0.25675   0.28375   0.41214   0.76558
 Alpha virt. eigenvalues --    0.79326   0.85077   0.85875   0.92774   0.98975
 Alpha virt. eigenvalues --    1.14996   1.19535   1.21526   1.34214   2.49864

 Mulliken charges:
               1
     1  O   -0.783117
     2  H    0.429585
     3  H    0.352462
     4  O   -0.790372
     5  H    0.400816
     6  H    0.390626
 Sum of Mulliken charges =  -0.00000

 Dipole moment (field-independent basis, Debye):
    X=             -2.1546    Y=             -4.6089    Z=              0.0000  Tot=              5.0877
 Quadrupole moment (field-independent basis, Debye-Ang):
   XX=             -9.4315   YY=             -8.3115   ZZ=            -15.0122
   XY=             -4.4931   XZ=             -0.0000   YZ=              0.0000

 864\MP4DQ=-33.9019912\MP4SDQ=-33.9040877\CCSD=-33.905071\CCSD(T)=-33.9
 Normal termination of Gaussian 16 at Sun Dec 10 06:43:23 2023.
