 Gaussian 16, Revision A.03,
 Gaussian 16:  ES64L-G16RevA.03 25-Dec-2016

 ------------------
 #p CCSD(T)/CEP-31G
 ------------------

 ------------
 H2O_H2O_3995
 ------------
 Symbolic Z-matrix:
 Charge =  0 Multiplicity = 1

                         Standard orientation:
 ---------------------------------------------------------------------
 Center     Atomic      Atomic             Coordinates (Angstroms)
 Number     Number       Type             X           Y           Z
 ---------------------------------------------------------------------
      1          8           0        0.026628    2.694390   -0.000000
      2          1           0        0.024470    1.711791   -0.000000
      3          1           0       -0.902163    3.015096    0.000000
      4          8           0        0.026628   -2.521147   -0.000000
      5          1           0        0.975187   -2.777545   -0.000000
      6          1           0       -0.523540   -3.335285    0.000000
 ---------------------------------------------------------------------

 SCF Done:  E(RHF) =  -33.6538976895     A.U. after   11 cycles
 E2 =    -0.2282784959D+00 EUMP2 =    -0.33882176185491D+02
 CCSD(T)
 CCSD(T)= -0.33899117666D+02

 The electronic state is 1-A'.
 Alpha  occ. eigenvalues --   -1.36359  -1.34556  -0.72000  -0.70191  -0.56214
 Alpha  occ. eigenvalues --   -0.54360  -0.50961  -0.49162
 Alpha virt. eigenvalues --    0.19455   0.21421   0.29767   0.31689   0.79594
 Alpha virt. eigenvalues --    0.81344   0.82367   0.84331   0.85605   0.87445
 Alpha virt. eigenvalues --    1.16632   1.18464   1.21050   1.23101   2.56580

 Mulliken charges:
               1
     1  O   -0.749342
     2  H    0.380389
     3  H    0.368891
     4  O   -0.748580
     5  H    0.374627
     6  H    0.374016
 Sum of Mulliken charges =  -0.00000

 Dipole moment (field-independent basis, Debye):
    X=             -1.2201    Y=             -4.0766    Z=              0.0000  Tot=              4.2553
 Quadrupole moment (field-independent basis, Debye-Ang):
   XX=             -9.5278   YY=             -6.1130   ZZ=            -14.9928
   XY=             -8.5162   XZ=             -0.0000   YZ=              0.0000

 371\MP4DQ=-33.8934868\MP4SDQ=-33.8955105\CCSD=-33.8965606\CCSD(T)=-33.
 Normal termination of Gaussian 16 at Sun Dec 10 06:44:54 2023.
