 Gaussian 16, Revision A.03,
 Gaussian 16:  ES64L-G16RevA.03 25-Dec-2016

 ------------------
 #p CCSD(T)/CEP-31G
 ------------------

 ------------
 H2O_H2O_2216
 ------------
 Symbolic Z-matrix:
 Charge =  0 Multiplicity = 1

                         Standard orientation:
 ---------------------------------------------------------------------
 Center     Atomic      Atomic             Coordinates (Angstroms)
 Number     Number       Type             X           Y           Z
 ---------------------------------------------------------------------
      1          8           0        0.041175    1.989996    0.000000
      2          1           0        0.038860    1.007397    0.000000
      3          1           0       -0.887565    2.310851   -0.000000
      4          8           0        0.041175   -1.810103    0.000000
      5          1           0        0.890973   -2.303406    0.000000
      6          1           0       -0.701064   -2.453988   -0.000000
 ---------------------------------------------------------------------

 SCF Done:  E(RHF) =  -33.6578065210     A.U. after   11 cycles
 E2 =    -0.2284949633D+00 EUMP2 =    -0.33886301484331D+02
 CCSD(T)
 CCSD(T)= -0.33903177902D+02

 The electronic state is 1-A'.
 Alpha  occ. eigenvalues --   -1.37192  -1.33319  -0.72840  -0.68958  -0.57335
 Alpha  occ. eigenvalues --   -0.53173  -0.51847  -0.47970
 Alpha virt. eigenvalues --    0.18282   0.23561   0.29153   0.34250   0.78594
 Alpha virt. eigenvalues --    0.82621   0.83464   0.85996   0.86983   0.88895
 Alpha virt. eigenvalues --    1.15911   1.20090   1.20434   1.31170   2.52907

 Mulliken charges:
               1
     1  O   -0.766233
     2  H    0.401335
     3  H    0.362716
     4  O   -0.760362
     5  H    0.383242
     6  H    0.379302
 Sum of Mulliken charges =  -0.00000

 Dipole moment (field-independent basis, Debye):
    X=             -1.8604    Y=             -4.3938    Z=             -0.0000  Tot=              4.7714
 Quadrupole moment (field-independent basis, Debye-Ang):
   XX=             -9.4017   YY=             -7.2417   ZZ=            -15.0005
   XY=             -5.6054   XZ=              0.0000   YZ=             -0.0000

 738\MP4DQ=-33.897489\MP4SDQ=-33.8995543\CCSD=-33.9005806\CCSD(T)=-33.9
 Normal termination of Gaussian 16 at Sun Dec 10 07:01:06 2023.
