 Gaussian 16, Revision A.03,
 Gaussian 16:  ES64L-G16RevA.03 25-Dec-2016

 ------------------
 #p CCSD(T)/CEP-31G
 ------------------

 -----------
 H2O_H2O_409
 -----------
 Symbolic Z-matrix:
 Charge =  0 Multiplicity = 1

                         Standard orientation:
 ---------------------------------------------------------------------
 Center     Atomic      Atomic             Coordinates (Angstroms)
 Number     Number       Type             X           Y           Z
 ---------------------------------------------------------------------
      1          8           0        0.066839    1.268263   -0.000000
      2          1           0        0.064959    0.285664   -0.000000
      3          1           0       -0.862042    1.588708   -0.000000
      4          8           0        0.066839   -1.095281    0.000000
      5          1           0        0.611179   -1.913329    0.000000
      6          1           0       -0.883527   -1.344900    0.000000
 ---------------------------------------------------------------------

 SCF Done:  E(RHF) =  -33.6435337189     A.U. after   11 cycles
 E2 =    -0.2287507640D+00 EUMP2 =    -0.33872284482883D+02
 CCSD(T)
 CCSD(T)= -0.33887823026D+02

 The electronic state is 1-A'.
 Alpha  occ. eigenvalues --   -1.42049  -1.29230  -0.77850  -0.72064  -0.57653
 Alpha  occ. eigenvalues --   -0.56310  -0.47760  -0.43554
 Alpha virt. eigenvalues --    0.16655   0.25853   0.28653   0.56293   0.73662
 Alpha virt. eigenvalues --    0.74667   0.86057   0.89632   0.96187   1.05926
 Alpha virt. eigenvalues --    1.14395   1.19737   1.24321   1.35252   2.77979

 Mulliken charges:
               1
     1  O   -0.751478
     2  H    0.396550
     3  H    0.320797
     4  O   -0.834697
     5  H    0.463351
     6  H    0.405476
 Sum of Mulliken charges =  -0.00000

 Dipole moment (field-independent basis, Debye):
    X=             -2.7768    Y=             -5.0619    Z=              0.0000  Tot=              5.7735
 Quadrupole moment (field-independent basis, Debye-Ang):
   XX=             -9.8563   YY=             -9.8702   ZZ=            -14.9889
   XY=             -3.4137   XZ=              0.0000   YZ=             -0.0000

 59\MP4DQ=-33.8817395\MP4SDQ=-33.8840095\CCSD=-33.8847736\CCSD(T)=-33.8
 Normal termination of Gaussian 16 at Sun Dec 10 06:26:07 2023.
