 Gaussian 16, Revision A.03,
 Gaussian 16:  ES64L-G16RevA.03 25-Dec-2016

 ------------------
 #p CCSD(T)/CEP-31G
 ------------------

 ------------
 H2O_H2O_2411
 ------------
 Symbolic Z-matrix:
 Charge =  0 Multiplicity = 1

                         Standard orientation:
 ---------------------------------------------------------------------
 Center     Atomic      Atomic             Coordinates (Angstroms)
 Number     Number       Type             X           Y           Z
 ---------------------------------------------------------------------
      1          8           0        0.059657    2.068426   -0.000000
      2          1           0        0.058229    1.085826   -0.000000
      3          1           0       -0.869372    2.388443   -0.000000
      4          8           0        0.059657   -1.891003    0.000000
      5          1           0        0.706457   -2.630703    0.000000
      6          1           0       -0.849826   -2.262953    0.000000
 ---------------------------------------------------------------------

 SCF Done:  E(RHF) =  -33.6563388739     A.U. after   11 cycles
 E2 =    -0.2284675599D+00 EUMP2 =    -0.33884806433829D+02
 CCSD(T)
 CCSD(T)= -0.33901711849D+02

 The electronic state is 1-A'.
 Alpha  occ. eigenvalues --   -1.37074  -1.33624  -0.72730  -0.69233  -0.57104
 Alpha  occ. eigenvalues --   -0.53444  -0.51707  -0.48250
 Alpha virt. eigenvalues --    0.18281   0.23087   0.29175   0.33442   0.78805
 Alpha virt. eigenvalues --    0.82291   0.83865   0.85180   0.86078   0.88510
 Alpha virt. eigenvalues --    1.15971   1.19822   1.20442   1.29911   2.54005

 Mulliken charges:
               1
     1  O   -0.759990
     2  H    0.396431
     3  H    0.361725
     4  O   -0.755838
     5  H    0.382838
     6  H    0.374834
 Sum of Mulliken charges =   0.00000

 Dipole moment (field-independent basis, Debye):
    X=             -2.7066    Y=             -4.3089    Z=              0.0000  Tot=              5.0884
 Quadrupole moment (field-independent basis, Debye-Ang):
   XX=             -9.6722   YY=             -7.1616   ZZ=            -14.9974
   XY=             -4.8316   XZ=              0.0000   YZ=             -0.0000

 2827\MP4DQ=-33.8960335\MP4SDQ=-33.8980936\CCSD=-33.899124\CCSD(T)=-33.
 Normal termination of Gaussian 16 at Sun Dec 10 07:05:49 2023.
