 Gaussian 16, Revision A.03,
 Gaussian 16:  ES64L-G16RevA.03 25-Dec-2016

 ------------------
 #p CCSD(T)/CEP-31G
 ------------------

 -----------
 H2O_H2O_606
 -----------
 Symbolic Z-matrix:
 Charge =  0 Multiplicity = 1

                         Standard orientation:
 ---------------------------------------------------------------------
 Center     Atomic      Atomic             Coordinates (Angstroms)
 Number     Number       Type             X           Y           Z
 ---------------------------------------------------------------------
      1          8           0        0.076798   -1.342685    0.000000
      2          1           0        0.075709   -0.360084    0.000000
      3          1           0       -0.852341   -1.662382    0.000000
      4          8           0        0.076798    1.179552    0.000000
      5          1           0        0.451818    2.087774    0.000000
      6          1           0       -0.903957    1.239758    0.000000
 ---------------------------------------------------------------------

 SCF Done:  E(RHF) =  -33.6500520748     A.U. after   11 cycles
 E2 =    -0.2288631182D+00 EUMP2 =    -0.33878915192994D+02
 CCSD(T)
 CCSD(T)= -0.33895115598D+02

 The electronic state is 1-A'.
 Alpha  occ. eigenvalues --   -1.40790  -1.30735  -0.77100  -0.69524  -0.58881
 Alpha  occ. eigenvalues --   -0.55174  -0.49772  -0.45158
 Alpha virt. eigenvalues --    0.16746   0.25900   0.27877   0.51359   0.74054
 Alpha virt. eigenvalues --    0.76362   0.85505   0.88138   0.95887   1.08457
 Alpha virt. eigenvalues --    1.15585   1.22897   1.25238   1.36243   2.66044

 Mulliken charges:
               1
     1  O   -0.746624
     2  H    0.395934
     3  H    0.330213
     4  O   -0.823887
     5  H    0.456077
     6  H    0.388286
 Sum of Mulliken charges =  -0.00000

 Dipole moment (field-independent basis, Debye):
    X=             -3.2746    Y=              4.6234    Z=              0.0000  Tot=              5.6655
 Quadrupole moment (field-independent basis, Debye-Ang):
   XX=            -10.3436   YY=             -9.4497   ZZ=            -14.9968
   XY=              3.2040   XZ=              0.0000   YZ=              0.0000

 57\MP4DQ=-33.8890681\MP4SDQ=-33.8913273\CCSD=-33.8921916\CCSD(T)=-33.8
 Normal termination of Gaussian 16 at Sun Dec 10 06:29:56 2023.
