 Gaussian 16, Revision A.03,
 Gaussian 16:  ES64L-G16RevA.03 25-Dec-2016

 ------------------
 #p CCSD(T)/CEP-31G
 ------------------

 -----------
 H2O_H2O_375
 -----------
 Symbolic Z-matrix:
 Charge =  0 Multiplicity = 1

                         Standard orientation:
 ---------------------------------------------------------------------
 Center     Atomic      Atomic             Coordinates (Angstroms)
 Number     Number       Type             X           Y           Z
 ---------------------------------------------------------------------
      1          8           0        0.092949   -1.236450    0.000000
      2          1           0        0.092949   -0.253849    0.000000
      3          1           0       -0.836544   -1.555117    0.000000
      4          8           0        0.092949    1.103663    0.000000
      5          1           0        0.092950    2.086266    0.000000
      6          1           0       -0.836544    0.784997    0.000000
 ---------------------------------------------------------------------

 SCF Done:  E(RHF) =  -33.6175775995     A.U. after   11 cycles
 E2 =    -0.2291388289D+00 EUMP2 =    -0.33846716428322D+02
 CCSD(T)
 CCSD(T)= -0.33862900376D+02

 The electronic state is 1-A'.
 Alpha  occ. eigenvalues --   -1.43219  -1.31484  -0.81448  -0.68812  -0.58906
 Alpha  occ. eigenvalues --   -0.56469  -0.50242  -0.45714
 Alpha virt. eigenvalues --    0.16254   0.24054   0.28669   0.54375   0.73160
 Alpha virt. eigenvalues --    0.77228   0.86797   0.88429   0.94270   1.11383
 Alpha virt. eigenvalues --    1.12551   1.24501   1.28218   1.46115   2.71812

 Mulliken charges:
               1
     1  O   -0.680639
     2  H    0.278077
     3  H    0.323319
     4  O   -0.750947
     5  H    0.461753
     6  H    0.368438
 Sum of Mulliken charges =  -0.00000

 Dipole moment (field-independent basis, Debye):
    X=             -3.9715    Y=              4.1037    Z=              0.0000  Tot=              5.7108
 Quadrupole moment (field-independent basis, Debye-Ang):
   XX=            -11.3711   YY=            -10.1502   ZZ=            -14.9440
   XY=              2.1342   XZ=              0.0000   YZ=              0.0000

 89\MP4DQ=-33.8565708\MP4SDQ=-33.8590459\CCSD=-33.8598022\CCSD(T)=-33.8
 Normal termination of Gaussian 16 at Sun Dec 10 06:25:27 2023.
