 Gaussian 16, Revision A.03,
 Gaussian 16:  ES64L-G16RevA.03 25-Dec-2016

 ------------------
 #p CCSD(T)/CEP-31G
 ------------------

 ------------
 H2O_H2O_4555
 ------------
 Symbolic Z-matrix:
 Charge =  0 Multiplicity = 1

                         Standard orientation:
 ---------------------------------------------------------------------
 Center     Atomic      Atomic             Coordinates (Angstroms)
 Number     Number       Type             X           Y           Z
 ---------------------------------------------------------------------
      1          8           0        0.079844    2.916043    0.000000
      2          1           0        0.079452    1.933442    0.000000
      3          1           0       -0.849522    3.235080    0.000000
      4          8           0        0.079844   -2.756965   -0.000000
      5          1           0        0.395320   -3.687547   -0.000000
      6          1           0       -0.902752   -2.753594   -0.000000
 ---------------------------------------------------------------------

 SCF Done:  E(RHF) =  -33.6525374379     A.U. after   11 cycles
 E2 =    -0.2283353200D+00 EUMP2 =    -0.33880872757889D+02
 CCSD(T)
 CCSD(T)= -0.33897852412D+02

 The electronic state is 1-A'.
 Alpha  occ. eigenvalues --   -1.36274  -1.34921  -0.71918  -0.70542  -0.56054
 Alpha  occ. eigenvalues --   -0.54674  -0.50855  -0.49501
 Alpha virt. eigenvalues --    0.19508   0.20949   0.29783   0.31202   0.79704
 Alpha virt. eigenvalues --    0.81030   0.82628   0.84039   0.85734   0.87199
 Alpha virt. eigenvalues --    1.16661   1.18014   1.21107   1.22527   2.56636

 Mulliken charges:
               1
     1  O   -0.744094
     2  H    0.376760
     3  H    0.367327
     4  O   -0.744161
     5  H    0.374581
     6  H    0.369586
 Sum of Mulliken charges =  -0.00000

 Dipole moment (field-independent basis, Debye):
    X=             -3.6716    Y=             -3.7323    Z=             -0.0000  Tot=              5.2355
 Quadrupole moment (field-independent basis, Debye-Ang):
   XX=            -10.4745   YY=             -7.0195   ZZ=            -14.9898
   XY=             -4.0576   XZ=             -0.0000   YZ=              0.0000

 4693\MP4DQ=-33.892213\MP4SDQ=-33.8942388\CCSD=-33.8952926\CCSD(T)=-33.
 Normal termination of Gaussian 16 at Sun Dec 10 06:54:59 2023.
