 Gaussian 16, Revision A.03,
 Gaussian 16:  ES64L-G16RevA.03 25-Dec-2016

 ------------------
 #p CCSD(T)/CEP-31G
 ------------------

 ------------
 H2O_H2O_1907
 ------------
 Symbolic Z-matrix:
 Charge =  0 Multiplicity = 1

                         Standard orientation:
 ---------------------------------------------------------------------
 Center     Atomic      Atomic             Coordinates (Angstroms)
 Number     Number       Type             X           Y           Z
 ---------------------------------------------------------------------
      1          8           0        0.073553    1.863276    0.000000
      2          1           0        0.072627    0.880675    0.000000
      3          1           0       -0.855640    2.182818    0.000000
      4          8           0        0.073553   -1.696364    0.000000
      5          1           0        0.507316   -2.578042    0.000000
      6          1           0       -0.901144   -1.820747    0.000000
 ---------------------------------------------------------------------

 SCF Done:  E(RHF) =  -33.6567261761     A.U. after   11 cycles
 E2 =    -0.2287016010D+00 EUMP2 =    -0.33885427777073D+02
 CCSD(T)
 CCSD(T)= -0.33902368234D+02

 The electronic state is 1-A'.
 Alpha  occ. eigenvalues --   -1.37522  -1.33425  -0.73223  -0.69030  -0.57627
 Alpha  occ. eigenvalues --   -0.53193  -0.52148  -0.48037
 Alpha virt. eigenvalues --    0.17650   0.23914   0.28770   0.35232   0.78078
 Alpha virt. eigenvalues --    0.82458   0.82839   0.85285   0.89150   0.93474
 Alpha virt. eigenvalues --    1.15394   1.19498   1.20584   1.35265   2.51940

 Mulliken charges:
               1
     1  O   -0.762982
     2  H    0.403589
     3  H    0.357079
     4  O   -0.761497
     5  H    0.390364
     6  H    0.373447
 Sum of Mulliken charges =  -0.00000

 Dipole moment (field-independent basis, Debye):
    X=             -3.3186    Y=             -4.1360    Z=              0.0000  Tot=              5.3028
 Quadrupole moment (field-independent basis, Debye-Ang):
   XX=            -10.1804   YY=             -8.0301   ZZ=            -14.9975
   XY=             -3.8032   XZ=              0.0000   YZ=              0.0000

 MP4DQ=-33.8966225\MP4SDQ=-33.898716\CCSD=-33.8997396\CCSD(T)=-33.90236
 Normal termination of Gaussian 16 at Sun Dec 10 06:54:53 2023.
