 Gaussian 16, Revision A.03,
 Gaussian 16:  ES64L-G16RevA.03 25-Dec-2016

 ------------------
 #p CCSD(T)/CEP-31G
 ------------------

 -----------
 H2O_H2O_530
 -----------
 Symbolic Z-matrix:
 Charge =  0 Multiplicity = 1

                         Standard orientation:
 ---------------------------------------------------------------------
 Center     Atomic      Atomic             Coordinates (Angstroms)
 Number     Number       Type             X           Y           Z
 ---------------------------------------------------------------------
      1          8           0        0.079885   -1.310521    0.000000
      2          1           0        0.078982   -0.327920    0.000000
      3          1           0       -0.849315   -1.630041    0.000000
      4          8           0        0.079885    1.151527    0.000000
      5          1           0        0.394877    2.082271    0.000000
      6          1           0       -0.902709    1.147645    0.000000
 ---------------------------------------------------------------------

 SCF Done:  E(RHF) =  -33.6447898815     A.U. after   11 cycles
 E2 =    -0.2287667751D+00 EUMP2 =    -0.33873556656587D+02
 CCSD(T)
 CCSD(T)= -0.33889697487D+02

 The electronic state is 1-A'.
 Alpha  occ. eigenvalues --   -1.41333  -1.30654  -0.77967  -0.69728  -0.58708
 Alpha  occ. eigenvalues --   -0.55555  -0.49576  -0.45027
 Alpha virt. eigenvalues --    0.16595   0.25481   0.28117   0.52663   0.73811
 Alpha virt. eigenvalues --    0.76333   0.85764   0.88435   0.96011   1.08827
 Alpha virt. eigenvalues --    1.15019   1.23310   1.27357   1.36936   2.69975

 Mulliken charges:
               1
     1  O   -0.734737
     2  H    0.377458
     3  H    0.327240
     4  O   -0.820576
     5  H    0.463486
     6  H    0.387129
 Sum of Mulliken charges =  -0.00000

 Dipole moment (field-independent basis, Debye):
    X=             -3.3955    Y=              4.5985    Z=              0.0000  Tot=              5.7162
 Quadrupole moment (field-independent basis, Debye-Ang):
   XX=            -10.5144   YY=             -9.5847   ZZ=            -14.9880
   XY=              3.0356   XZ=              0.0000   YZ=              0.0000

 38\MP4DQ=-33.8835985\MP4SDQ=-33.8858972\CCSD=-33.8867414\CCSD(T)=-33.8
 Normal termination of Gaussian 16 at Sun Dec 10 06:28:30 2023.
