 Gaussian 16, Revision A.03,
 Gaussian 16:  ES64L-G16RevA.03 25-Dec-2016

 ------------------
 #p CCSD(T)/CEP-31G
 ------------------

 ------------
 H2O_H2O_1467
 ------------
 Symbolic Z-matrix:
 Charge =  0 Multiplicity = 1

                         Standard orientation:
 ---------------------------------------------------------------------
 Center     Atomic      Atomic             Coordinates (Angstroms)
 Number     Number       Type             X           Y           Z
 ---------------------------------------------------------------------
      1          8           0        0.037525    1.690301    0.000000
      2          1           0        0.034582    0.707704    0.000000
      3          1           0       -0.891010    2.011750    0.000000
      4          8           0        0.037525   -1.511402   -0.000000
      5          1           0        0.917487   -1.948634   -0.000000
      6          1           0       -0.661454   -2.202007   -0.000000
 ---------------------------------------------------------------------

 SCF Done:  E(RHF) =  -33.6617382411     A.U. after   11 cycles
 E2 =    -0.2288340274D+00 EUMP2 =    -0.33890572268517D+02
 CCSD(T)
 CCSD(T)= -0.33907316092D+02

 The electronic state is 1-A'.
 Alpha  occ. eigenvalues --   -1.37994  -1.32228  -0.73634  -0.68152  -0.58533
 Alpha  occ. eigenvalues --   -0.52704  -0.52015  -0.46906
 Alpha virt. eigenvalues --    0.17931   0.25318   0.28585   0.39490   0.77034
 Alpha virt. eigenvalues --    0.80213   0.84473   0.86286   0.90946   0.98258
 Alpha virt. eigenvalues --    1.15229   1.19303   1.21511   1.34223   2.49769

 Mulliken charges:
               1
     1  O   -0.782320
     2  H    0.423372
     3  H    0.357216
     4  O   -0.783727
     5  H    0.393116
     6  H    0.392343
 Sum of Mulliken charges =   0.00000

 Dipole moment (field-independent basis, Debye):
    X=             -1.6746    Y=             -4.5254    Z=             -0.0000  Tot=              4.8253
 Quadrupole moment (field-independent basis, Debye-Ang):
   XX=             -9.3843   YY=             -8.1238   ZZ=            -15.0101
   XY=             -4.9810   XZ=             -0.0000   YZ=              0.0000

 241\MP4DQ=-33.9015435\MP4SDQ=-33.9036332\CCSD=-33.904632\CCSD(T)=-33.9
 Normal termination of Gaussian 16 at Sun Dec 10 06:46:25 2023.
