 Gaussian 16, Revision A.03,
 Gaussian 16:  ES64L-G16RevA.03 25-Dec-2016

 ------------------
 #p CCSD(T)/CEP-31G
 ------------------

 ------------
 H2O_H2O_2360
 ------------
 Symbolic Z-matrix:
 Charge =  0 Multiplicity = 1

                         Standard orientation:
 ---------------------------------------------------------------------
 Center     Atomic      Atomic             Coordinates (Angstroms)
 Number     Number       Type             X           Y           Z
 ---------------------------------------------------------------------
      1          8           0        0.063252    2.047429   -0.000000
      2          1           0        0.061965    1.064828   -0.000000
      3          1           0       -0.865823    2.367312   -0.000000
      4          8           0        0.063252   -1.871944    0.000000
      5          1           0        0.660401   -2.652277    0.000000
      6          1           0       -0.868566   -2.183748    0.000000
 ---------------------------------------------------------------------

 SCF Done:  E(RHF) =  -33.6562613035     A.U. after   11 cycles
 E2 =    -0.2284913508D+00 EUMP2 =    -0.33884752654307D+02
 CCSD(T)
 CCSD(T)= -0.33901664831D+02

 The electronic state is 1-A'.
 Alpha  occ. eigenvalues --   -1.37115  -1.33632  -0.72776  -0.69237  -0.57144
 Alpha  occ. eigenvalues --   -0.53444  -0.51745  -0.48254
 Alpha virt. eigenvalues --    0.18184   0.23141   0.29127   0.33539   0.78752
 Alpha virt. eigenvalues --    0.82307   0.83692   0.85211   0.86646   0.88553
 Alpha virt. eigenvalues --    1.15909   1.19828   1.20406   1.30516   2.53844

 Mulliken charges:
               1
     1  O   -0.759836
     2  H    0.396803
     3  H    0.361151
     4  O   -0.755915
     5  H    0.383465
     6  H    0.374331
 Sum of Mulliken charges =  -0.00000

 Dipole moment (field-independent basis, Debye):
    X=             -2.8690    Y=             -4.2693    Z=             -0.0000  Tot=              5.1438
 Quadrupole moment (field-independent basis, Debye-Ang):
   XX=             -9.7779   YY=             -7.2965   ZZ=            -14.9971
   XY=             -4.6003   XZ=              0.0000   YZ=             -0.0000

 308\MP4DQ=-33.89598\MP4SDQ=-33.8980435\CCSD=-33.8990735\CCSD(T)=-33.90
 Normal termination of Gaussian 16 at Sun Dec 10 07:04:52 2023.
