 Gaussian 16, Revision A.03,
 Gaussian 16:  ES64L-G16RevA.03 25-Dec-2016

 ------------------
 #p CCSD(T)/CEP-31G
 ------------------

 ------------
 H2O_H2O_1809
 ------------
 Symbolic Z-matrix:
 Charge =  0 Multiplicity = 1

                         Standard orientation:
 ---------------------------------------------------------------------
 Center     Atomic      Atomic             Coordinates (Angstroms)
 Number     Number       Type             X           Y           Z
 ---------------------------------------------------------------------
      1          8           0        0.066786    1.826732   -0.000000
      2          1           0        0.065509    0.844131   -0.000000
      3          1           0       -0.862292    2.146606    0.000000
      4          8           0        0.066786   -1.653668   -0.000000
      5          1           0        0.611628   -2.471380   -0.000000
      6          1           0       -0.883427   -1.903870    0.000000
 ---------------------------------------------------------------------

 SCF Done:  E(RHF) =  -33.6579572875     A.U. after   11 cycles
 E2 =    -0.2287269835D+00 EUMP2 =    -0.33886684270980D+02
 CCSD(T)
 CCSD(T)= -0.33903584473D+02

 The electronic state is 1-A'.
 Alpha  occ. eigenvalues --   -1.37608  -1.33100  -0.73291  -0.68746  -0.57817
 Alpha  occ. eigenvalues --   -0.52881  -0.52255  -0.47728
 Alpha virt. eigenvalues --    0.17805   0.24226   0.28748   0.36112   0.77891
 Alpha virt. eigenvalues --    0.82164   0.83216   0.85510   0.89695   0.94172
 Alpha virt. eigenvalues --    1.15375   1.19702   1.20597   1.34807   2.51071

 Mulliken charges:
               1
     1  O   -0.767793
     2  H    0.409136
     3  H    0.356447
     4  O   -0.766035
     5  H    0.392023
     6  H    0.376222
 Sum of Mulliken charges =  -0.00000

 Dipole moment (field-independent basis, Debye):
    X=             -3.0031    Y=             -4.3058    Z=              0.0000  Tot=              5.2496
 Quadrupole moment (field-independent basis, Debye-Ang):
   XX=             -9.8986   YY=             -7.8975   ZZ=            -15.0005
   XY=             -4.1294   XZ=             -0.0000   YZ=              0.0000

 1013\MP4DQ=-33.897835\MP4SDQ=-33.8999268\CCSD=-33.9009471\CCSD(T)=-33.
 Normal termination of Gaussian 16 at Sun Dec 10 06:53:01 2023.
