 Gaussian 16, Revision A.03,
 Gaussian 16:  ES64L-G16RevA.03 25-Dec-2016

 ------------------
 #p CCSD(T)/CEP-31G
 ------------------

 ------------
 H2O_H2O_4163
 ------------
 Symbolic Z-matrix:
 Charge =  0 Multiplicity = 1

                         Standard orientation:
 ---------------------------------------------------------------------
 Center     Atomic      Atomic             Coordinates (Angstroms)
 Number     Number       Type             X           Y           Z
 ---------------------------------------------------------------------
      1          8           0        0.052277    2.767813    0.000000
      2          1           0        0.050988    1.785213    0.000000
      3          1           0       -0.876797    3.087699    0.000000
      4          8           0        0.052277   -2.587898   -0.000000
      5          1           0        0.790186   -3.236740   -0.000000
      6          1           0       -0.800807   -3.075498   -0.000000
 ---------------------------------------------------------------------

 SCF Done:  E(RHF) =  -33.6535035878     A.U. after   11 cycles
 E2 =    -0.2282972439D+00 EUMP2 =    -0.33881800831716D+02
 CCSD(T)
 CCSD(T)= -0.33898752305D+02

 The electronic state is 1-A'.
 Alpha  occ. eigenvalues --   -1.36331  -1.34561  -0.71972  -0.70187  -0.56165
 Alpha  occ. eigenvalues --   -0.54348  -0.50927  -0.49159
 Alpha virt. eigenvalues --    0.19496   0.21378   0.29782   0.31652   0.79629
 Alpha virt. eigenvalues --    0.81353   0.82439   0.84356   0.85655   0.87480
 Alpha virt. eigenvalues --    1.16645   1.18425   1.21084   1.22987   2.56606

 Mulliken charges:
               1
     1  O   -0.747820
     2  H    0.380305
     3  H    0.367476
     4  O   -0.747200
     5  H    0.375139
     6  H    0.372100
 Sum of Mulliken charges =  -0.00000

 Dipole moment (field-independent basis, Debye):
    X=             -2.3985    Y=             -4.2306    Z=             -0.0000  Tot=              4.8632
 Quadrupole moment (field-independent basis, Debye-Ang):
   XX=             -9.5145   YY=             -5.4542   ZZ=            -14.9921
   XY=             -6.5496   XZ=             -0.0000   YZ=              0.0000

 3716\MP4DQ=-33.8931196\MP4SDQ=-33.8951437\CCSD=-33.8961948\CCSD(T)=-33
 Normal termination of Gaussian 16 at Sun Dec 10 06:47:56 2023.
