 Gaussian 16, Revision A.03,
 Gaussian 16:  ES64L-G16RevA.03 25-Dec-2016

 ------------------
 #p CCSD(T)/CEP-31G
 ------------------

 ----------
 H2O_H2O_38
 ----------
 Symbolic Z-matrix:
 Charge =  0 Multiplicity = 1

                         Standard orientation:
 ---------------------------------------------------------------------
 Center     Atomic      Atomic             Coordinates (Angstroms)
 Number     Number       Type             X           Y           Z
 ---------------------------------------------------------------------
      1          8           0        0.052465    1.122339   -0.000000
      2          1           0        0.049123    0.139743   -0.000000
      3          1           0       -0.875939    1.444165   -0.000000
      4          8           0        0.052465   -0.942642    0.000000
      5          1           0        0.789017   -1.593025    0.000000
      6          1           0       -0.801636   -1.428459    0.000000
 ---------------------------------------------------------------------

 SCF Done:  E(RHF) =  -33.5884358854     A.U. after   11 cycles
 E2 =    -0.2273898216D+00 EUMP2 =    -0.33815825706977D+02
 CCSD(T)
 CCSD(T)= -0.33830246800D+02

 The electronic state is 1-A'.
 Alpha  occ. eigenvalues --   -1.46709  -1.26371  -0.81239  -0.79175  -0.59565
 Alpha  occ. eigenvalues --   -0.53832  -0.42920  -0.40175
 Alpha virt. eigenvalues --    0.16016   0.24672   0.30665   0.62451   0.73161
 Alpha virt. eigenvalues --    0.73597   0.85222   0.91876   0.92274   1.08727
 Alpha virt. eigenvalues --    1.12439   1.15988   1.30671   1.36034   3.00055

 Mulliken charges:
               1
     1  O   -0.739254
     2  H    0.280279
     3  H    0.297378
     4  O   -0.751300
     5  H    0.469877
     6  H    0.443021
 Sum of Mulliken charges =  -0.00000

 Dipole moment (field-independent basis, Debye):
    X=             -2.0920    Y=             -5.8490    Z=              0.0000  Tot=              6.2119
 Quadrupole moment (field-independent basis, Debye-Ang):
   XX=             -9.3753   YY=            -10.8714   ZZ=            -14.9107
   XY=             -3.2252   XZ=              0.0000   YZ=             -0.0000

 79\MP4DQ=-33.8239916\MP4SDQ=-33.8264007\CCSD=-33.8269572\CCSD(T)=-33.8
 Normal termination of Gaussian 16 at Sun Dec 10 06:18:46 2023.
