 Gaussian 16, Revision A.03,
 Gaussian 16:  ES64L-G16RevA.03 25-Dec-2016

 ------------------
 #p CCSD(T)/CEP-31G
 ------------------

 -----------
 H2O_H2O_232
 -----------
 Symbolic Z-matrix:
 Charge =  0 Multiplicity = 1

                         Standard orientation:
 ---------------------------------------------------------------------
 Center     Atomic      Atomic             Coordinates (Angstroms)
 Number     Number       Type             X           Y           Z
 ---------------------------------------------------------------------
      1          8           0        0.073600   -1.195116    0.000000
      2          1           0        0.072118   -0.212515    0.000000
      3          1           0       -0.855411   -1.515184    0.000000
      4          8           0        0.073600    1.028287    0.000000
      5          1           0        0.506863    1.910211    0.000000
      6          1           0       -0.901167    1.152118    0.000000
 ---------------------------------------------------------------------

 SCF Done:  E(RHF) =  -33.6212079027     A.U. after   11 cycles
 E2 =    -0.2283286154D+00 EUMP2 =    -0.33849536518113D+02
 CCSD(T)
 CCSD(T)= -0.33864778966D+02

 The electronic state is 1-A'.
 Alpha  occ. eigenvalues --   -1.44009  -1.28630  -0.80593  -0.73301  -0.57590
 Alpha  occ. eigenvalues --   -0.56467  -0.46614  -0.42772
 Alpha virt. eigenvalues --    0.16264   0.24689   0.29443   0.59336   0.73315
 Alpha virt. eigenvalues --    0.74653   0.87603   0.90445   0.96205   1.07267
 Alpha virt. eigenvalues --    1.12798   1.22232   1.25451   1.36150   2.92550

 Mulliken charges:
               1
     1  O   -0.725712
     2  H    0.342236
     3  H    0.309780
     4  O   -0.817341
     5  H    0.485320
     6  H    0.405717
 Sum of Mulliken charges =  -0.00000

 Dipole moment (field-independent basis, Debye):
    X=             -3.0103    Y=              5.1672    Z=              0.0000  Tot=              5.9801
 Quadrupole moment (field-independent basis, Debye-Ang):
   XX=            -10.1420   YY=            -10.1979   ZZ=            -14.9518
   XY=              3.1269   XZ=              0.0000   YZ=              0.0000

 538\MP4DQ=-33.8585615\MP4SDQ=-33.8609373\CCSD=-33.8616378\CCSD(T)=-33.
 Normal termination of Gaussian 16 at Sun Dec 10 06:22:37 2023.
