 Gaussian 16, Revision A.03,
 Gaussian 16:  ES64L-G16RevA.03 25-Dec-2016

 ------------------
 #p CCSD(T)/CEP-31G
 ------------------

 ------------
 H2O_H2O_4876
 ------------
 Symbolic Z-matrix:
 Charge =  0 Multiplicity = 1

                         Standard orientation:
 ---------------------------------------------------------------------
 Center     Atomic      Atomic             Coordinates (Angstroms)
 Number     Number       Type             X           Y           Z
 ---------------------------------------------------------------------
      1          8           0        0.090683   -3.034617    0.000000
      2          1           0        0.090618   -2.052015    0.000000
      3          1           0       -0.838789   -3.353344    0.000000
      4          8           0        0.090683    2.895904    0.000000
      5          1           0        0.154885    3.876407    0.000000
      6          1           0       -0.857644    2.638649    0.000000
 ---------------------------------------------------------------------

 SCF Done:  E(RHF) =  -33.6520413531     A.U. after   11 cycles
 E2 =    -0.2283582620D+00 EUMP2 =    -0.33880399615189D+02
 CCSD(T)
 CCSD(T)= -0.33897394176D+02

 The electronic state is 1-A'.
 Alpha  occ. eigenvalues --   -1.36231  -1.35179  -0.71875  -0.70801  -0.55984
 Alpha  occ. eigenvalues --   -0.54916  -0.50805  -0.49752
 Alpha virt. eigenvalues --    0.19521   0.20651   0.29796   0.30885   0.79756
 Alpha virt. eigenvalues --    0.80791   0.82735   0.83809   0.85807   0.86966
 Alpha virt. eigenvalues --    1.16680   1.17734   1.21135   1.22219   2.56648

 Mulliken charges:
               1
     1  O   -0.742159
     2  H    0.374348
     3  H    0.367810
     4  O   -0.742386
     5  H    0.373926
     6  H    0.368462
 Sum of Mulliken charges =   0.00000

 Dipole moment (field-independent basis, Debye):
    X=             -4.1754    Y=              3.2494    Z=              0.0000  Tot=              5.2908
 Quadrupole moment (field-independent basis, Debye-Ang):
   XX=            -11.1239   YY=             -8.9973   ZZ=            -14.9886
   XY=              2.6650   XZ=              0.0000   YZ=              0.0000

 0095\MP4DQ=-33.8917509\MP4SDQ=-33.8937781\CCSD=-33.894833\CCSD(T)=-33.
 Normal termination of Gaussian 16 at Sun Dec 10 07:01:03 2023.
