 Gaussian 16, Revision A.03,
 Gaussian 16:  ES64L-G16RevA.03 25-Dec-2016

 ------------------
 #p CCSD(T)/CEP-31G
 ------------------

 -----------
 H2O_H2O_713
 -----------
 Symbolic Z-matrix:
 Charge =  0 Multiplicity = 1

                         Standard orientation:
 ---------------------------------------------------------------------
 Center     Atomic      Atomic             Coordinates (Angstroms)
 Number     Number       Type             X           Y           Z
 ---------------------------------------------------------------------
      1          8           0        0.052402    1.391617   -0.000000
      2          1           0        0.049751    0.409019   -0.000000
      3          1           0       -0.876228    1.712789   -0.000000
      4          8           0        0.052402   -1.211846    0.000000
      5          1           0        0.789410   -1.861711    0.000000
      6          1           0       -0.801357   -1.698263    0.000000
 ---------------------------------------------------------------------

 SCF Done:  E(RHF) =  -33.6598328142     A.U. after   11 cycles
 E2 =    -0.2291105088D+00 EUMP2 =    -0.33888943322922D+02
 CCSD(T)
 CCSD(T)= -0.33904963652D+02

 The electronic state is 1-A'.
 Alpha  occ. eigenvalues --   -1.40050  -1.30149  -0.75460  -0.69666  -0.58988
 Alpha  occ. eigenvalues --   -0.54738  -0.49321  -0.44692
 Alpha virt. eigenvalues --    0.17251   0.27186   0.27612   0.50727   0.74510
 Alpha virt. eigenvalues --    0.75299   0.85232   0.88111   0.97195   1.00249
 Alpha virt. eigenvalues --    1.14723   1.18413   1.23373   1.36785   2.61038

 Mulliken charges:
               1
     1  O   -0.778965
     2  H    0.433589
     3  H    0.336876
     4  O   -0.827310
     5  H    0.428556
     6  H    0.407253
 Sum of Mulliken charges =   0.00000

 Dipole moment (field-independent basis, Debye):
    X=             -2.2448    Y=             -4.9122    Z=              0.0000  Tot=              5.4008
 Quadrupole moment (field-independent basis, Debye-Ang):
   XX=             -9.4549   YY=             -9.3181   ZZ=            -15.0165
   XY=             -3.8965   XZ=              0.0000   YZ=             -0.0000

 871\MP4DQ=-33.8990352\MP4SDQ=-33.9011928\CCSD=-33.9020507\CCSD(T)=-33.
 Normal termination of Gaussian 16 at Sun Dec 10 06:31:56 2023.
