 Gaussian 16, Revision A.03,
 Gaussian 16:  ES64L-G16RevA.03 25-Dec-2016

 ------------------
 #p CCSD(T)/CEP-31G
 ------------------

 ------------
 H2O_H2O_2183
 ------------
 Symbolic Z-matrix:
 Charge =  0 Multiplicity = 1

                         Standard orientation:
 ---------------------------------------------------------------------
 Center     Atomic      Atomic             Coordinates (Angstroms)
 Number     Number       Type             X           Y           Z
 ---------------------------------------------------------------------
      1          8           0        0.070213    1.974765    0.000000
      2          1           0        0.069191    0.992164    0.000000
      3          1           0       -0.858948    2.294398    0.000000
      4          8           0        0.070213   -1.804545   -0.000000
      5          1           0        0.560629   -2.656013   -0.000000
      6          1           0       -0.894281   -1.992314   -0.000000
 ---------------------------------------------------------------------

 SCF Done:  E(RHF) =  -33.6562185382     A.U. after   11 cycles
 E2 =    -0.2285725773D+00 EUMP2 =    -0.33884791115473D+02
 CCSD(T)
 CCSD(T)= -0.33901721600D+02

 The electronic state is 1-A'.
 Alpha  occ. eigenvalues --   -1.37262  -1.33613  -0.72939  -0.69211  -0.57303
 Alpha  occ. eigenvalues --   -0.53405  -0.51888  -0.48229
 Alpha virt. eigenvalues --    0.17901   0.23394   0.28985   0.33998   0.78537
 Alpha virt. eigenvalues --    0.82423   0.83208   0.85217   0.88601   0.89071
 Alpha virt. eigenvalues --    1.15695   1.19803   1.20363   1.32599   2.53219

 Mulliken charges:
               1
     1  O   -0.760216
     2  H    0.398617
     3  H    0.359544
     4  O   -0.757029
     5  H    0.385716
     6  H    0.373369
 Sum of Mulliken charges =   0.00000

 Dipole moment (field-independent basis, Debye):
    X=             -3.1803    Y=             -4.1680    Z=             -0.0000  Tot=              5.2428
 Quadrupole moment (field-independent basis, Debye-Ang):
   XX=            -10.0329   YY=             -7.6796   ZZ=            -14.9967
   XY=             -4.1090   XZ=             -0.0000   YZ=              0.0000

 2697\MP4DQ=-33.896014\MP4SDQ=-33.898089\CCSD=-33.8991172\CCSD(T)=-33.9
 Normal termination of Gaussian 16 at Sun Dec 10 07:00:16 2023.
