 Gaussian 16, Revision A.03,
 Gaussian 16:  ES64L-G16RevA.03 25-Dec-2016

 ------------------
 #p CCSD(T)/CEP-31G
 ------------------

 ------------
 H2O_H2O_3444
 ------------
 Symbolic Z-matrix:
 Charge =  0 Multiplicity = 1

                         Standard orientation:
 ---------------------------------------------------------------------
 Center     Atomic      Atomic             Coordinates (Angstroms)
 Number     Number       Type             X           Y           Z
 ---------------------------------------------------------------------
      1          8           0        0.030178    2.476296    0.000000
      2          1           0        0.027948    1.493697    0.000000
      3          1           0       -0.898590    2.797071    0.000000
      4          8           0        0.030178   -2.300681   -0.000000
      5          1           0        0.959914   -2.618639   -0.000000
      6          1           0       -0.572116   -3.077048   -0.000000
 ---------------------------------------------------------------------

 SCF Done:  E(RHF) =  -33.6546398429     A.U. after   11 cycles
 E2 =    -0.2282818751D+00 EUMP2 =    -0.33882921717972D+02
 CCSD(T)
 CCSD(T)= -0.33899842947D+02

 The electronic state is 1-A'.
 Alpha  occ. eigenvalues --   -1.36524  -1.34297  -0.72168  -0.69931  -0.56423
 Alpha  occ. eigenvalues --   -0.54119  -0.51137  -0.48914
 Alpha virt. eigenvalues --    0.19167   0.21829   0.29630   0.32028   0.79425
 Alpha virt. eigenvalues --    0.81577   0.82223   0.84535   0.85476   0.87710
 Alpha virt. eigenvalues --    1.16494   1.18852   1.20892   1.24041   2.56447

 Mulliken charges:
               1
     1  O   -0.752239
     2  H    0.384014
     3  H    0.367919
     4  O   -0.750856
     5  H    0.376158
     6  H    0.375005
 Sum of Mulliken charges =  -0.00000

 Dipole moment (field-independent basis, Debye):
    X=             -1.3788    Y=             -4.1599    Z=             -0.0000  Tot=              4.3825
 Quadrupole moment (field-independent basis, Debye-Ang):
   XX=             -9.4712   YY=             -6.3744   ZZ=            -14.9943
   XY=             -7.5754   XZ=             -0.0000   YZ=              0.0000

 4585\MP4DQ=-33.8942112\MP4SDQ=-33.8962384\CCSD=-33.8972838\CCSD(T)=-33
 Normal termination of Gaussian 16 at Sun Dec 10 06:35:01 2023.
