 Gaussian 16, Revision A.03,
 Gaussian 16:  ES64L-G16RevA.03 25-Dec-2016

 ------------------
 #p CCSD(T)/CEP-31G
 ------------------

 ------------
 H2O_H2O_1934
 ------------
 Symbolic Z-matrix:
 Charge =  0 Multiplicity = 1

                         Standard orientation:
 ---------------------------------------------------------------------
 Center     Atomic      Atomic             Coordinates (Angstroms)
 Number     Number       Type             X           Y           Z
 ---------------------------------------------------------------------
      1          8           0        0.066783    1.876594    0.000000
      2          1           0        0.065541    0.893993    0.000000
      3          1           0       -0.862306    2.196435    0.000000
      4          8           0        0.066783   -1.703525    0.000000
      5          1           0        0.611654   -2.521217    0.000000
      6          1           0       -0.883421   -1.953762    0.000000
 ---------------------------------------------------------------------

 SCF Done:  E(RHF) =  -33.6574468251     A.U. after   11 cycles
 E2 =    -0.2286670624D+00 EUMP2 =    -0.33886113887537D+02
 CCSD(T)
 CCSD(T)= -0.33903024243D+02

 The electronic state is 1-A'.
 Alpha  occ. eigenvalues --   -1.37478  -1.33258  -0.73156  -0.68882  -0.57633
 Alpha  occ. eigenvalues --   -0.53049  -0.52119  -0.47884
 Alpha virt. eigenvalues --    0.17863   0.23950   0.28846   0.35320   0.78143
 Alpha virt. eigenvalues --    0.82618   0.82932   0.85460   0.89305   0.92082
 Alpha virt. eigenvalues --    1.15508   1.19852   1.20450   1.34127   2.51722

 Mulliken charges:
               1
     1  O   -0.765588
     2  H    0.405675
     3  H    0.357674
     4  O   -0.762662
     5  H    0.389463
     6  H    0.375438
 Sum of Mulliken charges =  -0.00000

 Dipole moment (field-independent basis, Debye):
    X=             -3.0108    Y=             -4.2806    Z=              0.0000  Tot=              5.2334
 Quadrupole moment (field-independent basis, Debye-Ang):
   XX=             -9.8988   YY=             -7.7801   ZZ=            -14.9994
   XY=             -4.1890   XZ=              0.0000   YZ=              0.0000

 5525\MP4DQ=-33.8972909\MP4SDQ=-33.8993766\CCSD=-33.9003999\CCSD(T)=-33
 Normal termination of Gaussian 16 at Sun Dec 10 06:55:23 2023.
