 Gaussian 16, Revision A.03,
 Gaussian 16:  ES64L-G16RevA.03 25-Dec-2016

 ------------------
 #p CCSD(T)/CEP-31G
 ------------------

 ------------
 H2O_H2O_1489
 ------------
 Symbolic Z-matrix:
 Charge =  0 Multiplicity = 1

                         Standard orientation:
 ---------------------------------------------------------------------
 Center     Atomic      Atomic             Coordinates (Angstroms)
 Number     Number       Type             X           Y           Z
 ---------------------------------------------------------------------
      1          8           0        0.048645    1.701043   -0.000000
      2          1           0        0.046307    0.718445   -0.000000
      3          1           0       -0.880088    2.021921    0.000000
      4          8           0        0.048645   -1.520721   -0.000000
      5          1           0        0.826769   -2.120745   -0.000000
      6          1           0       -0.771301   -2.062197    0.000000
 ---------------------------------------------------------------------

 SCF Done:  E(RHF) =  -33.6612238817     A.U. after   11 cycles
 E2 =    -0.2288711165D+00 EUMP2 =    -0.33890094998221D+02
 CCSD(T)
 CCSD(T)= -0.33906851553D+02

 The electronic state is 1-A'.
 Alpha  occ. eigenvalues --   -1.37978  -1.32278  -0.73613  -0.68166  -0.58477
 Alpha  occ. eigenvalues --   -0.52681  -0.52052  -0.46942
 Alpha virt. eigenvalues --    0.17911   0.25211   0.28572   0.39261   0.77100
 Alpha virt. eigenvalues --    0.80436   0.84395   0.85988   0.91487   0.97077
 Alpha virt. eigenvalues --    1.15163   1.19738   1.21141   1.33926   2.49626

 Mulliken charges:
               1
     1  O   -0.780150
     2  H    0.423695
     3  H    0.355017
     4  O   -0.781334
     5  H    0.395949
     6  H    0.386823
 Sum of Mulliken charges =   0.00000

 Dipole moment (field-independent basis, Debye):
    X=             -2.1664    Y=             -4.5548    Z=              0.0000  Tot=              5.0438
 Quadrupole moment (field-independent basis, Debye-Ang):
   XX=             -9.4384   YY=             -8.0715   ZZ=            -15.0090
   XY=             -4.6433   XZ=             -0.0000   YZ=              0.0000

 09\MP4DQ=-33.9010793\MP4SDQ=-33.9031688\CCSD=-33.9041691\CCSD(T)=-33.9
 Normal termination of Gaussian 16 at Sun Dec 10 06:46:51 2023.
