 Gaussian 16, Revision A.03,
 Gaussian 16:  ES64L-G16RevA.03 25-Dec-2016

 ------------------
 #p CCSD(T)/CEP-31G
 ------------------

 ------------
 H2O_H2O_3755
 ------------
 Symbolic Z-matrix:
 Charge =  0 Multiplicity = 1

                         Standard orientation:
 ---------------------------------------------------------------------
 Center     Atomic      Atomic             Coordinates (Angstroms)
 Number     Number       Type             X           Y           Z
 ---------------------------------------------------------------------
      1          8           0        0.079848    2.596937    0.000000
      2          1           0        0.079406    1.614336    0.000000
      3          1           0       -0.849502    2.916021    0.000000
      4          8           0        0.079848   -2.437868    0.000000
      5          1           0        0.395277   -3.368465    0.000000
      6          1           0       -0.902747   -2.434448    0.000000
 ---------------------------------------------------------------------

 SCF Done:  E(RHF) =  -33.6529414403     A.U. after   11 cycles
 E2 =    -0.2283335423D+00 EUMP2 =    -0.33881274982599D+02
 CCSD(T)
 CCSD(T)= -0.33898243550D+02

 The electronic state is 1-A'.
 Alpha  occ. eigenvalues --   -1.36469  -1.34720  -0.72120  -0.70332  -0.56274
 Alpha  occ. eigenvalues --   -0.54479  -0.51055  -0.49304
 Alpha virt. eigenvalues --    0.19144   0.21317   0.29591   0.31484   0.79513
 Alpha virt. eigenvalues --    0.81218   0.82354   0.84236   0.85482   0.87488
 Alpha virt. eigenvalues --    1.16459   1.18303   1.20892   1.23148   2.56406

 Mulliken charges:
               1
     1  O   -0.745687
     2  H    0.379679
     3  H    0.365910
     4  O   -0.745786
     5  H    0.376405
     6  H    0.369478
 Sum of Mulliken charges =  -0.00000

 Dipole moment (field-independent basis, Debye):
    X=             -3.6621    Y=             -3.7573    Z=              0.0000  Tot=              5.2468
 Quadrupole moment (field-independent basis, Debye-Ang):
   XX=            -10.4785   YY=             -7.4102   ZZ=            -14.9905
   XY=             -3.8608   XZ=              0.0000   YZ=              0.0000

 89\MP4DQ=-33.8926039\MP4SDQ=-33.8946311\CCSD=-33.8956821\CCSD(T)=-33.8
 Normal termination of Gaussian 16 at Sun Dec 10 06:40:34 2023.
