 Gaussian 16, Revision A.03,
 Gaussian 16:  ES64L-G16RevA.03 25-Dec-2016

 ------------------
 #p CCSD(T)/CEP-31G
 ------------------

 ------------
 H2O_H2O_1153
 ------------
 Symbolic Z-matrix:
 Charge =  0 Multiplicity = 1

                         Standard orientation:
 ---------------------------------------------------------------------
 Center     Atomic      Atomic             Coordinates (Angstroms)
 Number     Number       Type             X           Y           Z
 ---------------------------------------------------------------------
      1          8           0        0.085612   -1.554698    0.000000
      2          1           0        0.085191   -0.572097    0.000000
      3          1           0       -0.843744   -1.873764    0.000000
      4          8           0        0.085612    1.405127    0.000000
      5          1           0        0.276895    2.368930    0.000000
      6          1           0       -0.888134    1.273501    0.000000
 ---------------------------------------------------------------------

 SCF Done:  E(RHF) =  -33.6547987261     A.U. after   11 cycles
 E2 =    -0.2290898574D+00 EUMP2 =    -0.33883888583542D+02
 CCSD(T)
 CCSD(T)= -0.33900824212D+02

 The electronic state is 1-A'.
 Alpha  occ. eigenvalues --   -1.38795  -1.32985  -0.74907  -0.68694  -0.58780
 Alpha  occ. eigenvalues --   -0.53334  -0.52541  -0.47517
 Alpha virt. eigenvalues --    0.16867   0.25242   0.27770   0.41402   0.75791
 Alpha virt. eigenvalues --    0.79729   0.84894   0.84951   0.91219   1.11502
 Alpha virt. eigenvalues --    1.15967   1.19894   1.22323   1.38676   2.50633

 Mulliken charges:
               1
     1  O   -0.755235
     2  H    0.399851
     3  H    0.346902
     4  O   -0.778643
     5  H    0.416160
     6  H    0.370964
 Sum of Mulliken charges =  -0.00000

 Dipole moment (field-independent basis, Debye):
    X=             -3.8008    Y=              3.9327    Z=              0.0000  Tot=              5.4692
 Quadrupole moment (field-independent basis, Debye-Ang):
   XX=            -10.8574   YY=             -9.0850   ZZ=            -14.9956
   XY=              2.8466   XZ=              0.0000   YZ=              0.0000

 124\MP4DQ=-33.8949007\MP4SDQ=-33.8970953\CCSD=-33.8980777\CCSD(T)=-33.
 Normal termination of Gaussian 16 at Sun Dec 10 06:40:12 2023.
