 Gaussian 16, Revision A.03,
 Gaussian 16:  ES64L-G16RevA.03 25-Dec-2016

 ------------------
 #p CCSD(T)/CEP-31G
 ------------------

 ------------
 H2O_H2O_3184
 ------------
 Symbolic Z-matrix:
 Charge =  0 Multiplicity = 1

                         Standard orientation:
 ---------------------------------------------------------------------
 Center     Atomic      Atomic             Coordinates (Angstroms)
 Number     Number       Type             X           Y           Z
 ---------------------------------------------------------------------
      1          8           0        0.066759    2.375208    0.000000
      2          1           0        0.065788    1.392608    0.000000
      3          1           0       -0.862418    2.694794    0.000000
      4          8           0        0.066759   -2.202103   -0.000000
      5          1           0        0.611856   -3.019645   -0.000000
      6          1           0       -0.883376   -2.452601   -0.000000
 ---------------------------------------------------------------------

 SCF Done:  E(RHF) =  -33.6542319977     A.U. after   11 cycles
 E2 =    -0.2283380603D+00 EUMP2 =    -0.33882570058030D+02
 CCSD(T)
 CCSD(T)= -0.33899504155D+02

 The electronic state is 1-A'.
 Alpha  occ. eigenvalues --   -1.36657  -1.34261  -0.72309  -0.69871  -0.56537
 Alpha  occ. eigenvalues --   -0.54052  -0.51262  -0.48863
 Alpha virt. eigenvalues --    0.18855   0.21960   0.29448   0.32103   0.79310
 Alpha virt. eigenvalues --    0.81634   0.82362   0.84698   0.85260   0.87921
 Alpha virt. eigenvalues --    1.16333   1.18943   1.20727   1.24873   2.56245

 Mulliken charges:
               1
     1  O   -0.750741
     2  H    0.385562
     3  H    0.364657
     4  O   -0.749663
     5  H    0.378394
     6  H    0.371791
 Sum of Mulliken charges =  -0.00000

 Dipole moment (field-independent basis, Debye):
    X=             -3.0505    Y=             -4.1233    Z=              0.0000  Tot=              5.1291
 Quadrupole moment (field-independent basis, Debye-Ang):
   XX=             -9.8959   YY=             -6.7569   ZZ=            -14.9933
   XY=             -4.7994   XZ=             -0.0000   YZ=              0.0000

 125\MP4DQ=-33.8938625\MP4SDQ=-33.8958961\CCSD=-33.8969395\CCSD(T)=-33.
 Normal termination of Gaussian 16 at Sun Dec 10 06:30:22 2023.
