 Gaussian 16, Revision A.03,
 Gaussian 16:  ES64L-G16RevA.03 25-Dec-2016

 ------------------
 #p CCSD(T)/CEP-31G
 ------------------

 ------------
 H2O_H2O_3588
 ------------
 Symbolic Z-matrix:
 Charge =  0 Multiplicity = 1

                         Standard orientation:
 ---------------------------------------------------------------------
 Center     Atomic      Atomic             Coordinates (Angstroms)
 Number     Number       Type             X           Y           Z
 ---------------------------------------------------------------------
      1          8           0        0.052288    2.538453    0.000000
      2          1           0        0.050879    1.555852    0.000000
      3          1           0       -0.876747    2.858452    0.000000
      4          8           0        0.052288   -2.358550   -0.000000
      5          1           0        0.790117   -3.007483   -0.000000
      6          1           0       -0.800856   -2.846045   -0.000000
 ---------------------------------------------------------------------

 SCF Done:  E(RHF) =  -33.6541396408     A.U. after   11 cycles
 E2 =    -0.2282964875D+00 EUMP2 =    -0.33882436128250D+02
 CCSD(T)
 CCSD(T)= -0.33899369601D+02

 The electronic state is 1-A'.
 Alpha  occ. eigenvalues --   -1.36490  -1.34334  -0.72133  -0.69956  -0.56362
 Alpha  occ. eigenvalues --   -0.54134  -0.51095  -0.48939
 Alpha virt. eigenvalues --    0.19254   0.21724   0.29655   0.31943   0.79468
 Alpha virt. eigenvalues --    0.81558   0.82242   0.84594   0.85457   0.87728
 Alpha virt. eigenvalues --    1.16512   1.18747   1.20941   1.23654   2.56478

 Mulliken charges:
               1
     1  O   -0.750280
     2  H    0.383600
     3  H    0.366460
     4  O   -0.749225
     5  H    0.376615
     6  H    0.372831
 Sum of Mulliken charges =   0.00000

 Dipole moment (field-independent basis, Debye):
    X=             -2.3928    Y=             -4.2561    Z=             -0.0000  Tot=              4.8826
 Quadrupole moment (field-independent basis, Debye-Ang):
   XX=             -9.5137   YY=             -5.9695   ZZ=            -14.9933
   XY=             -6.1157   XZ=             -0.0000   YZ=              0.0000

 865\MP4DQ=-33.893737\MP4SDQ=-33.8957635\CCSD=-33.8968107\CCSD(T)=-33.8
 Normal termination of Gaussian 16 at Sun Dec 10 06:37:34 2023.
