 Gaussian 16, Revision A.03,
 Gaussian 16:  ES64L-G16RevA.03 25-Dec-2016

 ------------------
 #p CCSD(T)/CEP-31G
 ------------------

 -----------
 H2O_H2O_302
 -----------
 Symbolic Z-matrix:
 Charge =  0 Multiplicity = 1

                         Standard orientation:
 ---------------------------------------------------------------------
 Center     Atomic      Atomic             Coordinates (Angstroms)
 Number     Number       Type             X           Y           Z
 ---------------------------------------------------------------------
      1          8           0        0.088244   -1.212783    0.000000
      2          1           0        0.087893   -0.230182    0.000000
      3          1           0       -0.841135   -1.531782    0.000000
      4          8           0        0.088244    1.068495    0.000000
      5          1           0        0.216152    2.042736    0.000000
      6          1           0       -0.874822    0.873534    0.000000
 ---------------------------------------------------------------------

 SCF Done:  E(RHF) =  -33.6165696711     A.U. after   11 cycles
 E2 =    -0.2286123902D+00 EUMP2 =    -0.33845182061222D+02
 CCSD(T)
 CCSD(T)= -0.33861077305D+02

 The electronic state is 1-A'.
 Alpha  occ. eigenvalues --   -1.43735  -1.30420  -0.81614  -0.70106  -0.58014
 Alpha  occ. eigenvalues --   -0.56990  -0.48927  -0.44617
 Alpha virt. eigenvalues --    0.16199   0.24004   0.28980   0.56622   0.73190
 Alpha virt. eigenvalues --    0.76342   0.87340   0.89218   0.96009   1.10229
 Alpha virt. eigenvalues --    1.12986   1.23805   1.26507   1.45492   2.82664

 Mulliken charges:
               1
     1  O   -0.689161
     2  H    0.289315
     3  H    0.317272
     4  O   -0.778246
     5  H    0.479721
     6  H    0.381099
 Sum of Mulliken charges =  -0.00000

 Dipole moment (field-independent basis, Debye):
    X=             -3.7175    Y=              4.5080    Z=              0.0000  Tot=              5.8432
 Quadrupole moment (field-independent basis, Debye-Ang):
   XX=            -11.0313   YY=            -10.0756   ZZ=            -14.9431
   XY=              2.4768   XZ=              0.0000   YZ=              0.0000

 3\MP4DQ=-33.8547704\MP4SDQ=-33.8572272\CCSD=-33.8579762\CCSD(T)=-33.86
 Normal termination of Gaussian 16 at Sun Dec 10 06:24:00 2023.
