 Gaussian 16, Revision A.03,
 Gaussian 16:  ES64L-G16RevA.03 25-Dec-2016

 ------------------
 #p CCSD(T)/CEP-31G
 ------------------

 ------------
 H2O_H2O_3558
 ------------
 Symbolic Z-matrix:
 Charge =  0 Multiplicity = 1

                         Standard orientation:
 ---------------------------------------------------------------------
 Center     Atomic      Atomic             Coordinates (Angstroms)
 Number     Number       Type             X           Y           Z
 ---------------------------------------------------------------------
      1          8           0        0.070193    2.523238   -0.000000
      2          1           0        0.069401    1.540636   -0.000000
      3          1           0       -0.859043    2.842653   -0.000000
      4          8           0        0.070193   -2.352984    0.000000
      5          1           0        0.560808   -3.204338    0.000000
      6          1           0       -0.894257   -2.540980    0.000000
 ---------------------------------------------------------------------

 SCF Done:  E(RHF) =  -33.6535817040     A.U. after   11 cycles
 E2 =    -0.2283206809D+00 EUMP2 =    -0.33881902384903D+02
 CCSD(T)
 CCSD(T)= -0.33898852267D+02

 The electronic state is 1-A'.
 Alpha  occ. eigenvalues --   -1.36518  -1.34483  -0.72167  -0.70097  -0.56359
 Alpha  occ. eigenvalues --   -0.54261  -0.51114  -0.49077
 Alpha virt. eigenvalues --    0.19124   0.21589   0.29562   0.31793   0.79454
 Alpha virt. eigenvalues --    0.81431   0.82271   0.84469   0.85420   0.87686
 Alpha virt. eigenvalues --    1.16452   1.18586   1.20846   1.23667   2.56442

 Mulliken charges:
               1
     1  O   -0.748153
     2  H    0.382349
     3  H    0.365600
     4  O   -0.747733
     5  H    0.377024
     6  H    0.370913
 Sum of Mulliken charges =   0.00000

 Dipole moment (field-independent basis, Debye):
    X=             -3.2146    Y=             -4.0310    Z=              0.0000  Tot=              5.1559
 Quadrupole moment (field-independent basis, Debye-Ang):
   XX=            -10.0266   YY=             -6.6778   ZZ=            -14.9920
   XY=             -4.6954   XZ=              0.0000   YZ=             -0.0000

 672\MP4DQ=-33.893215\MP4SDQ=-33.8952429\CCSD=-33.8962912\CCSD(T)=-33.8
 Normal termination of Gaussian 16 at Sun Dec 10 06:37:02 2023.
