 Gaussian 16, Revision A.03,
 Gaussian 16:  ES64L-G16RevA.03 25-Dec-2016

 ------------------
 #p CCSD(T)/CEP-31G
 ------------------

 -----------
 H2O_H2O_145
 -----------
 Symbolic Z-matrix:
 Charge =  0 Multiplicity = 1

                         Standard orientation:
 ---------------------------------------------------------------------
 Center     Atomic      Atomic             Coordinates (Angstroms)
 Number     Number       Type             X           Y           Z
 ---------------------------------------------------------------------
      1          8           0        0.026900    1.158637    0.000000
      2          1           0        0.021652    0.176049    0.000000
      3          1           0       -0.900878    1.482263    0.000000
      4          8           0        0.026900   -0.985562   -0.000000
      5          1           0        0.974649   -1.244943   -0.000000
      6          1           0       -0.525827   -1.797966   -0.000000
 ---------------------------------------------------------------------

 SCF Done:  E(RHF) =  -33.6117008516     A.U. after   11 cycles
 E2 =    -0.2273387569D+00 EUMP2 =    -0.33839039608539D+02
 CCSD(T)
 CCSD(T)= -0.33853748695D+02

 The electronic state is 1-A'.
 Alpha  occ. eigenvalues --   -1.44996  -1.27095  -0.81079  -0.75316  -0.58375
 Alpha  occ. eigenvalues --   -0.55680  -0.44347  -0.41202
 Alpha virt. eigenvalues --    0.16662   0.25083   0.30069   0.61639   0.73361
 Alpha virt. eigenvalues --    0.73984   0.88108   0.91542   0.92550   1.02596
 Alpha virt. eigenvalues --    1.13537   1.19450   1.30024   1.38022   2.92538

 Mulliken charges:
               1
     1  O   -0.751069
     2  H    0.311526
     3  H    0.320940
     4  O   -0.797760
     5  H    0.440340
     6  H    0.476021
 Sum of Mulliken charges =   0.00000

 Dipole moment (field-independent basis, Debye):
    X=             -1.1387    Y=             -5.4951    Z=             -0.0000  Tot=              5.6118
 Quadrupole moment (field-independent basis, Debye-Ang):
   XX=             -9.3745   YY=            -10.4812   ZZ=            -14.9448
   XY=             -3.5390   XZ=             -0.0000   YZ=              0.0000

 073\MP4DQ=-33.8476232\MP4SDQ=-33.8499241\CCSD=-33.8505618\CCSD(T)=-33.
 Normal termination of Gaussian 16 at Sun Dec 10 06:20:53 2023.
