 Gaussian 16, Revision A.03,
 Gaussian 16:  ES64L-G16RevA.03 25-Dec-2016

 ------------------
 #p CCSD(T)/CEP-31G
 ------------------

 ------------
 H2O_H2O_1681
 ------------
 Symbolic Z-matrix:
 Charge =  0 Multiplicity = 1

                         Standard orientation:
 ---------------------------------------------------------------------
 Center     Atomic      Atomic             Coordinates (Angstroms)
 Number     Number       Type             X           Y           Z
 ---------------------------------------------------------------------
      1          8           0        0.076775    1.771500   -0.000000
      2          1           0        0.075962    0.788899   -0.000000
      3          1           0       -0.852454    2.090935    0.000000
      4          8           0        0.076775   -1.608323   -0.000000
      5          1           0        0.452049   -2.516441   -0.000000
      6          1           0       -0.903963   -1.668804    0.000000
 ---------------------------------------------------------------------

 SCF Done:  E(RHF) =  -33.6569652379     A.U. after   11 cycles
 E2 =    -0.2288216759D+00 EUMP2 =    -0.33885786913851D+02
 CCSD(T)
 CCSD(T)= -0.33902734679D+02

 The electronic state is 1-A'.
 Alpha  occ. eigenvalues --   -1.37792  -1.33274  -0.73535  -0.68899  -0.57939
 Alpha  occ. eigenvalues --   -0.53006  -0.52413  -0.47877
 Alpha virt. eigenvalues --    0.17439   0.24355   0.28528   0.36612   0.77558
 Alpha virt. eigenvalues --    0.81675   0.83306   0.85258   0.89679   0.98581
 Alpha virt. eigenvalues --    1.15133   1.18867   1.20956   1.37129   2.51014

 Mulliken charges:
               1
     1  O   -0.764353
     2  H    0.407137
     3  H    0.354596
     4  O   -0.766578
     5  H    0.395930
     6  H    0.373268
 Sum of Mulliken charges =   0.00000

 Dipole moment (field-independent basis, Debye):
    X=             -3.4503    Y=             -4.0944    Z=              0.0000  Tot=              5.3543
 Quadrupole moment (field-independent basis, Debye-Ang):
   XX=            -10.3389   YY=             -8.3325   ZZ=            -14.9980
   XY=             -3.5379   XZ=             -0.0000   YZ=              0.0000

 37\MP4DQ=-33.8969494\MP4SDQ=-33.8990623\CCSD=-33.9000802\CCSD(T)=-33.9
 Normal termination of Gaussian 16 at Sun Dec 10 06:50:37 2023.
