 Gaussian 16, Revision A.03,
 Gaussian 16:  ES64L-G16RevA.03 25-Dec-2016

 ------------------
 #p CCSD(T)/CEP-31G
 ------------------

 ------------
 H2O_H2O_1517
 ------------
 Symbolic Z-matrix:
 Charge =  0 Multiplicity = 1

                         Standard orientation:
 ---------------------------------------------------------------------
 Center     Atomic      Atomic             Coordinates (Angstroms)
 Number     Number       Type             X           Y           Z
 ---------------------------------------------------------------------
      1          8           0        0.037521    1.710246    0.000000
      2          1           0        0.034615    0.727649    0.000000
      3          1           0       -0.891025    2.031661    0.000000
      4          8           0        0.037521   -1.531345   -0.000000
      5          1           0        0.917501   -1.968543   -0.000000
      6          1           0       -0.661433   -2.221975   -0.000000
 ---------------------------------------------------------------------

 SCF Done:  E(RHF) =  -33.6614534920     A.U. after   11 cycles
 E2 =    -0.2288078424D+00 EUMP2 =    -0.33890261334443D+02
 CCSD(T)
 CCSD(T)= -0.33907024115D+02

 The electronic state is 1-A'.
 Alpha  occ. eigenvalues --   -1.37920  -1.32324  -0.73561  -0.68199  -0.58433
 Alpha  occ. eigenvalues --   -0.52625  -0.52125  -0.47002
 Alpha virt. eigenvalues --    0.17955   0.25187   0.28637   0.38981   0.77180
 Alpha virt. eigenvalues --    0.80503   0.84293   0.86306   0.90636   0.97569
 Alpha virt. eigenvalues --    1.15274   1.19389   1.21398   1.34160   2.49810

 Mulliken charges:
               1
     1  O   -0.781324
     2  H    0.421712
     3  H    0.357799
     4  O   -0.781356
     5  H    0.392114
     6  H    0.391055
 Sum of Mulliken charges =   0.00000

 Dipole moment (field-independent basis, Debye):
    X=             -1.6761    Y=             -4.5112    Z=             -0.0000  Tot=              4.8125
 Quadrupole moment (field-independent basis, Debye-Ang):
   XX=             -9.3862   YY=             -8.0602   ZZ=            -15.0093
   XY=             -5.0358   XZ=             -0.0000   YZ=              0.0000

 353\MP4DQ=-33.9012581\MP4SDQ=-33.9033462\CCSD=-33.9043488\CCSD(T)=-33.
 Normal termination of Gaussian 16 at Sun Dec 10 06:47:25 2023.
