 Gaussian 16, Revision A.03,
 Gaussian 16:  ES64L-G16RevA.03 25-Dec-2016

 ------------------
 #p CCSD(T)/CEP-31G
 ------------------

 ------------
 H2O_H2O_4412
 ------------
 Symbolic Z-matrix:
 Charge =  0 Multiplicity = 1

                         Standard orientation:
 ---------------------------------------------------------------------
 Center     Atomic      Atomic             Coordinates (Angstroms)
 Number     Number       Type             X           Y           Z
 ---------------------------------------------------------------------
      1          8           0        0.055966    2.867000   -0.000000
      2          1           0        0.054837    1.884400   -0.000000
      3          1           0       -0.873160    3.186735    0.000000
      4          8           0        0.055966   -2.688063   -0.000000
      5          1           0        0.749972   -3.383666   -0.000000
      6          1           0       -0.827112   -3.118968    0.000000
 ---------------------------------------------------------------------

 SCF Done:  E(RHF) =  -33.6532397069     A.U. after   11 cycles
 E2 =    -0.2283051463D+00 EUMP2 =    -0.33881544853167D+02
 CCSD(T)
 CCSD(T)= -0.33898503886D+02

 The electronic state is 1-A'.
 Alpha  occ. eigenvalues --   -1.36279  -1.34655  -0.71920  -0.70281  -0.56098
 Alpha  occ. eigenvalues --   -0.54434  -0.50872  -0.49249
 Alpha virt. eigenvalues --    0.19552   0.21253   0.29819   0.31531   0.79682
 Alpha virt. eigenvalues --    0.81269   0.82534   0.84267   0.85720   0.87395
 Alpha virt. eigenvalues --    1.16685   1.18311   1.21127   1.22834   2.56655

 Mulliken charges:
               1
     1  O   -0.746795
     2  H    0.379111
     3  H    0.367668
     4  O   -0.746333
     5  H    0.374717
     6  H    0.371632
 Sum of Mulliken charges =   0.00000

 Dipole moment (field-independent basis, Debye):
    X=             -2.5703    Y=             -4.2002    Z=              0.0000  Tot=              4.9242
 Quadrupole moment (field-independent basis, Debye-Ang):
   XX=             -9.5849   YY=             -5.3159   ZZ=            -14.9915
   XY=             -6.4060   XZ=             -0.0000   YZ=              0.0000

 229\MP4DQ=-33.8928699\MP4SDQ=-33.894894\CCSD=-33.8959462\CCSD(T)=-33.8
 Normal termination of Gaussian 16 at Sun Dec 10 06:52:25 2023.
