 Gaussian 16, Revision A.03,
 Gaussian 16:  ES64L-G16RevA.03 25-Dec-2016

 ------------------
 #p CCSD(T)/CEP-31G
 ------------------

 ------------
 H2O_H2O_2079
 ------------
 Symbolic Z-matrix:
 Charge =  0 Multiplicity = 1

                         Standard orientation:
 ---------------------------------------------------------------------
 Center     Atomic      Atomic             Coordinates (Angstroms)
 Number     Number       Type             X           Y           Z
 ---------------------------------------------------------------------
      1          8           0        0.082810   -1.926338    0.000000
      2          1           0        0.082345   -0.943737    0.000000
      3          1           0       -0.846532   -2.245445    0.000000
      4          8           0        0.082810    1.771835    0.000000
      5          1           0        0.336677    2.721076    0.000000
      6          1           0       -0.897455    1.704133    0.000000
 ---------------------------------------------------------------------

 SCF Done:  E(RHF) =  -33.6548643744     A.U. after   11 cycles
 E2 =    -0.2286739252D+00 EUMP2 =    -0.33883538299631D+02
 CCSD(T)
 CCSD(T)= -0.33900524203D+02

 The electronic state is 1-A'.
 Alpha  occ. eigenvalues --   -1.37385  -1.33967  -0.73106  -0.69534  -0.57343
 Alpha  occ. eigenvalues --   -0.53711  -0.51983  -0.48555
 Alpha virt. eigenvalues --    0.17310   0.23453   0.28819   0.33944   0.78360
 Alpha virt. eigenvalues --    0.82230   0.82733   0.84898   0.88402   0.91693
 Alpha virt. eigenvalues --    1.15416   1.19144   1.20563   1.35056   2.53582

 Mulliken charges:
               1
     1  O   -0.755471
     2  H    0.394759
     3  H    0.358609
     4  O   -0.754434
     5  H    0.387068
     6  H    0.369469
 Sum of Mulliken charges =   0.00000

 Dipole moment (field-independent basis, Debye):
    X=             -3.7534    Y=              3.7994    Z=              0.0000  Tot=              5.3407
 Quadrupole moment (field-independent basis, Debye-Ang):
   XX=            -10.6607   YY=             -8.4551   ZZ=            -14.9930
   XY=              3.2194   XZ=              0.0000   YZ=              0.0000

 0532\MP4DQ=-33.89479\MP4SDQ=-33.8968797\CCSD=-33.8979073\CCSD(T)=-33.9
 Normal termination of Gaussian 16 at Sun Dec 10 06:58:10 2023.
