 Gaussian 16, Revision A.03,
 Gaussian 16:  ES64L-G16RevA.03 25-Dec-2016

 ------------------
 #p CCSD(T)/CEP-31G
 ------------------

 ------------
 H2O_H2O_3145
 ------------
 Symbolic Z-matrix:
 Charge =  0 Multiplicity = 1

                         Standard orientation:
 ---------------------------------------------------------------------
 Center     Atomic      Atomic             Coordinates (Angstroms)
 Number     Number       Type             X           Y           Z
 ---------------------------------------------------------------------
      1          8           0        0.026656    2.355336    0.000000
      2          1           0        0.024176    1.372738    0.000000
      3          1           0       -0.902030    2.676347    0.000000
      4          8           0        0.026656   -2.182110   -0.000000
      5          1           0        0.975132   -2.438821   -0.000000
      6          1           0       -0.523779   -2.996069   -0.000000
 ---------------------------------------------------------------------

 SCF Done:  E(RHF) =  -33.6551786791     A.U. after   11 cycles
 E2 =    -0.2282962556D+00 EUMP2 =    -0.33883474934672D+02
 CCSD(T)
 CCSD(T)= -0.33900384853D+02

 The electronic state is 1-A'.
 Alpha  occ. eigenvalues --   -1.36639  -1.34171  -0.72285  -0.69807  -0.56569
 Alpha  occ. eigenvalues --   -0.54006  -0.51259  -0.48796
 Alpha virt. eigenvalues --    0.18904   0.22104   0.29529   0.32234   0.79306
 Alpha virt. eigenvalues --    0.81689   0.82366   0.84516   0.85516   0.87814
 Alpha virt. eigenvalues --    1.16389   1.19110   1.20783   1.25145   2.56242

 Mulliken charges:
               1
     1  O   -0.754442
     2  H    0.386029
     3  H    0.367826
     4  O   -0.752510
     5  H    0.376908
     6  H    0.376190
 Sum of Mulliken charges =   0.00000

 Dipole moment (field-independent basis, Debye):
    X=             -1.2151    Y=             -4.1234    Z=             -0.0000  Tot=              4.2987
 Quadrupole moment (field-independent basis, Debye-Ang):
   XX=             -9.5233   YY=             -6.7621   ZZ=            -14.9953
   XY=             -7.4720   XZ=             -0.0000   YZ=             -0.0000

 938\MP4DQ=-33.8947482\MP4SDQ=-33.8967807\CCSD=-33.897822\CCSD(T)=-33.9
 Normal termination of Gaussian 16 at Sun Dec 10 06:29:40 2023.
