 Gaussian 16, Revision A.03,
 Gaussian 16:  ES64L-G16RevA.03 25-Dec-2016

 ------------------
 #p CCSD(T)/CEP-31G
 ------------------

 ------------
 H2O_H2O_2950
 ------------
 Symbolic Z-matrix:
 Charge =  0 Multiplicity = 1

                         Standard orientation:
 ---------------------------------------------------------------------
 Center     Atomic      Atomic             Coordinates (Angstroms)
 Number     Number       Type             X           Y           Z
 ---------------------------------------------------------------------
      1          8           0        0.092949   -2.263560    0.000000
      2          1           0        0.092949   -1.280958    0.000000
      3          1           0       -0.836544   -2.582226    0.000000
      4          8           0        0.092949    2.130773    0.000000
      5          1           0        0.092949    3.113374    0.000000
      6          1           0       -0.836544    1.812106    0.000000
 ---------------------------------------------------------------------

 SCF Done:  E(RHF) =  -33.6523226515     A.U. after   11 cycles
 E2 =    -0.2284486142D+00 EUMP2 =    -0.33880771265706D+02
 CCSD(T)
 CCSD(T)= -0.33897769499D+02

 The electronic state is 1-A'.
 Alpha  occ. eigenvalues --   -1.36820  -1.34910  -0.72500  -0.70498  -0.56601
 Alpha  occ. eigenvalues --   -0.54634  -0.51391  -0.49476
 Alpha virt. eigenvalues --    0.17466   0.22068   0.29226   0.31588   0.79188
 Alpha virt. eigenvalues --    0.81079   0.82486   0.84032   0.85588   0.87586
 Alpha virt. eigenvalues --    1.15651   1.18536   1.20581   1.26281   2.55761

 Mulliken charges:
               1
     1  O   -0.743606
     2  H    0.379162
     3  H    0.364020
     4  O   -0.744188
     5  H    0.379017
     6  H    0.365595
 Sum of Mulliken charges =  -0.00000

 Dipole moment (field-independent basis, Debye):
    X=             -4.2511    Y=              3.1756    Z=              0.0000  Tot=              5.3062
 Quadrupole moment (field-independent basis, Debye-Ang):
   XX=            -11.2958   YY=             -9.5881   ZZ=            -14.9880
   XY=              2.2951   XZ=              0.0000   YZ=              0.0000

 3661\MP4DQ=-33.8921054\MP4SDQ=-33.8941478\CCSD=-33.8951929\CCSD(T)=-33
 Normal termination of Gaussian 16 at Sun Dec 10 06:26:06 2023.
