 Gaussian 16, Revision A.03,
 Gaussian 16:  ES64L-G16RevA.03 25-Dec-2016

 ------------------
 #p CCSD(T)/CEP-31G
 ------------------

 ------------
 H2O_H2O_2668
 ------------
 Symbolic Z-matrix:
 Charge =  0 Multiplicity = 1

                         Standard orientation:
 ---------------------------------------------------------------------
 Center     Atomic      Atomic             Coordinates (Angstroms)
 Number     Number       Type             X           Y           Z
 ---------------------------------------------------------------------
      1          8           0        0.033808    2.168196    0.000000
      2          1           0        0.031393    1.185598    0.000000
      3          1           0       -0.894899    2.489146    0.000000
      4          8           0        0.033808   -1.990687   -0.000000
      5          1           0        0.940687   -2.368942   -0.000000
      6          1           0       -0.618112   -2.725878   -0.000000
 ---------------------------------------------------------------------

 SCF Done:  E(RHF) =  -33.6563457107     A.U. after   11 cycles
 E2 =    -0.2283663157D+00 EUMP2 =    -0.33884712026423D+02
 CCSD(T)
 CCSD(T)= -0.33901603686D+02

 The electronic state is 1-A'.
 Alpha  occ. eigenvalues --   -1.36883  -1.33780  -0.72531  -0.69412  -0.56894
 Alpha  occ. eigenvalues --   -0.53630  -0.51519  -0.48418
 Alpha virt. eigenvalues --    0.18550   0.22757   0.29374   0.32910   0.79031
 Alpha virt. eigenvalues --    0.82073   0.83448   0.84540   0.85768   0.88119
 Alpha virt. eigenvalues --    1.16186   1.19667   1.20614   1.27913   2.55082

 Mulliken charges:
               1
     1  O   -0.759510
     2  H    0.392358
     3  H    0.365745
     4  O   -0.755562
     5  H    0.379528
     6  H    0.377441
 Sum of Mulliken charges =   0.00000

 Dipole moment (field-independent basis, Debye):
    X=             -1.5349    Y=             -4.2740    Z=             -0.0000  Tot=              4.5412
 Quadrupole moment (field-independent basis, Debye-Ang):
   XX=             -9.4282   YY=             -6.9158   ZZ=            -14.9976
   XY=             -6.4605   XZ=             -0.0000   YZ=              0.0000

 926\MP4DQ=-33.8959483\MP4SDQ=-33.8979961\CCSD=-33.8990292\CCSD(T)=-33.
 Normal termination of Gaussian 16 at Sun Dec 10 06:21:02 2023.
