 Gaussian 16, Revision A.03,
 Gaussian 16:  ES64L-G16RevA.03 25-Dec-2016

 ------------------
 #p CCSD(T)/CEP-31G
 ------------------

 ------------
 H2O_H2O_2301
 ------------
 Symbolic Z-matrix:
 Charge =  0 Multiplicity = 1

                         Standard orientation:
 ---------------------------------------------------------------------
 Center     Atomic      Atomic             Coordinates (Angstroms)
 Number     Number       Type             X           Y           Z
 ---------------------------------------------------------------------
      1          8           0        0.090686   -2.007504    0.000000
      2          1           0        0.090586   -1.024903    0.000000
      3          1           0       -0.838775   -2.326265    0.000000
      4          8           0        0.090686    1.868799    0.000000
      5          1           0        0.154852    2.849303    0.000000
      6          1           0       -0.857634    1.611510    0.000000
 ---------------------------------------------------------------------

 SCF Done:  E(RHF) =  -33.6531334146     A.U. after   11 cycles
 E2 =    -0.2286381607D+00 EUMP2 =    -0.33881771575298D+02
 CCSD(T)
 CCSD(T)= -0.33898784992D+02

 The electronic state is 1-A'.
 Alpha  occ. eigenvalues --   -1.37225  -1.34538  -0.72951  -0.70091  -0.57065
 Alpha  occ. eigenvalues --   -0.54258  -0.51800  -0.49105
 Alpha virt. eigenvalues --    0.16872   0.23018   0.28908   0.32825   0.78652
 Alpha virt. eigenvalues --    0.81598   0.82814   0.84446   0.87763   0.89188
 Alpha virt. eigenvalues --    1.15423   1.18767   1.20530   1.33086   2.55436

 Mulliken charges:
               1
     1  O   -0.748152
     2  H    0.385983
     3  H    0.360742
     4  O   -0.747749
     5  H    0.383558
     6  H    0.365619
 Sum of Mulliken charges =  -0.00000

 Dipole moment (field-independent basis, Debye):
    X=             -4.1254    Y=              3.3783    Z=              0.0000  Tot=              5.3322
 Quadrupole moment (field-independent basis, Debye-Ang):
   XX=            -11.1517   YY=             -9.2203   ZZ=            -14.9888
   XY=              2.5343   XZ=              0.0000   YZ=              0.0000

 \MP4DQ=-33.8930704\MP4SDQ=-33.8951475\CCSD=-33.8961797\CCSD(T)=-33.898
 Normal termination of Gaussian 16 at Sun Dec 10 07:03:46 2023.
