 Gaussian 16, Revision A.03,
 Gaussian 16:  ES64L-G16RevA.03 25-Dec-2016

 ------------------
 #p CCSD(T)/CEP-31G
 ------------------

 -----------
 H2O_H2O_949
 -----------
 Symbolic Z-matrix:
 Charge =  0 Multiplicity = 1

                         Standard orientation:
 ---------------------------------------------------------------------
 Center     Atomic      Atomic             Coordinates (Angstroms)
 Number     Number       Type             X           Y           Z
 ---------------------------------------------------------------------
      1          8           0        0.013671   -1.470204    0.000000
      2          1           0        0.008824   -0.487615    0.000000
      3          1           0       -0.914239   -1.793451    0.000000
      4          8           0        0.013671    1.310995    0.000000
      5          1           0        0.996261    1.315840    0.000000
      6          1           0       -0.309576    2.238905    0.000000
 ---------------------------------------------------------------------

 SCF Done:  E(RHF) =  -33.6604199681     A.U. after   11 cycles
 E2 =    -0.2285854721D+00 EUMP2 =    -0.33889005440133D+02
 CCSD(T)
 CCSD(T)= -0.33905577702D+02

 The electronic state is 1-A'.
 Alpha  occ. eigenvalues --   -1.39158  -1.31573  -0.75269  -0.68130  -0.59519
 Alpha  occ. eigenvalues --   -0.53785  -0.51092  -0.46241
 Alpha virt. eigenvalues --    0.17560   0.26527   0.27808   0.45483   0.75193
 Alpha virt. eigenvalues --    0.78128   0.86423   0.86428   0.91030   1.10512
 Alpha virt. eigenvalues --    1.15756   1.21362   1.25142   1.36971   2.55028

 Mulliken charges:
               1
     1  O   -0.777691
     2  H    0.405469
     3  H    0.360161
     4  O   -0.813078
     5  H    0.397387
     6  H    0.427753
 Sum of Mulliken charges =   0.00000

 Dipole moment (field-independent basis, Debye):
    X=             -0.6129    Y=              4.2693    Z=              0.0000  Tot=              4.3131
 Quadrupole moment (field-independent basis, Debye-Ang):
   XX=             -9.8338   YY=             -9.0258   ZZ=            -15.0126
   XY=              5.1799   XZ=              0.0000   YZ=              0.0000

 \MP4DQ=-33.8996854\MP4SDQ=-33.9018499\CCSD=-33.9027986\CCSD(T)=-33.905
 Normal termination of Gaussian 16 at Sun Dec 10 06:36:22 2023.
