 Gaussian 16, Revision A.03,
 Gaussian 16:  ES64L-G16RevA.03 25-Dec-2016

 ------------------
 #p CCSD(T)/CEP-31G
 ------------------

 ------------
 H2O_H2O_1860
 ------------
 Symbolic Z-matrix:
 Charge =  0 Multiplicity = 1

                         Standard orientation:
 ---------------------------------------------------------------------
 Center     Atomic      Atomic             Coordinates (Angstroms)
 Number     Number       Type             X           Y           Z
 ---------------------------------------------------------------------
      1          8           0        0.063265    1.847982   -0.000000
      2          1           0        0.061832    0.865381   -0.000000
      3          1           0       -0.865763    2.168003   -0.000000
      4          8           0        0.063265   -1.672515    0.000000
      5          1           0        0.660297   -2.452936    0.000000
      6          1           0       -0.868599   -1.984180    0.000000
 ---------------------------------------------------------------------

 SCF Done:  E(RHF) =  -33.6581167132     A.U. after   11 cycles
 E2 =    -0.2286934924D+00 EUMP2 =    -0.33886810205643D+02
 CCSD(T)
 CCSD(T)= -0.33903700192D+02

 The electronic state is 1-A'.
 Alpha  occ. eigenvalues --   -1.37545  -1.33084  -0.73216  -0.68730  -0.57760
 Alpha  occ. eigenvalues --   -0.52879  -0.52197  -0.47718
 Alpha virt. eigenvalues --    0.17907   0.24159   0.28815   0.35881   0.78004
 Alpha virt. eigenvalues --    0.82379   0.83156   0.85589   0.89617   0.92808
 Alpha virt. eigenvalues --    1.15470   1.19911   1.20489   1.34111   2.51187

 Mulliken charges:
               1
     1  O   -0.768274
     2  H    0.408834
     3  H    0.357246
     4  O   -0.765310
     5  H    0.390552
     6  H    0.376953
 Sum of Mulliken charges =   0.00000

 Dipole moment (field-independent basis, Debye):
    X=             -2.8462    Y=             -4.3530    Z=              0.0000  Tot=              5.2010
 Quadrupole moment (field-independent basis, Debye-Ang):
   XX=             -9.7764   YY=             -7.7693   ZZ=            -15.0010
   XY=             -4.3257   XZ=              0.0000   YZ=             -0.0000

 3\MP4DQ=-33.8979618\MP4SDQ=-33.9000479\CCSD=-33.901069\CCSD(T)=-33.903
 Normal termination of Gaussian 16 at Sun Dec 10 06:54:00 2023.
