 Gaussian 16, Revision A.03,
 Gaussian 16:  ES64L-G16RevA.03 25-Dec-2016

 ------------------
 #p CCSD(T)/CEP-31G
 ------------------

 ------------
 H2O_H2O_2493
 ------------
 Symbolic Z-matrix:
 Charge =  0 Multiplicity = 1

                         Standard orientation:
 ---------------------------------------------------------------------
 Center     Atomic      Atomic             Coordinates (Angstroms)
 Number     Number       Type             X           Y           Z
 ---------------------------------------------------------------------
      1          8           0        0.033816    2.098390    0.000000
      2          1           0        0.031317    1.115791    0.000000
      3          1           0       -0.894864    2.419419    0.000000
      4          8           0        0.033816   -1.920886    0.000000
      5          1           0        0.940662   -2.299218    0.000000
      6          1           0       -0.618166   -2.656022    0.000000
 ---------------------------------------------------------------------

 SCF Done:  E(RHF) =  -33.6568844211     A.U. after   11 cycles
 E2 =    -0.2284042832D+00 EUMP2 =    -0.33885288704324D+02
 CCSD(T)
 CCSD(T)= -0.33902175382D+02

 The electronic state is 1-A'.
 Alpha  occ. eigenvalues --   -1.36989  -1.33631  -0.72638  -0.69266  -0.57044
 Alpha  occ. eigenvalues --   -0.53488  -0.51632  -0.48276
 Alpha virt. eigenvalues --    0.18418   0.23042   0.29302   0.33303   0.78891
 Alpha virt. eigenvalues --    0.82237   0.83672   0.84969   0.86051   0.88262
 Alpha virt. eigenvalues --    1.16090   1.19852   1.20540   1.29280   2.54397

 Mulliken charges:
               1
     1  O   -0.761985
     2  H    0.395116
     3  H    0.365130
     4  O   -0.757217
     5  H    0.380536
     6  H    0.378421
 Sum of Mulliken charges =  -0.00000

 Dipole moment (field-independent basis, Debye):
    X=             -1.5323    Y=             -4.2952    Z=              0.0000  Tot=              4.5603
 Quadrupole moment (field-independent basis, Debye-Ang):
   XX=             -9.4266   YY=             -7.0739   ZZ=            -14.9986
   XY=             -6.2672   XZ=              0.0000   YZ=              0.0000

 37\MP4DQ=-33.8965088\MP4SDQ=-33.8985634\CCSD=-33.8995937\CCSD(T)=-33.9
 Normal termination of Gaussian 16 at Sun Dec 10 07:07:21 2023.
