 Gaussian 16, Revision A.03,
 Gaussian 16:  ES64L-G16RevA.03 25-Dec-2016

 ------------------
 #p CCSD(T)/CEP-31G
 ------------------

 ------------
 H2O_H2O_2501
 ------------
 Symbolic Z-matrix:
 Charge =  0 Multiplicity = 1

                         Standard orientation:
 ---------------------------------------------------------------------
 Center     Atomic      Atomic             Coordinates (Angstroms)
 Number     Number       Type             X           Y           Z
 ---------------------------------------------------------------------
      1          8           0        0.090685   -2.087280    0.000000
      2          1           0        0.090590   -1.104679    0.000000
      3          1           0       -0.838777   -2.406037    0.000000
      4          8           0        0.090685    1.948574    0.000000
      5          1           0        0.154856    2.929077    0.000000
      6          1           0       -0.857634    1.691289    0.000000
 ---------------------------------------------------------------------

 SCF Done:  E(RHF) =  -33.6529554396     A.U. after   11 cycles
 E2 =    -0.2285570207D+00 EUMP2 =    -0.33881512460312D+02
 CCSD(T)
 CCSD(T)= -0.33898514413D+02

 The electronic state is 1-A'.
 Alpha  occ. eigenvalues --   -1.37078  -1.34632  -0.72783  -0.70200  -0.56900
 Alpha  occ. eigenvalues --   -0.54357  -0.51654  -0.49200
 Alpha virt. eigenvalues --    0.17049   0.22704   0.29035   0.32303   0.78869
 Alpha virt. eigenvalues --    0.81419   0.82836   0.84363   0.87103   0.87931
 Alpha virt. eigenvalues --    1.15507   1.18819   1.20488   1.30671   2.55910

 Mulliken charges:
               1
     1  O   -0.746862
     2  H    0.383925
     3  H    0.361879
     4  O   -0.746674
     5  H    0.381831
     6  H    0.365901
 Sum of Mulliken charges =   0.00000

 Dipole moment (field-independent basis, Debye):
    X=             -4.1331    Y=              3.3560    Z=              0.0000  Tot=              5.3240
 Quadrupole moment (field-independent basis, Debye-Ang):
   XX=            -11.1475   YY=             -9.2016   ZZ=            -14.9888
   XY=              2.5459   XZ=              0.0000   YZ=              0.0000

 0834\MP4DQ=-33.8928216\MP4SDQ=-33.8948848\CCSD=-33.8959212\CCSD(T)=-33
 Normal termination of Gaussian 16 at Sun Dec 10 06:18:02 2023.
