 Gaussian 16, Revision A.03,
 Gaussian 16:  ES64L-G16RevA.03 25-Dec-2016

 ------------------
 #p CCSD(T)/CEP-31G
 ------------------

 ------------
 H2O_H2O_2778
 ------------
 Symbolic Z-matrix:
 Charge =  0 Multiplicity = 1

                         Standard orientation:
 ---------------------------------------------------------------------
 Center     Atomic      Atomic             Coordinates (Angstroms)
 Number     Number       Type             X           Y           Z
 ---------------------------------------------------------------------
      1          8           0        0.085602   -2.202885    0.000000
      2          1           0        0.085309   -1.220284    0.000000
      3          1           0       -0.843796   -2.521829    0.000000
      4          8           0        0.085602    2.053292    0.000000
      5          1           0        0.277011    3.017070    0.000000
      6          1           0       -0.888161    1.921792    0.000000
 ---------------------------------------------------------------------

 SCF Done:  E(RHF) =  -33.6533784231     A.U. after   11 cycles
 E2 =    -0.2284484981D+00 EUMP2 =    -0.33881826921229D+02
 CCSD(T)
 CCSD(T)= -0.33898799663D+02

 The electronic state is 1-A'.
 Alpha  occ. eigenvalues --   -1.36890  -1.34518  -0.72568  -0.70106  -0.56728
 Alpha  occ. eigenvalues --   -0.54267  -0.51477  -0.49099
 Alpha virt. eigenvalues --    0.17781   0.22291   0.29209   0.31989   0.79091
 Alpha virt. eigenvalues --    0.81445   0.82735   0.84450   0.85757   0.87904
 Alpha virt. eigenvalues --    1.15832   1.18944   1.20539   1.27638   2.56063

 Mulliken charges:
               1
     1  O   -0.747897
     2  H    0.384202
     3  H    0.362896
     4  O   -0.747634
     5  H    0.380296
     6  H    0.368136
 Sum of Mulliken charges =  -0.00000

 Dipole moment (field-independent basis, Debye):
    X=             -3.9077    Y=              3.5938    Z=              0.0000  Tot=              5.3090
 Quadrupole moment (field-independent basis, Debye-Ang):
   XX=            -10.8157   YY=             -8.4673   ZZ=            -14.9906
   XY=              3.0954   XZ=              0.0000   YZ=              0.0000

 888\MP4DQ=-33.8931323\MP4SDQ=-33.8951804\CCSD=-33.8962207\CCSD(T)=-33.
 Normal termination of Gaussian 16 at Sun Dec 10 06:23:00 2023.
