 Gaussian 16, Revision A.03,
 Gaussian 16:  ES64L-G16RevA.03 25-Dec-2016

 ------------------
 #p CCSD(T)/CEP-31G
 ------------------

 ------------
 H2O_H2O_2039
 ------------
 Symbolic Z-matrix:
 Charge =  0 Multiplicity = 1

                         Standard orientation:
 ---------------------------------------------------------------------
 Center     Atomic      Atomic             Coordinates (Angstroms)
 Number     Number       Type             X           Y           Z
 ---------------------------------------------------------------------
      1          8           0        0.048619    1.920439    0.000000
      2          1           0        0.046561    0.937840    0.000000
      3          1           0       -0.880205    2.241052    0.000000
      4          8           0        0.048619   -1.740090    0.000000
      5          1           0        0.826914   -2.339891    0.000000
      6          1           0       -0.771173   -2.281799    0.000000
 ---------------------------------------------------------------------

 SCF Done:  E(RHF) =  -33.6583260834     A.U. after   11 cycles
 E2 =    -0.2285777996D+00 EUMP2 =    -0.33886903882987D+02
 CCSD(T)
 CCSD(T)= -0.33903773874D+02

 The electronic state is 1-A'.
 Alpha  occ. eigenvalues --   -1.37348  -1.33125  -0.72997  -0.68771  -0.57552
 Alpha  occ. eigenvalues --   -0.52964  -0.52008  -0.47775
 Alpha virt. eigenvalues --    0.18176   0.23902   0.29021   0.35066   0.78339
 Alpha virt. eigenvalues --    0.82916   0.83044   0.85948   0.88609   0.89728
 Alpha virt. eigenvalues --    1.15751   1.20153   1.20405   1.32263   2.51880

 Mulliken charges:
               1
     1  O   -0.768657
     2  H    0.405911
     3  H    0.360480
     4  O   -0.762958
     5  H    0.385909
     6  H    0.379314
 Sum of Mulliken charges =  -0.00000

 Dipole moment (field-independent basis, Debye):
    X=             -2.1918    Y=             -4.4352    Z=              0.0000  Tot=              4.9473
 Quadrupole moment (field-independent basis, Debye-Ang):
   XX=             -9.4522   YY=             -7.4143   ZZ=            -15.0016
   XY=             -5.1064   XZ=              0.0000   YZ=              0.0000

 21\MP4DQ=-33.8980666\MP4SDQ=-33.9001387\CCSD=-33.9011623\CCSD(T)=-33.9
 Normal termination of Gaussian 16 at Sun Dec 10 06:57:22 2023.
