 Gaussian 16, Revision A.03,
 Gaussian 16:  ES64L-G16RevA.03 25-Dec-2016

 ------------------
 #p CCSD(T)/CEP-31G
 ------------------

 -----------
 H2O_H2O_107
 -----------
 Symbolic Z-matrix:
 Charge =  0 Multiplicity = 1

                         Standard orientation:
 ---------------------------------------------------------------------
 Center     Atomic      Atomic             Coordinates (Angstroms)
 Number     Number       Type             X           Y           Z
 ---------------------------------------------------------------------
      1          8           0        0.073606   -1.145251    0.000000
      2          1           0        0.072054   -0.162651    0.000000
      3          1           0       -0.855383   -1.465385    0.000000
      4          8           0        0.073606    0.978433    0.000000
      5          1           0        0.506808    1.860387    0.000000
      6          1           0       -0.901171    1.102194    0.000000
 ---------------------------------------------------------------------

 SCF Done:  E(RHF) =  -33.5980777411     A.U. after   11 cycles
 E2 =    -0.2279605431D+00 EUMP2 =    -0.33826038284144D+02
 CCSD(T)
 CCSD(T)= -0.33840956923D+02

 The electronic state is 1-A'.
 Alpha  occ. eigenvalues --   -1.45843  -1.27831  -0.82600  -0.74895  -0.58739
 Alpha  occ. eigenvalues --   -0.55206  -0.45201  -0.41807
 Alpha virt. eigenvalues --    0.16014   0.24018   0.30128   0.61251   0.73166
 Alpha virt. eigenvalues --    0.74280   0.88850   0.91190   0.95233   1.07856
 Alpha virt. eigenvalues --    1.10905   1.21059   1.27716   1.38045   3.03293

 Mulliken charges:
               1
     1  O   -0.713746
     2  H    0.292319
     3  H    0.300337
     4  O   -0.785950
     5  H    0.495130
     6  H    0.411909
 Sum of Mulliken charges =  -0.00000

 Dipole moment (field-independent basis, Debye):
    X=             -2.9647    Y=              5.3818    Z=              0.0000  Tot=              6.1444
 Quadrupole moment (field-independent basis, Debye-Ang):
   XX=            -10.1206   YY=            -10.4971   ZZ=            -14.9176
   XY=              3.0357   XZ=              0.0000   YZ=              0.0000

 44\MP4DQ=-33.8346461\MP4SDQ=-33.8370977\CCSD=-33.837734\CCSD(T)=-33.84
 Normal termination of Gaussian 16 at Sun Dec 10 06:20:09 2023.
