 Gaussian 16, Revision A.03,
 Gaussian 16:  ES64L-G16RevA.03 25-Dec-2016

 ------------------
 #p CCSD(T)/CEP-31G
 ------------------

 ------------
 H2O_H2O_3432
 ------------
 Symbolic Z-matrix:
 Charge =  0 Multiplicity = 1

                         Standard orientation:
 ---------------------------------------------------------------------
 Center     Atomic      Atomic             Coordinates (Angstroms)
 Number     Number       Type             X           Y           Z
 ---------------------------------------------------------------------
      1          8           0        0.073533    2.471582   -0.000000
      2          1           0        0.072843    1.488981   -0.000000
      3          1           0       -0.855736    2.790901   -0.000000
      4          8           0        0.073533   -2.304635    0.000000
      5          1           0        0.507508   -3.186208    0.000000
      6          1           0       -0.901135   -2.429251    0.000000
 ---------------------------------------------------------------------

 SCF Done:  E(RHF) =  -33.6535605851     A.U. after   11 cycles
 E2 =    -0.2283319518D+00 EUMP2 =    -0.33881892536935D+02
 CCSD(T)
 CCSD(T)= -0.33898843841D+02

 The electronic state is 1-A'.
 Alpha  occ. eigenvalues --   -1.36567  -1.34485  -0.72219  -0.70095  -0.56408
 Alpha  occ. eigenvalues --   -0.54259  -0.51162  -0.49077
 Alpha virt. eigenvalues --    0.18981   0.21649   0.29502   0.31807   0.79408
 Alpha virt. eigenvalues --    0.81432   0.82271   0.84470   0.85372   0.87729
 Alpha virt. eigenvalues --    1.16389   1.18628   1.20786   1.23965   2.56399

 Mulliken charges:
               1
     1  O   -0.748093
     2  H    0.382639
     3  H    0.365187
     4  O   -0.747749
     5  H    0.377477
     6  H    0.370538
 Sum of Mulliken charges =   0.00000

 Dipole moment (field-independent basis, Debye):
    X=             -3.3662    Y=             -3.9601    Z=              0.0000  Tot=              5.1975
 Quadrupole moment (field-independent basis, Debye-Ang):
   XX=            -10.1699   YY=             -6.9979   ZZ=            -14.9919
   XY=             -4.3588   XZ=              0.0000   YZ=             -0.0000

 4567\MP4DQ=-33.8932041\MP4SDQ=-33.8952338\CCSD=-33.8962812\CCSD(T)=-33
 Normal termination of Gaussian 16 at Sun Dec 10 06:34:48 2023.
