 Gaussian 16, Revision A.03,
 Gaussian 16:  ES64L-G16RevA.03 25-Dec-2016

 ------------------
 #p CCSD(T)/CEP-31G
 ------------------

 ------------
 H2O_H2O_3883
 ------------
 Symbolic Z-matrix:
 Charge =  0 Multiplicity = 1

                         Standard orientation:
 ---------------------------------------------------------------------
 Center     Atomic      Atomic             Coordinates (Angstroms)
 Number     Number       Type             X           Y           Z
 ---------------------------------------------------------------------
      1          8           0        0.070190    2.652876   -0.000000
      2          1           0        0.069438    1.670275   -0.000000
      3          1           0       -0.859059    2.972253    0.000000
      4          8           0        0.070190   -2.482617   -0.000000
      5          1           0        0.560839   -3.333950   -0.000000
      6          1           0       -0.894252   -2.670651    0.000000
 ---------------------------------------------------------------------

 SCF Done:  E(RHF) =  -33.6532704165     A.U. after   11 cycles
 E2 =    -0.2283151787D+00 EUMP2 =    -0.33881585595190D+02
 CCSD(T)
 CCSD(T)= -0.33898543919D+02

 The electronic state is 1-A'.
 Alpha  occ. eigenvalues --   -1.36418  -1.34603  -0.72065  -0.70221  -0.56241
 Alpha  occ. eigenvalues --   -0.54376  -0.51010  -0.49194
 Alpha virt. eigenvalues --    0.19322   0.21374   0.29662   0.31621   0.79552
 Alpha virt. eigenvalues --    0.81321   0.82367   0.84341   0.85542   0.87524
 Alpha virt. eigenvalues --    1.16545   1.18394   1.20958   1.23125   2.56512

 Mulliken charges:
               1
     1  O   -0.746940
     2  H    0.380528
     3  H    0.366332
     4  O   -0.746677
     5  H    0.376051
     6  H    0.370707
 Sum of Mulliken charges =  -0.00000

 Dipole moment (field-independent basis, Debye):
    X=             -3.2191    Y=             -4.0155    Z=              0.0000  Tot=              5.1465
 Quadrupole moment (field-independent basis, Debye-Ang):
   XX=            -10.0256   YY=             -6.4491   ZZ=            -14.9914
   XY=             -4.8333   XZ=             -0.0000   YZ=              0.0000

 1612\MP4DQ=-33.8929079\MP4SDQ=-33.8949337\CCSD=-33.8959844\CCSD(T)=-33
 Normal termination of Gaussian 16 at Sun Dec 10 06:42:53 2023.
