 Gaussian 16, Revision A.03,
 Gaussian 16:  ES64L-G16RevA.03 25-Dec-2016

 ------------------
 #p CCSD(T)/CEP-31G
 ------------------

 ------------
 H2O_H2O_2641
 ------------
 Symbolic Z-matrix:
 Charge =  0 Multiplicity = 1

                         Standard orientation:
 ---------------------------------------------------------------------
 Center     Atomic      Atomic             Coordinates (Angstroms)
 Number     Number       Type             X           Y           Z
 ---------------------------------------------------------------------
      1          8           0        0.041157    2.159526    0.000000
      2          1           0        0.039032    1.176927    0.000000
      3          1           0       -0.887644    2.480202   -0.000000
      4          8           0        0.041157   -1.979617    0.000000
      5          1           0        0.891051   -2.472757    0.000000
      6          1           0       -0.700957   -2.623645   -0.000000
 ---------------------------------------------------------------------

 SCF Done:  E(RHF) =  -33.6563402544     A.U. after   11 cycles
 E2 =    -0.2283798983D+00 EUMP2 =    -0.33884720152629D+02
 CCSD(T)
 CCSD(T)= -0.33901611792D+02

 The electronic state is 1-A'.
 Alpha  occ. eigenvalues --   -1.36906  -1.33725  -0.72553  -0.69350  -0.56920
 Alpha  occ. eigenvalues --   -0.53569  -0.51542  -0.48360
 Alpha virt. eigenvalues --    0.18562   0.22805   0.29362   0.32979   0.79007
 Alpha virt. eigenvalues --    0.82132   0.83757   0.84456   0.85619   0.88221
 Alpha virt. eigenvalues --    1.16170   1.19704   1.20599   1.27937   2.54910

 Mulliken charges:
               1
     1  O   -0.759500
     2  H    0.393311
     3  H    0.364703
     4  O   -0.755375
     5  H    0.380180
     6  H    0.376680
 Sum of Mulliken charges =   0.00000

 Dipole moment (field-independent basis, Debye):
    X=             -1.8690    Y=             -4.3367    Z=             -0.0000  Tot=              4.7223
 Quadrupole moment (field-independent basis, Debye-Ang):
   XX=             -9.4059   YY=             -6.8232   ZZ=            -14.9976
   XY=             -6.0180   XZ=              0.0000   YZ=             -0.0000

 1995\MP4DQ=-33.8959547\MP4SDQ=-33.8980035\CCSD=-33.8990363\CCSD(T)=-33
 Normal termination of Gaussian 16 at Sun Dec 10 06:20:33 2023.
