 Gaussian 16, Revision A.03,
 Gaussian 16:  ES64L-G16RevA.03 25-Dec-2016

 ------------------
 #p CCSD(T)/CEP-31G
 ------------------

 ------------
 H2O_H2O_1058
 ------------
 Symbolic Z-matrix:
 Charge =  0 Multiplicity = 1

                         Standard orientation:
 ---------------------------------------------------------------------
 Center     Atomic      Atomic             Coordinates (Angstroms)
 Number     Number       Type             X           Y           Z
 ---------------------------------------------------------------------
      1          8           0        0.070241    1.526006    0.000000
      2          1           0        0.068901    0.543405    0.000000
      3          1           0       -0.858817    1.845939    0.000000
      4          8           0        0.070241   -1.355831    0.000000
      5          1           0        0.560381   -2.207457    0.000000
      6          1           0       -0.894314   -1.543288    0.000000
 ---------------------------------------------------------------------

 SCF Done:  E(RHF) =  -33.6595603262     A.U. after   11 cycles
 E2 =    -0.2290511569D+00 EUMP2 =    -0.33888611483102D+02
 CCSD(T)
 CCSD(T)= -0.33905263719D+02

 The electronic state is 1-A'.
 Alpha  occ. eigenvalues --   -1.38915  -1.31824  -0.74706  -0.68312  -0.59097
 Alpha  occ. eigenvalues --   -0.53565  -0.51356  -0.46407
 Alpha virt. eigenvalues --    0.17308   0.26007   0.27782   0.43848   0.75613
 Alpha virt. eigenvalues --    0.78305   0.85280   0.85922   0.93587   1.07681
 Alpha virt. eigenvalues --    1.16098   1.17730   1.22008   1.36400   2.52143

 Mulliken charges:
               1
     1  O   -0.772132
     2  H    0.424579
     3  H    0.344327
     4  O   -0.801603
     5  H    0.421520
     6  H    0.383308
 Sum of Mulliken charges =  -0.00000

 Dipole moment (field-independent basis, Debye):
    X=             -3.0764    Y=             -4.4820    Z=              0.0000  Tot=              5.4363
 Quadrupole moment (field-independent basis, Debye-Ang):
   XX=            -10.0318   YY=             -8.7687   ZZ=            -15.0085
   XY=             -3.6469   XZ=              0.0000   YZ=              0.0000

 954\MP4DQ=-33.8993783\MP4SDQ=-33.9015303\CCSD=-33.9024917\CCSD(T)=-33.
 Normal termination of Gaussian 16 at Sun Dec 10 06:38:24 2023.
