 Gaussian 16, Revision A.03,
 Gaussian 16:  ES64L-G16RevA.03 25-Dec-2016

 ------------------
 #p CCSD(T)/CEP-31G
 ------------------

 ------------
 H2O_H2O_3518
 ------------
 Symbolic Z-matrix:
 Charge =  0 Multiplicity = 1

                         Standard orientation:
 ---------------------------------------------------------------------
 Center     Atomic      Atomic             Coordinates (Angstroms)
 Number     Number       Type             X           Y           Z
 ---------------------------------------------------------------------
      1          8           0        0.033778    2.507252   -0.000000
      2          1           0        0.031701    1.524653   -0.000000
      3          1           0       -0.895040    2.827882   -0.000000
      4          8           0        0.033778   -2.329720    0.000000
      5          1           0        0.940787   -2.707662    0.000000
      6          1           0       -0.617889   -3.065136    0.000000
 ---------------------------------------------------------------------

 SCF Done:  E(RHF) =  -33.6545111095     A.U. after   11 cycles
 E2 =    -0.2282822062D+00 EUMP2 =    -0.33882793315684D+02
 CCSD(T)
 CCSD(T)= -0.33899717444D+02

 The electronic state is 1-A'.
 Alpha  occ. eigenvalues --   -1.36501  -1.34310  -0.72143  -0.69941  -0.56393
 Alpha  occ. eigenvalues --   -0.54127  -0.51112  -0.48924
 Alpha virt. eigenvalues --    0.19227   0.21784   0.29655   0.31996   0.79450
 Alpha virt. eigenvalues --    0.81569   0.82223   0.84552   0.85479   0.87701
 Alpha virt. eigenvalues --    1.16515   1.18811   1.20925   1.23843   2.56471

 Mulliken charges:
               1
     1  O   -0.751726
     2  H    0.383771
     3  H    0.367695
     4  O   -0.750411
     5  H    0.376132
     6  H    0.374539
 Sum of Mulliken charges =  -0.00000

 Dipole moment (field-independent basis, Debye):
    X=             -1.5441    Y=             -4.2015    Z=              0.0000  Tot=              4.4763
 Quadrupole moment (field-independent basis, Debye-Ang):
   XX=             -9.4337   YY=             -6.1851   ZZ=            -14.9941
   XY=             -7.3944   XZ=              0.0000   YZ=             -0.0000

 41\MP4DQ=-33.8940862\MP4SDQ=-33.8961127\CCSD=-33.8971588\CCSD(T)=-33.8
 Normal termination of Gaussian 16 at Sun Dec 10 06:36:19 2023.
