 Gaussian 16, Revision A.03,
 Gaussian 16:  ES64L-G16RevA.03 25-Dec-2016

 ------------------
 #p CCSD(T)/CEP-31G
 ------------------

 ------------
 H2O_H2O_3164
 ------------
 Symbolic Z-matrix:
 Charge =  0 Multiplicity = 1

                         Standard orientation:
 ---------------------------------------------------------------------
 Center     Atomic      Atomic             Coordinates (Angstroms)
 Number     Number       Type             X           Y           Z
 ---------------------------------------------------------------------
      1          8           0        0.048582    2.369196    0.000000
      2          1           0        0.046929    1.386595    0.000000
      3          1           0       -0.880374    2.689425    0.000000
      4          8           0        0.048582   -2.188806   -0.000000
      5          1           0        0.827125   -2.788286   -0.000000
      6          1           0       -0.770986   -2.730853   -0.000000
 ---------------------------------------------------------------------

 SCF Done:  E(RHF) =  -33.6549247369     A.U. after   11 cycles
 E2 =    -0.2283145894D+00 EUMP2 =    -0.33883239326256D+02
 CCSD(T)
 CCSD(T)= -0.33900153674D+02

 The electronic state is 1-A'.
 Alpha  occ. eigenvalues --   -1.36647  -1.34099  -0.72292  -0.69719  -0.56566
 Alpha  occ. eigenvalues --   -0.53916  -0.51264  -0.48715
 Alpha virt. eigenvalues --    0.18976   0.22118   0.29543   0.32256   0.79305
 Alpha virt. eigenvalues --    0.81770   0.82381   0.84756   0.85315   0.87950
 Alpha virt. eigenvalues --    1.16385   1.19134   1.20811   1.24876   2.56193

 Mulliken charges:
               1
     1  O   -0.753402
     2  H    0.387109
     3  H    0.365683
     4  O   -0.751454
     5  H    0.378005
     6  H    0.374060
 Sum of Mulliken charges =   0.00000

 Dipole moment (field-independent basis, Debye):
    X=             -2.2171    Y=             -4.2967    Z=             -0.0000  Tot=              4.8350
 Quadrupole moment (field-independent basis, Debye-Ang):
   XX=             -9.4597   YY=             -6.3179   ZZ=            -14.9949
   XY=             -6.0389   XZ=             -0.0000   YZ=              0.0000

 7631\MP4DQ=-33.8945163\MP4SDQ=-33.8965492\CCSD=-33.8975909\CCSD(T)=-33
 Normal termination of Gaussian 16 at Sun Dec 10 06:30:01 2023.
