 Gaussian 16, Revision A.03,
 Gaussian 16:  ES64L-G16RevA.03 25-Dec-2016

 ------------------
 #p CCSD(T)/CEP-31G
 ------------------

 ----------
 H2O_H2O_62
 ----------
 Symbolic Z-matrix:
 Charge =  0 Multiplicity = 1

                         Standard orientation:
 ---------------------------------------------------------------------
 Center     Atomic      Atomic             Coordinates (Angstroms)
 Number     Number       Type             X           Y           Z
 ---------------------------------------------------------------------
      1          8           0        0.056138    1.131780   -0.000000
      2          1           0        0.053128    0.149183   -0.000000
      3          1           0       -0.872375    1.453292    0.000000
      4          8           0        0.056138   -0.953057   -0.000000
      5          1           0        0.748810   -1.649986   -0.000000
      6          1           0       -0.827764   -1.382272    0.000000
 ---------------------------------------------------------------------

 SCF Done:  E(RHF) =  -33.5944185728     A.U. after   11 cycles
 E2 =    -0.2276180134D+00 EUMP2 =    -0.33822036586283D+02
 CCSD(T)
 CCSD(T)= -0.33836537656D+02

 The electronic state is 1-A'.
 Alpha  occ. eigenvalues --   -1.46293  -1.26646  -0.81155  -0.78384  -0.59293
 Alpha  occ. eigenvalues --   -0.54149  -0.43416  -0.40504
 Alpha virt. eigenvalues --    0.16046   0.24703   0.30512   0.62240   0.73181
 Alpha virt. eigenvalues --    0.73584   0.86111   0.92048   0.92085   1.08691
 Alpha virt. eigenvalues --    1.11763   1.16701   1.29955   1.35480   2.99580

 Mulliken charges:
               1
     1  O   -0.738195
     2  H    0.294932
     3  H    0.298270
     4  O   -0.764827
     5  H    0.473143
     6  H    0.436677
 Sum of Mulliken charges =   0.00000

 Dipole moment (field-independent basis, Debye):
    X=             -2.2404    Y=             -5.7699    Z=              0.0000  Tot=              6.1896
 Quadrupole moment (field-independent basis, Debye-Ang):
   XX=             -9.4595   YY=            -10.7926   ZZ=            -14.9176
   XY=             -3.2351   XZ=             -0.0000   YZ=              0.0000

 82\MP4DQ=-33.8302849\MP4SDQ=-33.8326888\CCSD=-33.8332611\CCSD(T)=-33.8
 Normal termination of Gaussian 16 at Sun Dec 10 06:19:15 2023.
