 Gaussian 16, Revision A.03,
 Gaussian 16:  ES64L-G16RevA.03 25-Dec-2016

 ------------------
 #p CCSD(T)/CEP-31G
 ------------------

 ------------
 H2O_H2O_4362
 ------------
 Symbolic Z-matrix:
 Charge =  0 Multiplicity = 1

                         Standard orientation:
 ---------------------------------------------------------------------
 Center     Atomic      Atomic             Coordinates (Angstroms)
 Number     Number       Type             X           Y           Z
 ---------------------------------------------------------------------
      1          8           0        0.055967    2.847056    0.000000
      2          1           0        0.054829    1.864455    0.000000
      3          1           0       -0.873156    3.166799    0.000000
      4          8           0        0.055967   -2.668120    0.000000
      5          1           0        0.749967   -3.363728    0.000000
      6          1           0       -0.827115   -3.099017    0.000000
 ---------------------------------------------------------------------

 SCF Done:  E(RHF) =  -33.6532756015     A.U. after   10 cycles
 E2 =    -0.2283041393D+00 EUMP2 =    -0.33881579740869D+02
 CCSD(T)
 CCSD(T)= -0.33898537740D+02

 The electronic state is 1-A'.
 Alpha  occ. eigenvalues --   -1.36290  -1.34640  -0.71930  -0.70266  -0.56111
 Alpha  occ. eigenvalues --   -0.54420  -0.50883  -0.49234
 Alpha virt. eigenvalues --    0.19540   0.21273   0.29810   0.31551   0.79672
 Alpha virt. eigenvalues --    0.81283   0.82517   0.84282   0.85707   0.87410
 Alpha virt. eigenvalues --    1.16677   1.18329   1.21118   1.22859   2.56645

 Mulliken charges:
               1
     1  O   -0.746936
     2  H    0.379316
     3  H    0.367601
     4  O   -0.746457
     5  H    0.374809
     6  H    0.371667
 Sum of Mulliken charges =  -0.00000

 Dipole moment (field-independent basis, Debye):
    X=             -2.5699    Y=             -4.2016    Z=              0.0000  Tot=              4.9252
 Quadrupole moment (field-independent basis, Debye-Ang):
   XX=             -9.5849   YY=             -5.3598   ZZ=            -14.9916
   XY=             -6.3717   XZ=              0.0000   YZ=              0.0000

 68\MP4DQ=-33.8929039\MP4SDQ=-33.894928\CCSD=-33.8959801\CCSD(T)=-33.89
 Normal termination of Gaussian 16 at Sun Dec 10 06:51:31 2023.
