 Gaussian 16, Revision A.03,
 Gaussian 16:  ES64L-G16RevA.03 25-Dec-2016

 ------------------
 #p CCSD(T)/CEP-31G
 ------------------

 ------------
 H2O_H2O_2711
 ------------
 Symbolic Z-matrix:
 Charge =  0 Multiplicity = 1

                         Standard orientation:
 ---------------------------------------------------------------------
 Center     Atomic      Atomic             Coordinates (Angstroms)
 Number     Number       Type             X           Y           Z
 ---------------------------------------------------------------------
      1          8           0        0.059650    2.188094   -0.000000
      2          1           0        0.058303    1.205494   -0.000000
      3          1           0       -0.869406    2.508034    0.000000
      4          8           0        0.059650   -2.010661   -0.000000
      5          1           0        0.706511   -2.750308   -0.000000
      6          1           0       -0.849803   -2.382685    0.000000
 ---------------------------------------------------------------------

 SCF Done:  E(RHF) =  -33.6555173282     A.U. after   11 cycles
 E2 =    -0.2283940975D+00 EUMP2 =    -0.33883911425686D+02
 CCSD(T)
 CCSD(T)= -0.33900822512D+02

 The electronic state is 1-A'.
 Alpha  occ. eigenvalues --   -1.36885  -1.33871  -0.72538  -0.69480  -0.56848
 Alpha  occ. eigenvalues --   -0.53686  -0.51508  -0.48490
 Alpha virt. eigenvalues --    0.18517   0.22607   0.29312   0.32757   0.79051
 Alpha virt. eigenvalues --    0.82008   0.83390   0.84792   0.85291   0.88243
 Alpha virt. eigenvalues --    1.16150   1.19510   1.20583   1.27538   2.55211

 Mulliken charges:
               1
     1  O   -0.756171
     2  H    0.391628
     3  H    0.363248
     4  O   -0.753183
     5  H    0.380642
     6  H    0.373836
 Sum of Mulliken charges =   0.00000

 Dipole moment (field-independent basis, Debye):
    X=             -2.7146    Y=             -4.2717    Z=              0.0000  Tot=              5.0612
 Quadrupole moment (field-independent basis, Debye-Ang):
   XX=             -9.6725   YY=             -6.8908   ZZ=            -14.9959
   XY=             -5.0182   XZ=             -0.0000   YZ=              0.0000

 124\MP4DQ=-33.8951649\MP4SDQ=-33.8972126\CCSD=-33.8982476\CCSD(T)=-33.
 Normal termination of Gaussian 16 at Sun Dec 10 06:21:48 2023.
