 Gaussian 16, Revision A.03,
 Gaussian 16:  ES64L-G16RevA.03 25-Dec-2016

 ------------------
 #p CCSD(T)/CEP-31G
 ------------------

 ------------
 H2O_H2O_2241
 ------------
 Symbolic Z-matrix:
 Charge =  0 Multiplicity = 1

                         Standard orientation:
 ---------------------------------------------------------------------
 Center     Atomic      Atomic             Coordinates (Angstroms)
 Number     Number       Type             X           Y           Z
 ---------------------------------------------------------------------
      1          8           0        0.041174    1.999968    0.000000
      2          1           0        0.038871    1.017370    0.000000
      3          1           0       -0.887570    2.320812    0.000000
      4          8           0        0.041174   -1.820074    0.000000
      5          1           0        0.890978   -2.313367    0.000000
      6          1           0       -0.701057   -2.463968    0.000000
 ---------------------------------------------------------------------

 SCF Done:  E(RHF) =  -33.6577061070     A.U. after   11 cycles
 E2 =    -0.2284864479D+00 EUMP2 =    -0.33886192554872D+02
 CCSD(T)
 CCSD(T)= -0.33903070226D+02

 The electronic state is 1-A'.
 Alpha  occ. eigenvalues --   -1.37173  -1.33346  -0.72821  -0.68984  -0.57306
 Alpha  occ. eigenvalues --   -0.53200  -0.51827  -0.47997
 Alpha virt. eigenvalues --    0.18296   0.23511   0.29167   0.34148   0.78626
 Alpha virt. eigenvalues --    0.82585   0.83528   0.85968   0.86776   0.88811
 Alpha virt. eigenvalues --    1.15928   1.20077   1.20435   1.30988   2.53043

 Mulliken charges:
               1
     1  O   -0.765775
     2  H    0.400765
     3  H    0.362856
     4  O   -0.759966
     5  H    0.383020
     6  H    0.379100
 Sum of Mulliken charges =  -0.00000

 Dipole moment (field-independent basis, Debye):
    X=             -1.8610    Y=             -4.3900    Z=              0.0000  Tot=              4.7682
 Quadrupole moment (field-independent basis, Debye-Ang):
   XX=             -9.4020   YY=             -7.2160   ZZ=            -15.0003
   XY=             -5.6298   XZ=              0.0000   YZ=              0.0000

 321\MP4DQ=-33.8973836\MP4SDQ=-33.8994479\CCSD=-33.9004746\CCSD(T)=-33.
 Normal termination of Gaussian 16 at Sun Dec 10 07:01:47 2023.
