 Gaussian 16, Revision A.03,
 Gaussian 16:  ES64L-G16RevA.03 25-Dec-2016

 ------------------
 #p CCSD(T)/CEP-31G
 ------------------

 ------------
 H2O_H2O_3363
 ------------
 Symbolic Z-matrix:
 Charge =  0 Multiplicity = 1

                         Standard orientation:
 ---------------------------------------------------------------------
 Center     Atomic      Atomic             Coordinates (Angstroms)
 Number     Number       Type             X           Y           Z
 ---------------------------------------------------------------------
      1          8           0        0.052293    2.448703    0.000000
      2          1           0        0.050830    1.466102    0.000000
      3          1           0       -0.876725    2.768753   -0.000000
      4          8           0        0.052293   -2.268805    0.000000
      5          1           0        0.790087   -2.917779    0.000000
      6          1           0       -0.800877   -2.756254   -0.000000
 ---------------------------------------------------------------------

 SCF Done:  E(RHF) =  -33.6544764260     A.U. after   11 cycles
 E2 =    -0.2283049126D+00 EUMP2 =    -0.33882781338550D+02
 CCSD(T)
 CCSD(T)= -0.33899706165D+02

 The electronic state is 1-A'.
 Alpha  occ. eigenvalues --   -1.36570  -1.34223  -0.72214  -0.69844  -0.56462
 Alpha  occ. eigenvalues --   -0.54031  -0.51180  -0.48833
 Alpha virt. eigenvalues --    0.19111   0.21909   0.29592   0.32087   0.79387
 Alpha virt. eigenvalues --    0.81658   0.82252   0.84699   0.85362   0.87846
 Alpha virt. eigenvalues --    1.16445   1.18928   1.20870   1.24189   2.56377

 Mulliken charges:
               1
     1  O   -0.751605
     2  H    0.385276
     3  H    0.365941
     4  O   -0.750211
     5  H    0.377368
     6  H    0.373231
 Sum of Mulliken charges =  -0.00000

 Dipole moment (field-independent basis, Debye):
    X=             -2.3900    Y=             -4.2703    Z=             -0.0000  Tot=              4.8936
 Quadrupole moment (field-independent basis, Debye-Ang):
   XX=             -9.5133   YY=             -6.1708   ZZ=            -14.9940
   XY=             -5.9457   XZ=              0.0000   YZ=             -0.0000

 199\MP4DQ=-33.8940716\MP4SDQ=-33.8961009\CCSD=-33.8971456\CCSD(T)=-33.
 Normal termination of Gaussian 16 at Sun Dec 10 06:33:35 2023.
