 Gaussian 16, Revision A.03,
 Gaussian 16:  ES64L-G16RevA.03 25-Dec-2016

 ------------------
 #p CCSD(T)/CEP-31G
 ------------------

 ------------
 H2O_H2O_1789
 ------------
 Symbolic Z-matrix:
 Charge =  0 Multiplicity = 1

                         Standard orientation:
 ---------------------------------------------------------------------
 Center     Atomic      Atomic             Coordinates (Angstroms)
 Number     Number       Type             X           Y           Z
 ---------------------------------------------------------------------
      1          8           0        0.048630    1.820715    0.000000
      2          1           0        0.046453    0.838116    0.000000
      3          1           0       -0.880155    2.141439   -0.000000
      4          8           0        0.048630   -1.640377    0.000000
      5          1           0        0.826854   -2.240272    0.000000
      6          1           0       -0.771226   -2.181986   -0.000000
 ---------------------------------------------------------------------

 SCF Done:  E(RHF) =  -33.6595582741     A.U. after   11 cycles
 E2 =    -0.2286987313D+00 EUMP2 =    -0.33888257005470D+02
 CCSD(T)
 CCSD(T)= -0.33905095130D+02

 The electronic state is 1-A'.
 Alpha  occ. eigenvalues --   -1.37594  -1.32785  -0.73240  -0.68488  -0.57927
 Alpha  occ. eigenvalues --   -0.52610  -0.52271  -0.47444
 Alpha virt. eigenvalues --    0.18059   0.24469   0.28843   0.36642   0.77868
 Alpha virt. eigenvalues --    0.82036   0.83471   0.86043   0.89805   0.92827
 Alpha virt. eigenvalues --    1.15508   1.20009   1.20668   1.33373   2.50548

 Mulliken charges:
               1
     1  O   -0.773879
     2  H    0.413406
     3  H    0.358381
     4  O   -0.769545
     5  H    0.389618
     6  H    0.382020
 Sum of Mulliken charges =   0.00000

 Dipole moment (field-independent basis, Debye):
    X=             -2.1820    Y=             -4.4825    Z=             -0.0000  Tot=              4.9853
 Quadrupole moment (field-independent basis, Debye-Ang):
   XX=             -9.4473   YY=             -7.6979   ZZ=            -15.0044
   XY=             -4.8971   XZ=              0.0000   YZ=             -0.0000

 246\MP4DQ=-33.8993606\MP4SDQ=-33.9014407\CCSD=-33.9024576\CCSD(T)=-33.
 Normal termination of Gaussian 16 at Sun Dec 10 06:52:39 2023.
