 Gaussian 16, Revision A.03,
 Gaussian 16:  ES64L-G16RevA.03 25-Dec-2016

 ------------------
 #p CCSD(T)/CEP-31G
 ------------------

 ------------
 H2O_H2O_3110
 ------------
 Symbolic Z-matrix:
 Charge =  0 Multiplicity = 1

                         Standard orientation:
 ---------------------------------------------------------------------
 Center     Atomic      Atomic             Coordinates (Angstroms)
 Number     Number       Type             X           Y           Z
 ---------------------------------------------------------------------
      1          8           0        0.063236    2.346598   -0.000000
      2          1           0        0.062120    1.363997   -0.000000
      3          1           0       -0.865894    2.666320    0.000000
      4          8           0        0.063236   -2.171090   -0.000000
      5          1           0        0.660521   -2.951320   -0.000000
      6          1           0       -0.868527   -2.483057    0.000000
 ---------------------------------------------------------------------

 SCF Done:  E(RHF) =  -33.6545196561     A.U. after   11 cycles
 E2 =    -0.2283397248D+00 EUMP2 =    -0.33882859380960D+02
 CCSD(T)
 CCSD(T)= -0.33899786282D+02

 The electronic state is 1-A'.
 Alpha  occ. eigenvalues --   -1.36686  -1.34175  -0.72336  -0.69785  -0.56582
 Alpha  occ. eigenvalues --   -0.53973  -0.51295  -0.48781
 Alpha virt. eigenvalues --    0.18832   0.22074   0.29444   0.32212   0.79277
 Alpha virt. eigenvalues --    0.81712   0.82440   0.84776   0.85220   0.87980
 Alpha virt. eigenvalues --    1.16321   1.19060   1.20721   1.25183   2.56144

 Mulliken charges:
               1
     1  O   -0.751883
     2  H    0.386677
     3  H    0.364574
     4  O   -0.750431
     5  H    0.378656
     6  H    0.372406
 Sum of Mulliken charges =  -0.00000

 Dipole moment (field-independent basis, Debye):
    X=             -2.8875    Y=             -4.1864    Z=              0.0000  Tot=              5.0856
 Quadrupole moment (field-independent basis, Debye-Ang):
   XX=             -9.7769   YY=             -6.6647   ZZ=            -14.9939
   XY=             -5.0169   XZ=             -0.0000   YZ=              0.0000

 929\MP4DQ=-33.8941439\MP4SDQ=-33.896179\CCSD=-33.897221\CCSD(T)=-33.89
 Normal termination of Gaussian 16 at Sun Dec 10 06:29:02 2023.
