 Gaussian 16, Revision A.03,
 Gaussian 16:  ES64L-G16RevA.03 25-Dec-2016

 ------------------
 #p CCSD(T)/CEP-31G
 ------------------

 ------------
 H2O_H2O_4463
 ------------
 Symbolic Z-matrix:
 Charge =  0 Multiplicity = 1

                         Standard orientation:
 ---------------------------------------------------------------------
 Center     Atomic      Atomic             Coordinates (Angstroms)
 Number     Number       Type             X           Y           Z
 ---------------------------------------------------------------------
      1          8           0        0.052272    2.887480   -0.000000
      2          1           0        0.051038    1.904879   -0.000000
      3          1           0       -0.876820    3.207313   -0.000000
      4          8           0        0.052272   -2.707558    0.000000
      5          1           0        0.790217   -3.356359    0.000000
      6          1           0       -0.800786   -3.195206    0.000000
 ---------------------------------------------------------------------

 SCF Done:  E(RHF) =  -33.6532668223     A.U. after   11 cycles
 E2 =    -0.2283032893D+00 EUMP2 =    -0.33881570111584D+02
 CCSD(T)
 CCSD(T)= -0.33898528410D+02

 The electronic state is 1-A'.
 Alpha  occ. eigenvalues --   -1.36267  -1.34656  -0.71907  -0.70284  -0.56087
 Alpha  occ. eigenvalues --   -0.54437  -0.50860  -0.49251
 Alpha virt. eigenvalues --    0.19570   0.21250   0.29834   0.31529   0.79694
 Alpha virt. eigenvalues --    0.81267   0.82546   0.84262   0.85735   0.87385
 Alpha virt. eigenvalues --    1.16699   1.18311   1.21142   1.22826   2.56669

 Mulliken charges:
               1
     1  O   -0.746895
     2  H    0.379004
     3  H    0.367878
     4  O   -0.746395
     5  H    0.374567
     6  H    0.371842
 Sum of Mulliken charges =   0.00000

 Dipole moment (field-independent basis, Debye):
    X=             -2.4007    Y=             -4.2215    Z=              0.0000  Tot=              4.8564
 Quadrupole moment (field-independent basis, Debye-Ang):
   XX=             -9.5147   YY=             -5.1849   ZZ=            -14.9916
   XY=             -6.7758   XZ=              0.0000   YZ=             -0.0000

 1476\MP4DQ=-33.8928947\MP4SDQ=-33.8949187\CCSD=-33.8959709\CCSD(T)=-33
 Normal termination of Gaussian 16 at Sun Dec 10 06:53:20 2023.
