 Gaussian 16, Revision A.03,
 Gaussian 16:  ES64L-G16RevA.03 25-Dec-2016

 ------------------
 #p CCSD(T)/CEP-31G
 ------------------

 ------------
 H2O_H2O_3704
 ------------
 Symbolic Z-matrix:
 Charge =  0 Multiplicity = 1

                         Standard orientation:
 ---------------------------------------------------------------------
 Center     Atomic      Atomic             Coordinates (Angstroms)
 Number     Number       Type             X           Y           Z
 ---------------------------------------------------------------------
      1          8           0        0.082801    2.574524    0.000000
      2          1           0        0.082456    1.591923    0.000000
      3          1           0       -0.846580    2.893517   -0.000000
      4          8           0        0.082801   -2.420001    0.000000
      5          1           0        0.336784   -3.369211    0.000000
      6          1           0       -0.897474   -2.352418   -0.000000
 ---------------------------------------------------------------------

 SCF Done:  E(RHF) =  -33.6528097581     A.U. after   11 cycles
 E2 =    -0.2283413078D+00 EUMP2 =    -0.33881151065865D+02
 CCSD(T)
 CCSD(T)= -0.33898123856D+02

 The electronic state is 1-A'.
 Alpha  occ. eigenvalues --   -1.36490  -1.34769  -0.72143  -0.70380  -0.56288
 Alpha  occ. eigenvalues --   -0.54523  -0.51073  -0.49351
 Alpha virt. eigenvalues --    0.19049   0.21309   0.29569   0.31421   0.79496
 Alpha virt. eigenvalues --    0.81174   0.82349   0.84189   0.85460   0.87471
 Alpha virt. eigenvalues --    1.16413   1.18274   1.20875   1.23164   2.56334

 Mulliken charges:
               1
     1  O   -0.745184
     2  H    0.379284
     3  H    0.365796
     4  O   -0.745410
     5  H    0.376525
     6  H    0.368990
 Sum of Mulliken charges =   0.00000

 Dipole moment (field-independent basis, Debye):
    X=             -3.7975    Y=             -3.6522    Z=             -0.0000  Tot=              5.2688
 Quadrupole moment (field-independent basis, Debye-Ang):
   XX=            -10.6416   YY=             -7.7960   ZZ=            -14.9901
   XY=             -3.5395   XZ=              0.0000   YZ=             -0.0000

 84\MP4DQ=-33.8924826\MP4SDQ=-33.8945105\CCSD=-33.8955616\CCSD(T)=-33.8
 Normal termination of Gaussian 16 at Sun Dec 10 06:39:39 2023.
