 Gaussian 16, Revision A.03,
 Gaussian 16:  ES64L-G16RevA.03 25-Dec-2016

 ------------------
 #p CCSD(T)/CEP-31G
 ------------------

 ------------
 H2O_H2O_4449
 ------------
 Symbolic Z-matrix:
 Charge =  0 Multiplicity = 1

                         Standard orientation:
 ---------------------------------------------------------------------
 Center     Atomic      Atomic             Coordinates (Angstroms)
 Number     Number       Type             X           Y           Z
 ---------------------------------------------------------------------
      1          8           0       -0.013474    2.866300    0.000000
      2          1           0       -0.011055    1.883702    0.000000
      3          1           0        0.915232    3.187253    0.000000
      4          8           0       -0.013474   -2.707023    0.000000
      5          1           0       -0.996073   -2.709441    0.000000
      6          1           0        0.307479   -3.635729    0.000000
 ---------------------------------------------------------------------

 SCF Done:  E(RHF) =  -33.6533977948     A.U. after   11 cycles
 E2 =    -0.2282881032D+00 EUMP2 =    -0.33881685897926D+02
 CCSD(T)
 CCSD(T)= -0.33898642543D+02

 The electronic state is 1-A'.
 Alpha  occ. eigenvalues --   -1.36259  -1.34837  -0.71901  -0.70478  -0.56083
 Alpha  occ. eigenvalues --   -0.54631  -0.50854  -0.49438
 Alpha virt. eigenvalues --    0.19569   0.21072   0.29852   0.31335   0.79698
 Alpha virt. eigenvalues --    0.81081   0.82551   0.84064   0.85708   0.87159
 Alpha virt. eigenvalues --    1.16711   1.18145   1.21151   1.22649   2.56654

 Mulliken charges:
               1
     1  O   -0.747386
     2  H    0.377129
     3  H    0.370246
     4  O   -0.747063
     5  H    0.373157
     6  H    0.373916
 Sum of Mulliken charges =  -0.00000

 Dipole moment (field-independent basis, Debye):
    X=              0.6187    Y=             -3.7331    Z=              0.0000  Tot=              3.7840
 Quadrupole moment (field-independent basis, Debye-Ang):
   XX=             -9.8766   YY=             -7.0160   ZZ=            -14.9917
   XY=             10.3914   XZ=              0.0000   YZ=              0.0000

 614\MP4DQ=-33.8930091\MP4SDQ=-33.8950328\CCSD=-33.8960851\CCSD(T)=-33.
 Normal termination of Gaussian 16 at Sun Dec 10 06:53:05 2023.
