 Gaussian 16, Revision A.03,
 Gaussian 16:  ES64L-G16RevA.03 25-Dec-2016

 ------------------
 #p CCSD(T)/CEP-31G
 ------------------

 -----------
 H2O_H2O_858
 -----------
 Symbolic Z-matrix:
 Charge =  0 Multiplicity = 1

                         Standard orientation:
 ---------------------------------------------------------------------
 Center     Atomic      Atomic             Coordinates (Angstroms)
 Number     Number       Type             X           Y           Z
 ---------------------------------------------------------------------
      1          8           0        0.070247    1.446225   -0.000000
      2          1           0        0.068829    0.463624   -0.000000
      3          1           0       -0.858785    1.766233   -0.000000
      4          8           0        0.070247   -1.276061    0.000000
      5          1           0        0.560320   -2.127727    0.000000
      6          1           0       -0.894322   -1.463442    0.000000
 ---------------------------------------------------------------------

 SCF Done:  E(RHF) =  -33.6583591567     A.U. after   11 cycles
 E2 =    -0.2290562398D+00 EUMP2 =    -0.33887415396531D+02
 CCSD(T)
 CCSD(T)= -0.33903864023D+02

 The electronic state is 1-A'.
 Alpha  occ. eigenvalues --   -1.39544  -1.31251  -0.75387  -0.68659  -0.59214
 Alpha  occ. eigenvalues --   -0.54163  -0.50613  -0.45793
 Alpha virt. eigenvalues --    0.17141   0.26446   0.27530   0.47074   0.74910
 Alpha virt. eigenvalues --    0.77121   0.85222   0.86957   0.94964   1.07654
 Alpha virt. eigenvalues --    1.16620   1.18678   1.22496   1.36523   2.56324

 Mulliken charges:
               1
     1  O   -0.768146
     2  H    0.423060
     3  H    0.339037
     4  O   -0.815272
     5  H    0.433836
     6  H    0.387484
 Sum of Mulliken charges =  -0.00000

 Dipole moment (field-independent basis, Debye):
    X=             -3.0391    Y=             -4.5936    Z=              0.0000  Tot=              5.5080
 Quadrupole moment (field-independent basis, Debye-Ang):
   XX=            -10.0282   YY=             -9.0427   ZZ=            -15.0092
   XY=             -3.5613   XZ=              0.0000   YZ=             -0.0000

 46\MP4DQ=-33.8979291\MP4SDQ=-33.9001082\CCSD=-33.9010302\CCSD(T)=-33.9
 Normal termination of Gaussian 16 at Sun Dec 10 06:34:39 2023.
