 Gaussian 16, Revision A.03,
 Gaussian 16:  ES64L-G16RevA.03 25-Dec-2016

 ------------------
 #p CCSD(T)/CEP-31G
 ------------------

 ------------
 H2O_H2O_1214
 ------------
 Symbolic Z-matrix:
 Charge =  0 Multiplicity = 1

                         Standard orientation:
 ---------------------------------------------------------------------
 Center     Atomic      Atomic             Coordinates (Angstroms)
 Number     Number       Type             X           Y           Z
 ---------------------------------------------------------------------
      1          8           0        0.048660    1.591344   -0.000000
      2          1           0        0.046152    0.608746   -0.000000
      3          1           0       -0.880016    1.912383   -0.000000
      4          8           0        0.048660   -1.411039    0.000000
      5          1           0        0.826682   -2.011197    0.000000
      6          1           0       -0.771379   -1.952371    0.000000
 ---------------------------------------------------------------------

 SCF Done:  E(RHF) =  -33.6625621094     A.U. after   11 cycles
 E2 =    -0.2290278605D+00 EUMP2 =    -0.33891589969889D+02
 CCSD(T)
 CCSD(T)= -0.33908199407D+02

 The electronic state is 1-A'.
 Alpha  occ. eigenvalues --   -1.38468  -1.31681  -0.74074  -0.68037  -0.59006
 Alpha  occ. eigenvalues --   -0.53196  -0.51351  -0.46336
 Alpha virt. eigenvalues --    0.17741   0.25952   0.28246   0.42488   0.76224
 Alpha virt. eigenvalues --    0.78647   0.85515   0.85786   0.93614   0.99635
 Alpha virt. eigenvalues --    1.14941   1.19400   1.21791   1.34510   2.50418

 Mulliken charges:
               1
     1  O   -0.784320
     2  H    0.432556
     3  H    0.350744
     4  O   -0.796202
     5  H    0.404037
     6  H    0.393185
 Sum of Mulliken charges =  -0.00000

 Dipole moment (field-independent basis, Debye):
    X=             -2.1469    Y=             -4.6452    Z=              0.0000  Tot=              5.1173
 Quadrupole moment (field-independent basis, Debye-Ang):
   XX=             -9.4269   YY=             -8.4577   ZZ=            -15.0141
   XY=             -4.4062   XZ=              0.0000   YZ=             -0.0000

 \MP4DQ=-33.9023858\MP4SDQ=-33.9044875\CCSD=-33.9054578\CCSD(T)=-33.908
 Normal termination of Gaussian 16 at Sun Dec 10 06:41:24 2023.
