 Gaussian 16, Revision A.03,
 Gaussian 16:  ES64L-G16RevA.03 25-Dec-2016

 ------------------
 #p CCSD(T)/CEP-31G
 ------------------

 -----------
 H2O_H2O_258
 -----------
 Symbolic Z-matrix:
 Charge =  0 Multiplicity = 1

                         Standard orientation:
 ---------------------------------------------------------------------
 Center     Atomic      Atomic             Coordinates (Angstroms)
 Number     Number       Type             X           Y           Z
 ---------------------------------------------------------------------
      1          8           0        0.070274    1.206877    0.000000
      2          1           0        0.068552    0.224277    0.000000
      3          1           0       -0.858660    1.527171   -0.000000
      4          8           0        0.070274   -1.036756    0.000000
      5          1           0        0.560084   -1.888574    0.000000
      6          1           0       -0.894354   -1.223840   -0.000000
 ---------------------------------------------------------------------

 SCF Done:  E(RHF) =  -33.6266967121     A.U. after   11 cycles
 E2 =    -0.2284230977D+00 EUMP2 =    -0.33855119809807D+02
 CCSD(T)
 CCSD(T)= -0.33870344091D+02

 The electronic state is 1-A'.
 Alpha  occ. eigenvalues --   -1.43618  -1.28572  -0.79835  -0.73486  -0.57392
 Alpha  occ. eigenvalues --   -0.56564  -0.46613  -0.42744
 Alpha virt. eigenvalues --    0.16352   0.25027   0.29338   0.59076   0.73376
 Alpha virt. eigenvalues --    0.74469   0.87218   0.90422   0.95788   1.06957
 Alpha virt. eigenvalues --    1.13025   1.21196   1.25334   1.35092   2.89681

 Mulliken charges:
               1
     1  O   -0.734824
     2  H    0.358743
     3  H    0.311450
     4  O   -0.823101
     5  H    0.479236
     6  H    0.408496
 Sum of Mulliken charges =  -0.00000

 Dipole moment (field-independent basis, Debye):
    X=             -2.8753    Y=             -5.2044    Z=             -0.0000  Tot=              5.9459
 Quadrupole moment (field-independent basis, Debye-Ang):
   XX=             -9.9861   YY=            -10.1736   ZZ=            -14.9610
   XY=             -3.2316   XZ=              0.0000   YZ=             -0.0000

 2\MP4DQ=-33.8641624\MP4SDQ=-33.8665077\CCSD=-33.8672112\CCSD(T)=-33.87
 Normal termination of Gaussian 16 at Sun Dec 10 06:23:08 2023.
