 Gaussian 16, Revision A.03,
 Gaussian 16:  ES64L-G16RevA.03 25-Dec-2016

 ------------------
 #p CCSD(T)/CEP-31G
 ------------------

 -----------
 H2O_H2O_129
 -----------
 Symbolic Z-matrix:
 Charge =  0 Multiplicity = 1

                         Standard orientation:
 ---------------------------------------------------------------------
 Center     Atomic      Atomic             Coordinates (Angstroms)
 Number     Number       Type             X           Y           Z
 ---------------------------------------------------------------------
      1          8           0        0.082837   -1.148499    0.000000
      2          1           0        0.082033   -0.165898    0.000000
      3          1           0       -0.846395   -1.467926    0.000000
      4          8           0        0.082837    0.994053    0.000000
      5          1           0        0.336377    1.943381    0.000000
      6          1           0       -0.897406    0.926014    0.000000
 ---------------------------------------------------------------------

 SCF Done:  E(RHF) =  -33.5941908407     A.U. after   11 cycles
 E2 =    -0.2280584084D+00 EUMP2 =    -0.33822249249109D+02
 CCSD(T)
 CCSD(T)= -0.33837512686D+02

 The electronic state is 1-A'.
 Alpha  occ. eigenvalues --   -1.45877  -1.28757  -0.83500  -0.72839  -0.58477
 Alpha  occ. eigenvalues --   -0.56044  -0.46491  -0.42791
 Alpha virt. eigenvalues --    0.15986   0.23455   0.29905   0.60334   0.73095
 Alpha virt. eigenvalues --    0.75089   0.89126   0.90561   0.97006   1.08698
 Alpha virt. eigenvalues --    1.11271   1.21615   1.26935   1.44302   3.01654

 Mulliken charges:
               1
     1  O   -0.689525
     2  H    0.260495
     3  H    0.303741
     4  O   -0.772167
     5  H    0.500280
     6  H    0.397176
 Sum of Mulliken charges =   0.00000

 Dipole moment (field-independent basis, Debye):
    X=             -3.3890    Y=              5.0404    Z=              0.0000  Tot=              6.0738
 Quadrupole moment (field-independent basis, Debye-Ang):
   XX=            -10.6473   YY=            -10.3733   ZZ=            -14.9105
   XY=              2.7150   XZ=              0.0000   YZ=              0.0000

 14\MP4DQ=-33.8311397\MP4SDQ=-33.8336441\CCSD=-33.8343112\CCSD(T)=-33.8
 Normal termination of Gaussian 16 at Sun Dec 10 06:20:35 2023.
