 Gaussian 16, Revision A.03,
 Gaussian 16:  ES64L-G16RevA.03 25-Dec-2016

 ------------------
 #p CCSD(T)/CEP-31G
 ------------------

 -----------
 H2O_H2O_182
 -----------
 Symbolic Z-matrix:
 Charge =  0 Multiplicity = 1

                         Standard orientation:
 ---------------------------------------------------------------------
 Center     Atomic      Atomic             Coordinates (Angstroms)
 Number     Number       Type             X           Y           Z
 ---------------------------------------------------------------------
      1          8           0        0.073602   -1.175170    0.000000
      2          1           0        0.072093   -0.192570    0.000000
      3          1           0       -0.855400   -1.495263    0.000000
      4          8           0        0.073602    1.008345    0.000000
      5          1           0        0.506842    1.890280    0.000000
      6          1           0       -0.901169    1.132150    0.000000
 ---------------------------------------------------------------------

 SCF Done:  E(RHF) =  -33.6131480941     A.U. after   11 cycles
 E2 =    -0.2281987417D+00 EUMP2 =    -0.33841346835774D+02
 CCSD(T)
 CCSD(T)= -0.33856457560D+02

 The electronic state is 1-A'.
 Alpha  occ. eigenvalues --   -1.44681  -1.28319  -0.81341  -0.73921  -0.58025
 Alpha  occ. eigenvalues --   -0.55989  -0.46081  -0.42401
 Alpha virt. eigenvalues --    0.16169   0.24433   0.29708   0.60188   0.73251
 Alpha virt. eigenvalues --    0.74502   0.88090   0.90742   0.95881   1.07464
 Alpha virt. eigenvalues --    1.12081   1.21784   1.26251   1.36681   2.96785

 Mulliken charges:
               1
     1  O   -0.721212
     2  H    0.325275
     3  H    0.306186
     4  O   -0.807714
     5  H    0.489362
     6  H    0.408104
 Sum of Mulliken charges =   0.00000

 Dipole moment (field-independent basis, Debye):
    X=             -2.9923    Y=              5.2488    Z=              0.0000  Tot=              6.0419
 Quadrupole moment (field-independent basis, Debye-Ang):
   XX=            -10.1341   YY=            -10.3149   ZZ=            -14.9395
   XY=              3.0922   XZ=              0.0000   YZ=              0.0000

 35\MP4DQ=-33.8502054\MP4SDQ=-33.8526085\CCSD=-33.8532839\CCSD(T)=-33.8
 Normal termination of Gaussian 16 at Sun Dec 10 06:21:38 2023.
