 Gaussian 16, Revision A.03,
 Gaussian 16:  ES64L-G16RevA.03 25-Dec-2016

 ------------------
 #p CCSD(T)/CEP-31G
 ------------------

 ------------
 H2O_H2O_1462
 ------------
 Symbolic Z-matrix:
 Charge =  0 Multiplicity = 1

                         Standard orientation:
 ---------------------------------------------------------------------
 Center     Atomic      Atomic             Coordinates (Angstroms)
 Number     Number       Type             X           Y           Z
 ---------------------------------------------------------------------
      1          8           0        0.056042    1.690267   -0.000000
      2          1           0        0.054082    0.707667   -0.000000
      3          1           0       -0.872814    2.010786   -0.000000
      4          8           0        0.056042   -1.511424    0.000000
      5          1           0        0.749460   -2.207613    0.000000
      6          1           0       -0.827400   -1.941582    0.000000
 ---------------------------------------------------------------------

 SCF Done:  E(RHF) =  -33.6607928518     A.U. after   11 cycles
 E2 =    -0.2289019435D+00 EUMP2 =    -0.33889694795387D+02
 CCSD(T)
 CCSD(T)= -0.33906464158D+02

 The electronic state is 1-A'.
 Alpha  occ. eigenvalues --   -1.38035  -1.32313  -0.73684  -0.68199  -0.58498
 Alpha  occ. eigenvalues --   -0.52728  -0.52063  -0.46963
 Alpha virt. eigenvalues --    0.17826   0.25208   0.28498   0.39409   0.77013
 Alpha virt. eigenvalues --    0.80366   0.84437   0.85772   0.91705   0.98144
 Alpha virt. eigenvalues --    1.15075   1.19643   1.21067   1.34346   2.49669

 Mulliken charges:
               1
     1  O   -0.778407
     2  H    0.423642
     3  H    0.353386
     4  O   -0.781644
     5  H    0.398991
     6  H    0.384033
 Sum of Mulliken charges =   0.00000

 Dipole moment (field-independent basis, Debye):
    X=             -2.4923    Y=             -4.5293    Z=              0.0000  Tot=              5.1698
 Quadrupole moment (field-independent basis, Debye-Ang):
   XX=             -9.5690   YY=             -8.1339   ZZ=            -15.0080
   XY=             -4.3764   XZ=              0.0000   YZ=             -0.0000

 9657\MP4DQ=-33.9006811\MP4SDQ=-33.902777\CCSD=-33.9037767\CCSD(T)=-33.
 Normal termination of Gaussian 16 at Sun Dec 10 06:46:19 2023.
