 Gaussian 16, Revision A.03,
 Gaussian 16:  ES64L-G16RevA.03 25-Dec-2016

 ------------------
 #p CCSD(T)/CEP-31G
 ------------------

 ------------
 H2O_H2O_1784
 ------------
 Symbolic Z-matrix:
 Charge =  0 Multiplicity = 1

                         Standard orientation:
 ---------------------------------------------------------------------
 Center     Atomic      Atomic             Coordinates (Angstroms)
 Number     Number       Type             X           Y           Z
 ---------------------------------------------------------------------
      1          8           0        0.066787    1.816760    0.000000
      2          1           0        0.065502    0.834159    0.000000
      3          1           0       -0.862289    2.136641    0.000000
      4          8           0        0.066787   -1.643697   -0.000000
      5          1           0        0.611623   -2.461412   -0.000000
      6          1           0       -0.883428   -1.893891   -0.000000
 ---------------------------------------------------------------------

 SCF Done:  E(RHF) =  -33.6580632377     A.U. after   11 cycles
 E2 =    -0.2287394182D+00 EUMP2 =    -0.33886802655926D+02
 CCSD(T)
 CCSD(T)= -0.33903700149D+02

 The electronic state is 1-A'.
 Alpha  occ. eigenvalues --   -1.37636  -1.33066  -0.73320  -0.68718  -0.57856
 Alpha  occ. eigenvalues --   -0.52844  -0.52284  -0.47694
 Alpha virt. eigenvalues --    0.17794   0.24283   0.28726   0.36285   0.77836
 Alpha virt. eigenvalues --    0.82065   0.83279   0.85517   0.89784   0.94615
 Alpha virt. eigenvalues --    1.15347   1.19666   1.20631   1.34919   2.50949

 Mulliken charges:
               1
     1  O   -0.768235
     2  H    0.409856
     3  H    0.356183
     4  O   -0.766794
     5  H    0.392593
     6  H    0.376397
 Sum of Mulliken charges =   0.00000

 Dipole moment (field-independent basis, Debye):
    X=             -3.0014    Y=             -4.3112    Z=             -0.0000  Tot=              5.2531
 Quadrupole moment (field-independent basis, Debye-Ang):
   XX=             -9.8985   YY=             -7.9215   ZZ=            -15.0008
   XY=             -4.1175   XZ=              0.0000   YZ=              0.0000

 47\MP4DQ=-33.8979473\MP4SDQ=-33.9000404\CCSD=-33.9010599\CCSD(T)=-33.9
 Normal termination of Gaussian 16 at Sun Dec 10 06:52:33 2023.
