 Gaussian 16, Revision A.03,
 Gaussian 16:  ES64L-G16RevA.03 25-Dec-2016

 ------------------
 #p CCSD(T)/CEP-31G
 ------------------

 ------------
 H2O_H2O_1446
 ------------
 Symbolic Z-matrix:
 Charge =  0 Multiplicity = 1

                         Standard orientation:
 ---------------------------------------------------------------------
 Center     Atomic      Atomic             Coordinates (Angstroms)
 Number     Number       Type             X           Y           Z
 ---------------------------------------------------------------------
      1          8           0       -0.023305    1.675680    0.000000
      2          1           0       -0.019584    0.693086    0.000000
      3          1           0        0.904974    1.997864    0.000000
      4          8           0       -0.023305   -1.505346    0.000000
      5          1           0       -0.986294   -1.700691    0.000000
      6          1           0        0.473786   -2.352935    0.000000
 ---------------------------------------------------------------------

 SCF Done:  E(RHF) =  -33.6614617119     A.U. after   11 cycles
 E2 =    -0.2287403716D+00 EUMP2 =    -0.33890202083499D+02
 CCSD(T)
 CCSD(T)= -0.33906986224D+02

 The electronic state is 1-A'.
 Alpha  occ. eigenvalues --   -1.38016  -1.32409  -0.73725  -0.68307  -0.58532
 Alpha  occ. eigenvalues --   -0.52710  -0.52205  -0.47098
 Alpha virt. eigenvalues --    0.17829   0.25335   0.28552   0.39381   0.76943
 Alpha virt. eigenvalues --    0.80170   0.84389   0.86453   0.89802   1.02351
 Alpha virt. eigenvalues --    1.15476   1.18447   1.21751   1.35953   2.50482

 Mulliken charges:
               1
     1  O   -0.781913
     2  H    0.417678
     3  H    0.361334
     4  O   -0.785792
     5  H    0.389724
     6  H    0.398969
 Sum of Mulliken charges =  -0.00000

 Dipole moment (field-independent basis, Debye):
    X=              1.0438    Y=             -4.3244    Z=              0.0000  Tot=              4.4486
 Quadrupole moment (field-independent basis, Debye-Ang):
   XX=             -9.5664   YY=             -8.3173   ZZ=            -15.0092
   XY=              5.4817   XZ=              0.0000   YZ=              0.0000

 4765\MP4DQ=-33.9011999\MP4SDQ=-33.9033036\CCSD=-33.9043046\CCSD(T)=-33
 Normal termination of Gaussian 16 at Sun Dec 10 06:46:01 2023.
