 Gaussian 16, Revision A.03,
 Gaussian 16:  ES64L-G16RevA.03 25-Dec-2016

 ------------------
 #p CCSD(T)/CEP-31G
 ------------------

 ------------
 H2O_H2O_4050
 ------------
 Symbolic Z-matrix:
 Charge =  0 Multiplicity = 1

                         Standard orientation:
 ---------------------------------------------------------------------
 Center     Atomic      Atomic             Coordinates (Angstroms)
 Number     Number       Type             X           Y           Z
 ---------------------------------------------------------------------
      1          8           0        0.092949   -2.702325    0.000000
      2          1           0        0.092949   -1.719723    0.000000
      3          1           0       -0.836544   -3.020991    0.000000
      4          8           0        0.092949    2.569538    0.000000
      5          1           0        0.092949    3.552139    0.000000
      6          1           0       -0.836544    2.250871    0.000000
 ---------------------------------------------------------------------

 SCF Done:  E(RHF) =  -33.6520168383     A.U. after   11 cycles
 E2 =    -0.2283662079D+00 EUMP2 =    -0.33880383046150D+02
 CCSD(T)
 CCSD(T)= -0.33897379724D+02

 The electronic state is 1-A'.
 Alpha  occ. eigenvalues --   -1.36413  -1.35132  -0.72066  -0.70745  -0.56170
 Alpha  occ. eigenvalues --   -0.54863  -0.50985  -0.49701
 Alpha virt. eigenvalues --    0.19072   0.20911   0.29602   0.30986   0.79585
 Alpha virt. eigenvalues --    0.80841   0.82521   0.83858   0.85566   0.87111
 Alpha virt. eigenvalues --    1.16411   1.17855   1.20934   1.22481   2.55995

 Mulliken charges:
               1
     1  O   -0.742098
     2  H    0.375341
     3  H    0.366734
     4  O   -0.742577
     5  H    0.375342
     6  H    0.367258
 Sum of Mulliken charges =  -0.00000

 Dipole moment (field-independent basis, Debye):
    X=             -4.2713    Y=              3.1278    Z=              0.0000  Tot=              5.2941
 Quadrupole moment (field-independent basis, Debye-Ang):
   XX=            -11.2842   YY=             -9.6289   ZZ=            -14.9882
   XY=              2.3054   XZ=              0.0000   YZ=              0.0000

 937\MP4DQ=-33.8917344\MP4SDQ=-33.8937626\CCSD=-33.8948166\CCSD(T)=-33.
 Normal termination of Gaussian 16 at Sun Dec 10 06:45:53 2023.
