 Gaussian 16, Revision A.03,
 Gaussian 16:  ES64L-G16RevA.03 25-Dec-2016

 ------------------
 #p CCSD(T)/CEP-31G
 ------------------

 ------------
 H2O_H2O_3977
 ------------
 Symbolic Z-matrix:
 Charge =  0 Multiplicity = 1

                         Standard orientation:
 ---------------------------------------------------------------------
 Center     Atomic      Atomic             Coordinates (Angstroms)
 Number     Number       Type             X           Y           Z
 ---------------------------------------------------------------------
      1          8           0        0.088230   -2.678675    0.000000
      2          1           0        0.088076   -1.696074    0.000000
      3          1           0       -0.841213   -2.997487    0.000000
      4          8           0        0.088230    2.534351    0.000000
      5          1           0        0.216333    3.508567    0.000000
      6          1           0       -0.874875    2.339584    0.000000
 ---------------------------------------------------------------------

 SCF Done:  E(RHF) =  -33.6523509263     A.U. after   11 cycles
 E2 =    -0.2283514134D+00 EUMP2 =    -0.33880702339666D+02
 CCSD(T)
 CCSD(T)= -0.33897688620D+02

 The electronic state is 1-A'.
 Alpha  occ. eigenvalues --   -1.36421  -1.34974  -0.72073  -0.70588  -0.56195
 Alpha  occ. eigenvalues --   -0.54716  -0.50998  -0.49549
 Alpha virt. eigenvalues --    0.19149   0.21039   0.29628   0.31151   0.79570
 Alpha virt. eigenvalues --    0.80985   0.82471   0.84000   0.85545   0.87251
 Alpha virt. eigenvalues --    1.16457   1.18014   1.20956   1.22654   2.56245

 Mulliken charges:
               1
     1  O   -0.743400
     2  H    0.376922
     3  H    0.366440
     4  O   -0.743785
     5  H    0.375670
     6  H    0.368152
 Sum of Mulliken charges =  -0.00000

 Dipole moment (field-independent basis, Debye):
    X=             -4.0521    Y=              3.4015    Z=              0.0000  Tot=              5.2905
 Quadrupole moment (field-independent basis, Debye-Ang):
   XX=            -10.9685   YY=             -8.5785   ZZ=            -14.9891
   XY=              2.9445   XZ=              0.0000   YZ=              0.0000

 035\MP4DQ=-33.8920458\MP4SDQ=-33.8940733\CCSD=-33.8951264\CCSD(T)=-33.
 Normal termination of Gaussian 16 at Sun Dec 10 06:44:34 2023.
