 Gaussian 16, Revision A.03,
 Gaussian 16:  ES64L-G16RevA.03 25-Dec-2016

 ------------------
 #p CCSD(T)/CEP-31G
 ------------------

 -----------
 H2O_H2O_696
 -----------
 Symbolic Z-matrix:
 Charge =  0 Multiplicity = 1

                         Standard orientation:
 ---------------------------------------------------------------------
 Center     Atomic      Atomic             Coordinates (Angstroms)
 Number     Number       Type             X           Y           Z
 ---------------------------------------------------------------------
      1          8           0       -0.023380    1.376504    0.000000
      2          1           0       -0.018797    0.393914    0.000000
      3          1           0        0.904617    1.699503    0.000000
      4          8           0       -0.023380   -1.206211    0.000000
      5          1           0       -0.986197   -1.402401    0.000000
      6          1           0        0.474455   -2.053363    0.000000
 ---------------------------------------------------------------------

 SCF Done:  E(RHF) =  -33.6589246073     A.U. after   11 cycles
 E2 =    -0.2285805394D+00 EUMP2 =    -0.33887505146719D+02
 CCSD(T)
 CCSD(T)= -0.33903593111D+02

 The electronic state is 1-A'.
 Alpha  occ. eigenvalues --   -1.40118  -1.30248  -0.76014  -0.69116  -0.59333
 Alpha  occ. eigenvalues --   -0.54734  -0.49417  -0.44844
 Alpha virt. eigenvalues --    0.17422   0.27060   0.27731   0.50679   0.74443
 Alpha virt. eigenvalues --    0.76082   0.86498   0.88096   0.93884   1.04188
 Alpha virt. eigenvalues --    1.15901   1.20624   1.24916   1.37551   2.62091

 Mulliken charges:
               1
     1  O   -0.777651
     2  H    0.412662
     3  H    0.348559
     4  O   -0.832422
     5  H    0.409580
     6  H    0.439272
 Sum of Mulliken charges =  -0.00000

 Dipole moment (field-independent basis, Debye):
    X=              1.0396    Y=             -4.7139    Z=              0.0000  Tot=              4.8272
 Quadrupole moment (field-independent basis, Debye-Ang):
   XX=             -9.5289   YY=             -9.2986   ZZ=            -15.0153
   XY=              4.4103   XZ=              0.0000   YZ=              0.0000

 063\MP4DQ=-33.8976699\MP4SDQ=-33.899834\CCSD=-33.9007094\CCSD(T)=-33.9
 Normal termination of Gaussian 16 at Sun Dec 10 06:31:37 2023.
