 Gaussian 16, Revision A.03,
 Gaussian 16:  ES64L-G16RevA.03 25-Dec-2016

 ------------------
 #p CCSD(T)/CEP-31G
 ------------------

 ------------
 H2O_H2O_3605
 ------------
 Symbolic Z-matrix:
 Charge =  0 Multiplicity = 1

                         Standard orientation:
 ---------------------------------------------------------------------
 Center     Atomic      Atomic             Coordinates (Angstroms)
 Number     Number       Type             X           Y           Z
 ---------------------------------------------------------------------
      1          8           0        0.079849    2.537105    0.000000
      2          1           0        0.079396    1.554503    0.000000
      3          1           0       -0.849497    2.856199    0.000000
      4          8           0        0.079849   -2.378037   -0.000000
      5          1           0        0.395267   -3.308638   -0.000000
      6          1           0       -0.902747   -2.374605   -0.000000
 ---------------------------------------------------------------------

 SCF Done:  E(RHF) =  -33.6530519250     A.U. after   11 cycles
 E2 =    -0.2283373459D+00 EUMP2 =    -0.33881389270930D+02
 CCSD(T)
 CCSD(T)= -0.33898355021D+02

 The electronic state is 1-A'.
 Alpha  occ. eigenvalues --   -1.36516  -1.34672  -0.72170  -0.70283  -0.56328
 Alpha  occ. eigenvalues --   -0.54433  -0.51103  -0.49257
 Alpha virt. eigenvalues --    0.19023   0.21426   0.29543   0.31554   0.79466
 Alpha virt. eigenvalues --    0.81262   0.82310   0.84283   0.85431   0.87565
 Alpha virt. eigenvalues --    1.16404   1.18394   1.20839   1.23428   2.56378

 Mulliken charges:
               1
     1  O   -0.746122
     2  H    0.380415
     3  H    0.365559
     4  O   -0.746199
     5  H    0.376867
     6  H    0.369481
 Sum of Mulliken charges =  -0.00000

 Dipole moment (field-independent basis, Debye):
    X=             -3.6599    Y=             -3.7642    Z=             -0.0000  Tot=              5.2501
 Quadrupole moment (field-independent basis, Debye-Ang):
   XX=            -10.4794   YY=             -7.4825   ZZ=            -14.9907
   XY=             -3.8237   XZ=              0.0000   YZ=              0.0000

 692\MP4DQ=-33.8927144\MP4SDQ=-33.8947428\CCSD=-33.8957927\CCSD(T)=-33.
 Normal termination of Gaussian 16 at Sun Dec 10 06:37:52 2023.
