 Gaussian 16, Revision A.03,
 Gaussian 16:  ES64L-G16RevA.03 25-Dec-2016

 ------------------
 #p CCSD(T)/CEP-31G
 ------------------

 -----------
 H2O_H2O_889
 -----------
 Symbolic Z-matrix:
 Charge =  0 Multiplicity = 1

                         Standard orientation:
 ---------------------------------------------------------------------
 Center     Atomic      Atomic             Coordinates (Angstroms)
 Number     Number       Type             X           Y           Z
 ---------------------------------------------------------------------
      1          8           0        0.048682    1.461698   -0.000000
      2          1           0        0.045936    0.479100   -0.000000
      3          1           0       -0.879917    1.782961   -0.000000
      4          8           0        0.048682   -1.281416    0.000000
      5          1           0        0.826557   -1.881762    0.000000
      6          1           0       -0.771489   -1.822551    0.000000
 ---------------------------------------------------------------------

 SCF Done:  E(RHF) =  -33.6624275547     A.U. after   11 cycles
 E2 =    -0.2291300850D+00 EUMP2 =    -0.33891557639687D+02
 CCSD(T)
 CCSD(T)= -0.33907839213D+02

 The electronic state is 1-A'.
 Alpha  occ. eigenvalues --   -1.39342  -1.30743  -0.74847  -0.68643  -0.59280
 Alpha  occ. eigenvalues --   -0.54077  -0.50157  -0.45351
 Alpha virt. eigenvalues --    0.17473   0.26927   0.27725   0.47510   0.75093
 Alpha virt. eigenvalues --    0.76369   0.85426   0.87149   0.96782   0.99304
 Alpha virt. eigenvalues --    1.14905   1.18817   1.22844   1.36197   2.55438

 Mulliken charges:
               1
     1  O   -0.784145
     2  H    0.437235
     3  H    0.343392
     4  O   -0.817059
     5  H    0.416887
     6  H    0.403690
 Sum of Mulliken charges =  -0.00000

 Dipole moment (field-independent basis, Debye):
    X=             -2.1147    Y=             -4.8021    Z=              0.0000  Tot=              5.2471
 Quadrupole moment (field-independent basis, Debye-Ang):
   XX=             -9.4086   YY=             -8.9905   ZZ=            -15.0187
   XY=             -4.1165   XZ=              0.0000   YZ=             -0.0000

 68\MP4DQ=-33.901962\MP4SDQ=-33.9040904\CCSD=-33.9049974\CCSD(T)=-33.90
 Normal termination of Gaussian 16 at Sun Dec 10 06:35:14 2023.
