 Gaussian 16, Revision A.03,
 Gaussian 16:  ES64L-G16RevA.03 25-Dec-2016

 ------------------
 #p CCSD(T)/CEP-31G
 ------------------

 -----------
 H2O_H2O_522
 -----------
 Symbolic Z-matrix:
 Charge =  0 Multiplicity = 1

                         Standard orientation:
 ---------------------------------------------------------------------
 Center     Atomic      Atomic             Coordinates (Angstroms)
 Number     Number       Type             X           Y           Z
 ---------------------------------------------------------------------
      1          8           0       -0.020060    1.304919    0.000000
      2          1           0       -0.014982    0.322331    0.000000
      3          1           0        0.907774    1.628385    0.000000
      4          8           0       -0.020060   -1.137911    0.000000
      5          1           0       -0.993580   -1.271198    0.000000
      6          1           0        0.421745   -2.015586    0.000000
 ---------------------------------------------------------------------

 SCF Done:  E(RHF) =  -33.6517443350     A.U. after   11 cycles
 E2 =    -0.2282214794D+00 EUMP2 =    -0.33879965814394D+02
 CCSD(T)
 CCSD(T)= -0.33895757140D+02

 The electronic state is 1-A'.
 Alpha  occ. eigenvalues --   -1.41143  -1.29582  -0.77377  -0.70036  -0.58909
 Alpha  occ. eigenvalues --   -0.55556  -0.48390  -0.44105
 Alpha virt. eigenvalues --    0.17290   0.26500   0.28333   0.54130   0.73967
 Alpha virt. eigenvalues --    0.75654   0.87119   0.89053   0.93836   1.03921
 Alpha virt. eigenvalues --    1.15426   1.21724   1.26964   1.38055   2.70575

 Mulliken charges:
               1
     1  O   -0.767283
     2  H    0.389207
     3  H    0.345314
     4  O   -0.838797
     5  H    0.415483
     6  H    0.456076
 Sum of Mulliken charges =   0.00000

 Dipole moment (field-independent basis, Debye):
    X=              0.8919    Y=             -4.8035    Z=              0.0000  Tot=              4.8856
 Quadrupole moment (field-independent basis, Debye-Ang):
   XX=             -9.5968   YY=             -9.5982   ZZ=            -15.0051
   XY=              4.2516   XZ=              0.0000   YZ=              0.0000

 29\MP4DQ=-33.8897771\MP4SDQ=-33.8919801\CCSD=-33.8928045\CCSD(T)=-33.8
 Normal termination of Gaussian 16 at Sun Dec 10 06:28:21 2023.
