 Gaussian 16, Revision A.03,
 Gaussian 16:  ES64L-G16RevA.03 25-Dec-2016

 ------------------
 #p CCSD(T)/CEP-31G
 ------------------

 ------------
 H2O_H2O_1200
 ------------
 Symbolic Z-matrix:
 Charge =  0 Multiplicity = 1

                         Standard orientation:
 ---------------------------------------------------------------------
 Center     Atomic      Atomic             Coordinates (Angstroms)
 Number     Number       Type             X           Y           Z
 ---------------------------------------------------------------------
      1          8           0        0.092949   -1.565524    0.000000
      2          1           0        0.092949   -0.582923    0.000000
      3          1           0       -0.836544   -1.884191    0.000000
      4          8           0        0.092949    1.432737    0.000000
      5          1           0        0.092949    2.415339    0.000000
      6          1           0       -0.836544    1.114071    0.000000
 ---------------------------------------------------------------------

 SCF Done:  E(RHF) =  -33.6513413691     A.U. after   11 cycles
 E2 =    -0.2293306411D+00 EUMP2 =    -0.33880672010256D+02
 CCSD(T)
 CCSD(T)= -0.33897723042D+02

 The electronic state is 1-A'.
 Alpha  occ. eigenvalues --   -1.38770  -1.33800  -0.75124  -0.69118  -0.58574
 Alpha  occ. eigenvalues --   -0.53354  -0.53242  -0.48294
 Alpha virt. eigenvalues --    0.16517   0.24804   0.27881   0.40205   0.75809
 Alpha virt. eigenvalues --    0.80454   0.84246   0.84602   0.89749   1.11448
 Alpha virt. eigenvalues --    1.15367   1.20391   1.22755   1.39401   2.50401

 Mulliken charges:
               1
     1  O   -0.744014
     2  H    0.383566
     3  H    0.349411
     4  O   -0.759466
     5  H    0.408010
     6  H    0.362493
 Sum of Mulliken charges =  -0.00000

 Dipole moment (field-independent basis, Debye):
    X=             -4.1465    Y=              3.4802    Z=              0.0000  Tot=              5.4134
 Quadrupole moment (field-independent basis, Debye-Ang):
   XX=            -11.3512   YY=             -9.6081   ZZ=            -14.9866
   XY=              2.2427   XZ=              0.0000   YZ=              0.0000

 918\MP4DQ=-33.891771\MP4SDQ=-33.8939901\CCSD=-33.8949662\CCSD(T)=-33.8
 Normal termination of Gaussian 16 at Sun Dec 10 06:41:08 2023.
