 Gaussian 16, Revision A.03,
 Gaussian 16:  ES64L-G16RevA.03 25-Dec-2016

 ------------------
 #p CCSD(T)/CEP-31G
 ------------------

 ------------
 H2O_H2O_1230
 ------------
 Symbolic Z-matrix:
 Charge =  0 Multiplicity = 1

                         Standard orientation:
 ---------------------------------------------------------------------
 Center     Atomic      Atomic             Coordinates (Angstroms)
 Number     Number       Type             X           Y           Z
 ---------------------------------------------------------------------
      1          8           0        0.079872   -1.589748    0.000000
      2          1           0        0.079136   -0.607147    0.000000
      3          1           0       -0.849382   -1.909111    0.000000
      4          8           0        0.079872    1.430727    0.000000
      5          1           0        0.395022    2.361418    0.000000
      6          1           0       -0.902723    1.427012    0.000000
 ---------------------------------------------------------------------

 SCF Done:  E(RHF) =  -33.6570771535     A.U. after   11 cycles
 E2 =    -0.2290093128D+00 EUMP2 =    -0.33886086466330D+02
 CCSD(T)
 CCSD(T)= -0.33902970505D+02

 The electronic state is 1-A'.
 Alpha  occ. eigenvalues --   -1.38563  -1.32718  -0.74476  -0.68555  -0.58715
 Alpha  occ. eigenvalues --   -0.53160  -0.52322  -0.47287
 Alpha virt. eigenvalues --    0.17132   0.25303   0.27915   0.40872   0.76143
 Alpha virt. eigenvalues --    0.79754   0.84811   0.85146   0.91513   1.09750
 Alpha virt. eigenvalues --    1.16047   1.17371   1.21893   1.38046   2.50469

 Mulliken charges:
               1
     1  O   -0.763819
     2  H    0.411016
     3  H    0.347874
     4  O   -0.783446
     5  H    0.413623
     6  H    0.374752
 Sum of Mulliken charges =  -0.00000

 Dipole moment (field-independent basis, Debye):
    X=             -3.5447    Y=              4.1361    Z=              0.0000  Tot=              5.4472
 Quadrupole moment (field-independent basis, Debye-Ang):
   XX=            -10.5120   YY=             -8.7888   ZZ=            -15.0002
   XY=              3.2339   XZ=              0.0000   YZ=              0.0000

 3929\MP4DQ=-33.8970902\MP4SDQ=-33.8992528\CCSD=-33.9002436\CCSD(T)=-33
 Normal termination of Gaussian 16 at Sun Dec 10 06:41:43 2023.
