 Gaussian 16, Revision A.03,
 Gaussian 16:  ES64L-G16RevA.03 25-Dec-2016

 ------------------
 #p CCSD(T)/CEP-31G
 ------------------

 -----------
 H2O_H2O_863
 -----------
 Symbolic Z-matrix:
 Charge =  0 Multiplicity = 1

                         Standard orientation:
 ---------------------------------------------------------------------
 Center     Atomic      Atomic             Coordinates (Angstroms)
 Number     Number       Type             X           Y           Z
 ---------------------------------------------------------------------
      1          8           0       -0.052391    1.451454    0.000000
      2          1           0       -0.049857    0.468856    0.000000
      3          1           0        0.876277    1.772517    0.000000
      4          8           0       -0.052391   -1.271671    0.000000
      5          1           0       -0.789477   -1.921449    0.000000
      6          1           0        0.801310   -1.758189    0.000000
 ---------------------------------------------------------------------

 SCF Done:  E(RHF) =  -33.6618814560     A.U. after   11 cycles
 E2 =    -0.2291441656D+00 EUMP2 =    -0.33891025621521D+02
 CCSD(T)
 CCSD(T)= -0.33907287318D+02

 The electronic state is 1-A'.
 Alpha  occ. eigenvalues --   -1.39442  -1.30705  -0.74954  -0.68758  -0.59248
 Alpha  occ. eigenvalues --   -0.54166  -0.50085  -0.45299
 Alpha virt. eigenvalues --    0.17413   0.26954   0.27660   0.47890   0.74999
 Alpha virt. eigenvalues --    0.76265   0.85320   0.87262   0.96731   1.00121
 Alpha virt. eigenvalues --    1.14888   1.18769   1.22778   1.36309   2.56156

 Mulliken charges:
               1
     1  O   -0.782286
     2  H    0.436730
     3  H    0.341734
     4  O   -0.818452
     5  H    0.420793
     6  H    0.401482
 Sum of Mulliken charges =  -0.00000

 Dipole moment (field-independent basis, Debye):
    X=              2.2673    Y=             -4.8072    Z=              0.0000  Tot=              5.3150
 Quadrupole moment (field-independent basis, Debye-Ang):
   XX=             -9.4654   YY=             -9.0352   ZZ=            -15.0178
   XY=              4.0237   XZ=              0.0000   YZ=              0.0000

 64\MP4DQ=-33.9013986\MP4SDQ=-33.9035346\CCSD=-33.9044363\CCSD(T)=-33.9
 Normal termination of Gaussian 16 at Sun Dec 10 06:34:45 2023.
