 Gaussian 16, Revision A.03,
 Gaussian 16:  ES64L-G16RevA.03 25-Dec-2016

 ------------------
 #p CCSD(T)/CEP-31G
 ------------------

 ------------
 H2O_H2O_1274
 ------------
 Symbolic Z-matrix:
 Charge =  0 Multiplicity = 1

                         Standard orientation:
 ---------------------------------------------------------------------
 Center     Atomic      Atomic             Coordinates (Angstroms)
 Number     Number       Type             X           Y           Z
 ---------------------------------------------------------------------
      1          8           0        0.013637   -1.599844    0.000000
      2          1           0        0.009204   -0.617252    0.000000
      3          1           0       -0.914409   -1.922701    0.000000
      4          8           0        0.013637    1.440623    0.000000
      5          1           0        0.996229    1.445056    0.000000
      6          1           0       -0.309219    2.368668    0.000000
 ---------------------------------------------------------------------

 SCF Done:  E(RHF) =  -33.6609844282     A.U. after   11 cycles
 E2 =    -0.2286920192D+00 EUMP2 =    -0.33889676447414D+02
 CCSD(T)
 CCSD(T)= -0.33906465391D+02

 The electronic state is 1-A'.
 Alpha  occ. eigenvalues --   -1.38330  -1.32410  -0.74213  -0.68348  -0.58840
 Alpha  occ. eigenvalues --   -0.52995  -0.52149  -0.47100
 Alpha virt. eigenvalues --    0.17638   0.25685   0.28302   0.40879   0.76330
 Alpha virt. eigenvalues --    0.79651   0.84851   0.86310   0.89548   1.09160
 Alpha virt. eigenvalues --    1.16862   1.17405   1.22142   1.37554   2.51585

 Mulliken charges:
               1
     1  O   -0.780407
     2  H    0.410611
     3  H    0.363918
     4  O   -0.793118
     5  H    0.390061
     6  H    0.408935
 Sum of Mulliken charges =  -0.00000

 Dipole moment (field-independent basis, Debye):
    X=             -0.6106    Y=              4.1109    Z=              0.0000  Tot=              4.1560
 Quadrupole moment (field-independent basis, Debye-Ang):
   XX=             -9.8448   YY=             -8.7287   ZZ=            -15.0088
   XY=              5.6910   XZ=              0.0000   YZ=              0.0000

 9177\MP4DQ=-33.9006346\MP4SDQ=-33.9027682\CCSD=-33.9037588\CCSD(T)=-33
 Normal termination of Gaussian 16 at Sun Dec 10 06:42:35 2023.
