 Gaussian 16, Revision A.03,
 Gaussian 16:  ES64L-G16RevA.03 25-Dec-2016

 ------------------
 #p CCSD(T)/CEP-31G
 ------------------

 ------------
 H2O_H2O_1076
 ------------
 Symbolic Z-matrix:
 Charge =  0 Multiplicity = 1

                         Standard orientation:
 ---------------------------------------------------------------------
 Center     Atomic      Atomic             Coordinates (Angstroms)
 Number     Number       Type             X           Y           Z
 ---------------------------------------------------------------------
      1          8           0        0.090688   -1.518877    0.000000
      2          1           0        0.090555   -0.536275    0.000000
      3          1           0       -0.838762   -1.837669    0.000000
      4          8           0        0.090688    1.380177    0.000000
      5          1           0        0.154821    2.360684    0.000000
      6          1           0       -0.857623    1.122856    0.000000
 ---------------------------------------------------------------------

 SCF Done:  E(RHF) =  -33.6516540488     A.U. after   11 cycles
 E2 =    -0.2292592246D+00 EUMP2 =    -0.33880913273395D+02
 CCSD(T)
 CCSD(T)= -0.33897896030D+02

 The electronic state is 1-A'.
 Alpha  occ. eigenvalues --   -1.39068  -1.33331  -0.75477  -0.68806  -0.58852
 Alpha  occ. eigenvalues --   -0.53527  -0.52842  -0.47821
 Alpha virt. eigenvalues --    0.16612   0.25093   0.27729   0.41976   0.75401
 Alpha virt. eigenvalues --    0.79789   0.84755   0.84954   0.90776   1.12037
 Alpha virt. eigenvalues --    1.15117   1.22864   1.23973   1.38639   2.50688

 Mulliken charges:
               1
     1  O   -0.744204
     2  H    0.384418
     3  H    0.346350
     4  O   -0.768978
     5  H    0.416468
     6  H    0.365945
 Sum of Mulliken charges =  -0.00000

 Dipole moment (field-independent basis, Debye):
    X=             -4.0256    Y=              3.6893    Z=              0.0000  Tot=              5.4604
 Quadrupole moment (field-independent basis, Debye-Ang):
   XX=            -11.1985   YY=             -9.4437   ZZ=            -14.9895
   XY=              2.4383   XZ=              0.0000   YZ=              0.0000

 468\MP4DQ=-33.8919205\MP4SDQ=-33.8941527\CCSD=-33.895119\CCSD(T)=-33.8
 Normal termination of Gaussian 16 at Sun Dec 10 06:38:45 2023.
