 Gaussian 16, Revision A.03,
 Gaussian 16:  ES64L-G16RevA.03 25-Dec-2016

 ------------------
 #p CCSD(T)/CEP-31G
 ------------------

 -----------
 H2O_H2O_425
 -----------
 Symbolic Z-matrix:
 Charge =  0 Multiplicity = 1

                         Standard orientation:
 ---------------------------------------------------------------------
 Center     Atomic      Atomic             Coordinates (Angstroms)
 Number     Number       Type             X           Y           Z
 ---------------------------------------------------------------------
      1          8           0        0.092949   -1.256395    0.000000
      2          1           0        0.092949   -0.273793    0.000000
      3          1           0       -0.836544   -1.575061    0.000000
      4          8           0        0.092949    1.123607    0.000000
      5          1           0        0.092950    2.106210    0.000000
      6          1           0       -0.836544    0.804941    0.000000
 ---------------------------------------------------------------------

 SCF Done:  E(RHF) =  -33.6229067264     A.U. after   11 cycles
 E2 =    -0.2291880252D+00 EUMP2 =    -0.33852094751629D+02
 CCSD(T)
 CCSD(T)= -0.33868389312D+02

 The electronic state is 1-A'.
 Alpha  occ. eigenvalues --   -1.42703  -1.31717  -0.80809  -0.68632  -0.59098
 Alpha  occ. eigenvalues --   -0.56149  -0.50576  -0.45973
 Alpha virt. eigenvalues --    0.16286   0.24244   0.28499   0.53313   0.73253
 Alpha virt. eigenvalues --    0.77421   0.86422   0.88160   0.93995   1.11405
 Alpha virt. eigenvalues --    1.12677   1.24456   1.29292   1.45210   2.68730

 Mulliken charges:
               1
     1  O   -0.686198
     2  H    0.290419
     3  H    0.325872
     4  O   -0.755212
     5  H    0.457522
     6  H    0.367597
 Sum of Mulliken charges =   0.00000

 Dipole moment (field-independent basis, Debye):
    X=             -3.9876    Y=              4.0415    Z=              0.0000  Tot=              5.6775
 Quadrupole moment (field-independent basis, Debye-Ang):
   XX=            -11.3744   YY=            -10.0851   ZZ=            -14.9518
   XY=              2.1452   XZ=              0.0000   YZ=              0.0000

 049\MP4DQ=-33.8620933\MP4SDQ=-33.8645445\CCSD=-33.8653241\CCSD(T)=-33.
 Normal termination of Gaussian 16 at Sun Dec 10 06:26:25 2023.
