 Gaussian 16, Revision A.03,
 Gaussian 16:  ES64L-G16RevA.03 25-Dec-2016

 ------------------
 #p CCSD(T)/CEP-31G
 ------------------

 ------------
 H2O_H2O_2477
 ------------
 Symbolic Z-matrix:
 Charge =  0 Multiplicity = 1

                         Standard orientation:
 ---------------------------------------------------------------------
 Center     Atomic      Atomic             Coordinates (Angstroms)
 Number     Number       Type             X           Y           Z
 ---------------------------------------------------------------------
      1          8           0        0.088233   -2.080355    0.000000
      2          1           0        0.088034   -1.097753    0.000000
      3          1           0       -0.841195   -2.399210    0.000000
      4          8           0        0.088233    1.936039    0.000000
      5          1           0        0.216291    2.910261    0.000000
      6          1           0       -0.874863    1.741227    0.000000
 ---------------------------------------------------------------------

 SCF Done:  E(RHF) =  -33.6533726192     A.U. after   11 cycles
 E2 =    -0.2285486407D+00 EUMP2 =    -0.33881921259911D+02
 CCSD(T)
 CCSD(T)= -0.33898912989D+02

 The electronic state is 1-A'.
 Alpha  occ. eigenvalues --   -1.37086  -1.34490  -0.72786  -0.70061  -0.56932
 Alpha  occ. eigenvalues --   -0.54226  -0.51668  -0.49065
 Alpha virt. eigenvalues --    0.17232   0.22739   0.29042   0.32425   0.78851
 Alpha virt. eigenvalues --    0.81547   0.82899   0.84496   0.87189   0.88055
 Alpha virt. eigenvalues --    1.15565   1.18967   1.20474   1.30863   2.55675

 Mulliken charges:
               1
     1  O   -0.748521
     2  H    0.385779
     3  H    0.361552
     4  O   -0.748041
     5  H    0.382209
     6  H    0.367022
 Sum of Mulliken charges =  -0.00000

 Dipole moment (field-independent basis, Debye):
    X=             -4.0195    Y=              3.4954    Z=              0.0000  Tot=              5.3267
 Quadrupole moment (field-independent basis, Debye-Ang):
   XX=            -10.9858   YY=             -8.8671   ZZ=            -14.9899
   XY=              2.7991   XZ=              0.0000   YZ=              0.0000

 4804\MP4DQ=-33.8932202\MP4SDQ=-33.8952844\CCSD=-33.8963198\CCSD(T)=-33
 Normal termination of Gaussian 16 at Sun Dec 10 07:07:03 2023.
