 Gaussian 16, Revision A.03,
 Gaussian 16:  ES64L-G16RevA.03 25-Dec-2016

 ------------------
 #p CCSD(T)/CEP-31G
 ------------------

 ------------
 H2O_H2O_1348
 ------------
 Symbolic Z-matrix:
 Charge =  0 Multiplicity = 1

                         Standard orientation:
 ---------------------------------------------------------------------
 Center     Atomic      Atomic             Coordinates (Angstroms)
 Number     Number       Type             X           Y           Z
 ---------------------------------------------------------------------
      1          8           0       -0.016736    1.631999    0.000000
      2          1           0       -0.012558    0.649406    0.000000
      3          1           0        0.911394    1.954614    0.000000
      4          8           0       -0.016736   -1.468653    0.000000
      5          1           0       -0.996952   -1.537086    0.000000
      6          1           0        0.365892   -2.373696    0.000000
 ---------------------------------------------------------------------

 SCF Done:  E(RHF) =  -33.6612448189     A.U. after   11 cycles
 E2 =    -0.2287099137D+00 EUMP2 =    -0.33889954732528D+02
 CCSD(T)
 CCSD(T)= -0.33906746623D+02

 The electronic state is 1-A'.
 Alpha  occ. eigenvalues --   -1.38185  -1.32429  -0.73985  -0.68351  -0.58699
 Alpha  occ. eigenvalues --   -0.52863  -0.52196  -0.47119
 Alpha virt. eigenvalues --    0.17705   0.25535   0.28410   0.40172   0.76601
 Alpha virt. eigenvalues --    0.79859   0.84628   0.86377   0.89593   1.06643
 Alpha virt. eigenvalues --    1.16069   1.17734   1.21961   1.37111   2.51103

 Mulliken charges:
               1
     1  O   -0.781338
     2  H    0.413855
     3  H    0.363081
     4  O   -0.790150
     5  H    0.389651
     6  H    0.404901
 Sum of Mulliken charges =  -0.00000

 Dipole moment (field-independent basis, Debye):
    X=              0.7497    Y=             -4.1856    Z=              0.0000  Tot=              4.2522
 Quadrupole moment (field-independent basis, Debye-Ang):
   XX=             -9.7421   YY=             -8.5693   ZZ=            -15.0090
   XY=              5.6431   XZ=              0.0000   YZ=              0.0000

 2147\MP4DQ=-33.9009348\MP4SDQ=-33.9030558\CCSD=-33.9040518\CCSD(T)=-33
 Normal termination of Gaussian 16 at Sun Dec 10 06:44:03 2023.
