 Gaussian 16, Revision A.03,
 Gaussian 16:  ES64L-G16RevA.03 25-Dec-2016

 ------------------
 #p CCSD(T)/CEP-31G
 ------------------

 ----------
 H2O_H2O_56
 ----------
 Symbolic Z-matrix:
 Charge =  0 Multiplicity = 1

                         Standard orientation:
 ---------------------------------------------------------------------
 Center     Atomic      Atomic             Coordinates (Angstroms)
 Number     Number       Type             X           Y           Z
 ---------------------------------------------------------------------
      1          8           0        0.076817   -1.123285    0.000000
      2          1           0        0.075498   -0.140685    0.000000
      3          1           0       -0.852247   -1.443199    0.000000
      4          8           0        0.076817    0.960188    0.000000
      5          1           0        0.451624    1.868497    0.000000
      6          1           0       -0.903952    1.020163    0.000000
 ---------------------------------------------------------------------

 SCF Done:  E(RHF) =  -33.5826538955     A.U. after   11 cycles
 E2 =    -0.2277673757D+00 EUMP2 =    -0.33810421271162D+02
 CCSD(T)
 CCSD(T)= -0.33825306854D+02

 The electronic state is 1-A'.
 Alpha  occ. eigenvalues --   -1.46883  -1.27724  -0.83991  -0.74970  -0.59252
 Alpha  occ. eigenvalues --   -0.54816  -0.44873  -0.41633
 Alpha virt. eigenvalues --    0.15878   0.23474   0.30399   0.61626   0.73089
 Alpha virt. eigenvalues --    0.74324   0.89674   0.91336   0.95580   1.08181
 Alpha virt. eigenvalues --    1.09972   1.20770   1.28578   1.41651   3.08754

 Mulliken charges:
               1
     1  O   -0.699618
     2  H    0.250784
     3  H    0.296434
     4  O   -0.760342
     5  H    0.502616
     6  H    0.410126
 Sum of Mulliken charges =  -0.00000

 Dipole moment (field-independent basis, Debye):
    X=             -3.0853    Y=              5.3885    Z=              0.0000  Tot=              6.2092
 Quadrupole moment (field-independent basis, Debye-Ang):
   XX=            -10.2779   YY=            -10.5893   ZZ=            -14.8958
   XY=              2.9037   XZ=              0.0000   YZ=              0.0000

 35\MP4DQ=-33.8189255\MP4SDQ=-33.8214377\CCSD=-33.8220548\CCSD(T)=-33.8
 Normal termination of Gaussian 16 at Sun Dec 10 06:19:07 2023.
