 Gaussian 16, Revision A.03,
 Gaussian 16:  ES64L-G16RevA.03 25-Dec-2016

 ------------------
 #p CCSD(T)/CEP-31G
 ------------------

 ------------
 H2O_H2O_4579
 ------------
 Symbolic Z-matrix:
 Charge =  0 Multiplicity = 1

                         Standard orientation:
 ---------------------------------------------------------------------
 Center     Atomic      Atomic             Coordinates (Angstroms)
 Number     Number       Type             X           Y           Z
 ---------------------------------------------------------------------
      1          8           0        0.082798    2.923546    0.000000
      2          1           0        0.082495    1.940944    0.000000
      3          1           0       -0.846597    3.242498    0.000000
      4          8           0        0.082798   -2.769015   -0.000000
      5          1           0        0.336821   -3.718213   -0.000000
      6          1           0       -0.897481   -2.701475   -0.000000
 ---------------------------------------------------------------------

 SCF Done:  E(RHF) =  -33.6524216407     A.U. after   11 cycles
 E2 =    -0.2283405396D+00 EUMP2 =    -0.33880762180319D+02
 CCSD(T)
 CCSD(T)= -0.33897745331D+02

 The electronic state is 1-A'.
 Alpha  occ. eigenvalues --   -1.36273  -1.34975  -0.71918  -0.70595  -0.56047
 Alpha  occ. eigenvalues --   -0.54723  -0.50853  -0.49553
 Alpha virt. eigenvalues --    0.19498   0.20890   0.29778   0.31135   0.79707
 Alpha virt. eigenvalues --    0.80981   0.82643   0.83992   0.85738   0.87155
 Alpha virt. eigenvalues --    1.16655   1.17956   1.21105   1.22464   2.56626

 Mulliken charges:
               1
     1  O   -0.743646
     2  H    0.376285
     3  H    0.367355
     4  O   -0.743777
     5  H    0.374514
     6  H    0.369268
 Sum of Mulliken charges =   0.00000

 Dipole moment (field-independent basis, Debye):
    X=             -3.8082    Y=             -3.6253    Z=             -0.0000  Tot=              5.2578
 Quadrupole moment (field-independent basis, Debye-Ang):
   XX=            -10.6367   YY=             -7.4466   ZZ=            -14.9895
   XY=             -3.7075   XZ=             -0.0000   YZ=              0.0000

 3618\MP4DQ=-33.892105\MP4SDQ=-33.8941311\CCSD=-33.8951851\CCSD(T)=-33.
 Normal termination of Gaussian 16 at Sun Dec 10 06:55:25 2023.
