 Gaussian 16, Revision A.03,
 Gaussian 16:  ES64L-G16RevA.03 25-Dec-2016

 ------------------
 #p CCSD(T)/CEP-31G
 ------------------

 ------------
 H2O_H2O_2704
 ------------
 Symbolic Z-matrix:
 Charge =  0 Multiplicity = 1

                         Standard orientation:
 ---------------------------------------------------------------------
 Center     Atomic      Atomic             Coordinates (Angstroms)
 Number     Number       Type             X           Y           Z
 ---------------------------------------------------------------------
      1          8           0        0.082806   -2.175642    0.000000
      2          1           0        0.082396   -1.193040    0.000000
      3          1           0       -0.846554   -2.494696    0.000000
      4          8           0        0.082806    2.021129    0.000000
      5          1           0        0.336727    2.970355    0.000000
      6          1           0       -0.897464    1.953481    0.000000
 ---------------------------------------------------------------------

 SCF Done:  E(RHF) =  -33.6537807004     A.U. after   11 cycles
 E2 =    -0.2284550707D+00 EUMP2 =    -0.33882235771038D+02
 CCSD(T)
 CCSD(T)= -0.33899200280D+02

 The electronic state is 1-A'.
 Alpha  occ. eigenvalues --   -1.36926  -1.34378  -0.72603  -0.69966  -0.56787
 Alpha  occ. eigenvalues --   -0.54136  -0.51519  -0.48965
 Alpha virt. eigenvalues --    0.17847   0.22407   0.29179   0.32206   0.79042
 Alpha virt. eigenvalues --    0.81578   0.82875   0.84594   0.85871   0.88012
 Alpha virt. eigenvalues --    1.15858   1.19090   1.20509   1.28270   2.55838

 Mulliken charges:
               1
     1  O   -0.749565
     2  H    0.386106
     3  H    0.362488
     4  O   -0.748868
     5  H    0.380835
     6  H    0.369005
 Sum of Mulliken charges =  -0.00000

 Dipole moment (field-independent basis, Debye):
    X=             -3.7770    Y=              3.7197    Z=              0.0000  Tot=              5.3011
 Quadrupole moment (field-independent basis, Debye-Ang):
   XX=            -10.6509   YY=             -8.1889   ZZ=            -14.9915
   XY=              3.3436   XZ=              0.0000   YZ=              0.0000

 7854\MP4DQ=-33.89353\MP4SDQ=-33.8955812\CCSD=-33.8966195\CCSD(T)=-33.8
 Normal termination of Gaussian 16 at Sun Dec 10 06:21:40 2023.
