 Gaussian 16, Revision A.03,
 Gaussian 16:  ES64L-G16RevA.03 25-Dec-2016

 ------------------
 #p CCSD(T)/CEP-31G
 ------------------

 ------------
 H2O_H2O_2262
 ------------
 Symbolic Z-matrix:
 Charge =  0 Multiplicity = 1

                         Standard orientation:
 ---------------------------------------------------------------------
 Center     Atomic      Atomic             Coordinates (Angstroms)
 Number     Number       Type             X           Y           Z
 ---------------------------------------------------------------------
      1          8           0        0.056012    2.009387   -0.000000
      2          1           0        0.054378    1.026787   -0.000000
      3          1           0       -0.872949    2.329598   -0.000000
      4          8           0        0.056012   -1.830507    0.000000
      5          1           0        0.749661   -2.526466    0.000000
      6          1           0       -0.827287   -2.260958    0.000000
 ---------------------------------------------------------------------

 SCF Done:  E(RHF) =  -33.6570470242     A.U. after   11 cycles
 E2 =    -0.2285069867D+00 EUMP2 =    -0.33885554010874D+02
 CCSD(T)
 CCSD(T)= -0.33902448654D+02

 The electronic state is 1-A'.
 Alpha  occ. eigenvalues --   -1.37176  -1.33436  -0.72831  -0.69053  -0.57266
 Alpha  occ. eigenvalues --   -0.53264  -0.51819  -0.48071
 Alpha virt. eigenvalues --    0.18232   0.23394   0.29119   0.33986   0.78645
 Alpha virt. eigenvalues --    0.82512   0.83696   0.85501   0.87015   0.88729
 Alpha virt. eigenvalues --    1.15890   1.20014   1.20370   1.30953   2.53193

 Mulliken charges:
               1
     1  O   -0.763114
     2  H    0.399893
     3  H    0.361143
     4  O   -0.758176
     5  H    0.384045
     6  H    0.376208
 Sum of Mulliken charges =  -0.00000

 Dipole moment (field-independent basis, Debye):
    X=             -2.5354    Y=             -4.3651    Z=              0.0000  Tot=              5.0480
 Quadrupole moment (field-independent basis, Debye-Ang):
   XX=             -9.5820   YY=             -7.2402   ZZ=            -14.9989
   XY=             -4.9271   XZ=              0.0000   YZ=             -0.0000

 99\MP4DQ=-33.8967594\MP4SDQ=-33.8988249\CCSD=-33.8998528\CCSD(T)=-33.9
 Normal termination of Gaussian 16 at Sun Dec 10 07:02:54 2023.
