 Gaussian 16, Revision A.03,
 Gaussian 16:  ES64L-G16RevA.03 25-Dec-2016

 ------------------
 #p CCSD(T)/CEP-31G
 ------------------

 ------------
 H2O_H2O_3085
 ------------
 Symbolic Z-matrix:
 Charge =  0 Multiplicity = 1

                         Standard orientation:
 ---------------------------------------------------------------------
 Center     Atomic      Atomic             Coordinates (Angstroms)
 Number     Number       Type             X           Y           Z
 ---------------------------------------------------------------------
      1          8           0        0.063237    2.336626   -0.000000
      2          1           0        0.062115    1.354025   -0.000000
      3          1           0       -0.865892    2.656353    0.000000
      4          8           0        0.063237   -2.161119   -0.000000
      5          1           0        0.660516   -2.941351   -0.000000
      6          1           0       -0.868529   -2.473080    0.000000
 ---------------------------------------------------------------------

 SCF Done:  E(RHF) =  -33.6545635804     A.U. after   11 cycles
 E2 =    -0.2283424254D+00 EUMP2 =    -0.33882906005771D+02
 CCSD(T)
 CCSD(T)= -0.33899832134D+02

 The electronic state is 1-A'.
 Alpha  occ. eigenvalues --   -1.36697  -1.34160  -0.72348  -0.69771  -0.56596
 Alpha  occ. eigenvalues --   -0.53960  -0.51307  -0.48767
 Alpha virt. eigenvalues --    0.18810   0.22101   0.29435   0.32236   0.79265
 Alpha virt. eigenvalues --    0.81726   0.82472   0.84788   0.85210   0.87995
 Alpha virt. eigenvalues --    1.16310   1.19084   1.20712   1.25302   2.56109

 Mulliken charges:
               1
     1  O   -0.752068
     2  H    0.386913
     3  H    0.364490
     4  O   -0.750555
     5  H    0.378768
     6  H    0.372451
 Sum of Mulliken charges =  -0.00000

 Dipole moment (field-independent basis, Debye):
    X=             -2.8870    Y=             -4.1885    Z=              0.0000  Tot=              5.0871
 Quadrupole moment (field-independent basis, Debye-Ang):
   XX=             -9.7770   YY=             -6.6850   ZZ=            -14.9940
   XY=             -5.0030   XZ=             -0.0000   YZ=              0.0000

 379\MP4DQ=-33.8941891\MP4SDQ=-33.8962248\CCSD=-33.8972664\CCSD(T)=-33.
 Normal termination of Gaussian 16 at Sun Dec 10 06:28:35 2023.
