 Gaussian 16, Revision A.03,
 Gaussian 16:  ES64L-G16RevA.03 25-Dec-2016

 ------------------
 #p CCSD(T)/CEP-31G
 ------------------

 ------------
 H2O_H2O_2509
 ------------
 Symbolic Z-matrix:
 Charge =  0 Multiplicity = 1

                         Standard orientation:
 ---------------------------------------------------------------------
 Center     Atomic      Atomic             Coordinates (Angstroms)
 Number     Number       Type             X           Y           Z
 ---------------------------------------------------------------------
      1          8           0        0.066771    2.105958    0.000000
      2          1           0        0.065670    1.123357    0.000000
      3          1           0       -0.862365    2.425665    0.000000
      4          8           0        0.066771   -1.932870   -0.000000
      5          1           0        0.611759   -2.750484   -0.000000
      6          1           0       -0.883398   -2.183242   -0.000000
 ---------------------------------------------------------------------

 SCF Done:  E(RHF) =  -33.6555923531     A.U. after   11 cycles
 E2 =    -0.2284566380D+00 EUMP2 =    -0.33884048991173D+02
 CCSD(T)
 CCSD(T)= -0.33900970639D+02

 The electronic state is 1-A'.
 Alpha  occ. eigenvalues --   -1.37019  -1.33822  -0.72681  -0.69423  -0.56995
 Alpha  occ. eigenvalues --   -0.53625  -0.51640  -0.48437
 Alpha virt. eigenvalues --    0.18224   0.22848   0.29173   0.33064   0.78894
 Alpha virt. eigenvalues --    0.82095   0.83588   0.85027   0.85910   0.88376
 Alpha virt. eigenvalues --    1.15979   1.19625   1.20465   1.29410   2.54601

 Mulliken charges:
               1
     1  O   -0.756893
     2  H    0.393499
     3  H    0.361805
     4  O   -0.753822
     5  H    0.382265
     6  H    0.373146
 Sum of Mulliken charges =  -0.00000

 Dipole moment (field-independent basis, Debye):
    X=             -3.0350    Y=             -4.1915    Z=             -0.0000  Tot=              5.1749
 Quadrupole moment (field-independent basis, Debye-Ang):
   XX=             -9.8980   YY=             -7.2839   ZZ=            -14.9958
   XY=             -4.4681   XZ=             -0.0000   YZ=              0.0000

 463\MP4DQ=-33.8952961\MP4SDQ=-33.8973536\CCSD=-33.8983861\CCSD(T)=-33.
 Normal termination of Gaussian 16 at Sun Dec 10 06:18:10 2023.
