 Gaussian 16, Revision A.03,
 Gaussian 16:  ES64L-G16RevA.03 25-Dec-2016

 ------------------
 #p CCSD(T)/CEP-31G
 ------------------

 ------------
 H2O_H2O_3681
 ------------
 Symbolic Z-matrix:
 Charge =  0 Multiplicity = 1

                         Standard orientation:
 ---------------------------------------------------------------------
 Center     Atomic      Atomic             Coordinates (Angstroms)
 Number     Number       Type             X           Y           Z
 ---------------------------------------------------------------------
      1          8           0        0.076754    2.569274   -0.000000
      2          1           0        0.076201    1.586673   -0.000000
      3          1           0       -0.852560    2.888463   -0.000000
      4          8           0        0.076754   -2.406057    0.000000
      5          1           0        0.452268   -3.314074    0.000000
      6          1           0       -0.903969   -2.466798    0.000000
 ---------------------------------------------------------------------

 SCF Done:  E(RHF) =  -33.6531562760     A.U. after   11 cycles
 E2 =    -0.2283287970D+00 EUMP2 =    -0.33881485073025D+02
 CCSD(T)
 CCSD(T)= -0.33898447319D+02

 The electronic state is 1-A'.
 Alpha  occ. eigenvalues --   -1.36487  -1.34636  -0.72138  -0.70249  -0.56304
 Alpha  occ. eigenvalues --   -0.54401  -0.51076  -0.49223
 Alpha virt. eigenvalues --    0.19135   0.21413   0.29576   0.31596   0.79491
 Alpha virt. eigenvalues --    0.81294   0.82319   0.84317   0.85460   0.87562
 Alpha virt. eigenvalues --    1.16456   1.18402   1.20869   1.23335   2.56430

 Mulliken charges:
               1
     1  O   -0.746515
     2  H    0.380619
     3  H    0.365766
     4  O   -0.746463
     5  H    0.376644
     6  H    0.369949
 Sum of Mulliken charges =  -0.00000

 Dipole moment (field-independent basis, Debye):
    X=             -3.5185    Y=             -3.8586    Z=              0.0000  Tot=              5.2219
 Quadrupole moment (field-independent basis, Debye-Ang):
   XX=            -10.3205   YY=             -7.1241   ZZ=            -14.9910
   XY=             -4.1475   XZ=              0.0000   YZ=             -0.0000

 0626\MP4DQ=-33.8928085\MP4SDQ=-33.8948359\CCSD=-33.895886\CCSD(T)=-33.
 Normal termination of Gaussian 16 at Sun Dec 10 06:39:14 2023.
