 Gaussian 16, Revision A.03,
 Gaussian 16:  ES64L-G16RevA.03 25-Dec-2016

 ------------------
 #p CCSD(T)/CEP-31G
 ------------------

 ------------
 H2O_H2O_2206
 ------------
 Symbolic Z-matrix:
 Charge =  0 Multiplicity = 1

                         Standard orientation:
 ---------------------------------------------------------------------
 Center     Atomic      Atomic             Coordinates (Angstroms)
 Number     Number       Type             X           Y           Z
 ---------------------------------------------------------------------
      1          8           0        0.076768    1.980917    0.000000
      2          1           0        0.076044    0.998316    0.000000
      3          1           0       -0.852490    2.300268    0.000000
      4          8           0        0.076768   -1.817727   -0.000000
      5          1           0        0.452125   -2.725809   -0.000000
      6          1           0       -0.903965   -1.878297   -0.000000
 ---------------------------------------------------------------------

 SCF Done:  E(RHF) =  -33.6554265539     A.U. after   11 cycles
 E2 =    -0.2285883158D+00 EUMP2 =    -0.33884014869664D+02
 CCSD(T)
 CCSD(T)= -0.33900969573D+02

 The electronic state is 1-A'.
 Alpha  occ. eigenvalues --   -1.37258  -1.33830  -0.72948  -0.69415  -0.57243
 Alpha  occ. eigenvalues --   -0.53602  -0.51869  -0.48433
 Alpha virt. eigenvalues --    0.17681   0.23276   0.28952   0.33682   0.78560
 Alpha virt. eigenvalues --    0.82233   0.83068   0.85033   0.88407   0.89405
 Alpha virt. eigenvalues --    1.15617   1.19546   1.20418   1.33052   2.53713

 Mulliken charges:
               1
     1  O   -0.757156
     2  H    0.395682
     3  H    0.359524
     4  O   -0.754970
     5  H    0.385483
     6  H    0.371437
 Sum of Mulliken charges =   0.00000

 Dipole moment (field-independent basis, Debye):
    X=             -3.4819    Y=             -3.9928    Z=             -0.0000  Tot=              5.2977
 Quadrupole moment (field-independent basis, Debye-Ang):
   XX=            -10.3322   YY=             -7.9795   ZZ=            -14.9948
   XY=             -3.6952   XZ=             -0.0000   YZ=              0.0000

 5159\MP4DQ=-33.8952582\MP4SDQ=-33.8973355\CCSD=-33.8983647\CCSD(T)=-33
 Normal termination of Gaussian 16 at Sun Dec 10 07:00:54 2023.
