 Gaussian 16, Revision A.03,
 Gaussian 16:  ES64L-G16RevA.03 25-Dec-2016

 ------------------
 #p CCSD(T)/CEP-31G
 ------------------

 ------------
 H2O_H2O_4118
 ------------
 Symbolic Z-matrix:
 Charge =  0 Multiplicity = 1

                         Standard orientation:
 ---------------------------------------------------------------------
 Center     Atomic      Atomic             Coordinates (Angstroms)
 Number     Number       Type             X           Y           Z
 ---------------------------------------------------------------------
      1          8           0        0.033761    2.746585   -0.000000
      2          1           0        0.031871    1.763985   -0.000000
      3          1           0       -0.895118    3.067038   -0.000000
      4          8           0        0.033761   -2.569039    0.000000
      5          1           0        0.940842   -2.946809    0.000000
      6          1           0       -0.617767   -3.304579    0.000000
 ---------------------------------------------------------------------

 SCF Done:  E(RHF) =  -33.6537582676     A.U. after   11 cycles
 E2 =    -0.2282840637D+00 EUMP2 =    -0.33882042331343D+02
 CCSD(T)
 CCSD(T)= -0.33898987213D+02

 The electronic state is 1-A'.
 Alpha  occ. eigenvalues --   -1.36331  -1.34554  -0.71972  -0.70187  -0.56179
 Alpha  occ. eigenvalues --   -0.54353  -0.50932  -0.49158
 Alpha virt. eigenvalues --    0.19502   0.21399   0.29793   0.31674   0.79622
 Alpha virt. eigenvalues --    0.81350   0.82412   0.84343   0.85645   0.87450
 Alpha virt. eigenvalues --    1.16655   1.18448   1.21086   1.23024   2.56607

 Mulliken charges:
               1
     1  O   -0.748800
     2  H    0.380279
     3  H    0.368476
     4  O   -0.748038
     5  H    0.374703
     6  H    0.373380
 Sum of Mulliken charges =   0.00000

 Dipole moment (field-independent basis, Debye):
    X=             -1.5479    Y=             -4.1744    Z=              0.0000  Tot=              4.4522
 Quadrupole moment (field-independent basis, Debye-Ang):
   XX=             -9.4362   YY=             -5.6754   ZZ=            -14.9926
   XY=             -8.0526   XZ=              0.0000   YZ=             -0.0000

 69\MP4DQ=-33.8933561\MP4SDQ=-33.8953796\CCSD=-33.8964303\CCSD(T)=-33.8
 Normal termination of Gaussian 16 at Sun Dec 10 06:47:07 2023.
