 Gaussian 16, Revision A.03,
 Gaussian 16:  ES64L-G16RevA.03 25-Dec-2016

 ------------------
 #p CCSD(T)/CEP-31G
 ------------------

 ------------
 H2O_H2O_4268
 ------------
 Symbolic Z-matrix:
 Charge =  0 Multiplicity = 1

                         Standard orientation:
 ---------------------------------------------------------------------
 Center     Atomic      Atomic             Coordinates (Angstroms)
 Number     Number       Type             X           Y           Z
 ---------------------------------------------------------------------
      1          8           0        0.033757    2.806418   -0.000000
      2          1           0        0.031909    1.823818   -0.000000
      3          1           0       -0.895135    3.126831   -0.000000
      4          8           0        0.033757   -2.628869    0.000000
      5          1           0        0.940854   -3.006601    0.000000
      6          1           0       -0.617738   -3.364437    0.000000
 ---------------------------------------------------------------------

 SCF Done:  E(RHF) =  -33.6536171376     A.U. after   11 cycles
 E2 =    -0.2282874156D+00 EUMP2 =    -0.33881904553138D+02
 CCSD(T)
 CCSD(T)= -0.33898853443D+02

 The electronic state is 1-A'.
 Alpha  occ. eigenvalues --   -1.36298  -1.34605  -0.71938  -0.70238  -0.56137
 Alpha  occ. eigenvalues --   -0.54400  -0.50897  -0.49206
 Alpha virt. eigenvalues --    0.19545   0.21328   0.29821   0.31608   0.79657
 Alpha virt. eigenvalues --    0.81305   0.82469   0.84295   0.85686   0.87401
 Alpha virt. eigenvalues --    1.16682   1.18385   1.21118   1.22924   2.56639

 Mulliken charges:
               1
     1  O   -0.748250
     2  H    0.379596
     3  H    0.368627
     4  O   -0.747566
     5  H    0.374430
     6  H    0.373163
 Sum of Mulliken charges =  -0.00000

 Dipole moment (field-independent basis, Debye):
    X=             -1.5487    Y=             -4.1696    Z=              0.0000  Tot=              4.4479
 Quadrupole moment (field-independent basis, Debye-Ang):
   XX=             -9.4366   YY=             -5.5477   ZZ=            -14.9923
   XY=             -8.2171   XZ=              0.0000   YZ=             -0.0000

 4732\MP4DQ=-33.8932218\MP4SDQ=-33.8952453\CCSD=-33.8962966\CCSD(T)=-33
 Normal termination of Gaussian 16 at Sun Dec 10 06:49:49 2023.
