 Gaussian 16, Revision A.03,
 Gaussian 16:  ES64L-G16RevA.03 25-Dec-2016

 ------------------
 #p CCSD(T)/CEP-31G
 ------------------

 -----------
 H2O_H2O_160
 -----------
 Symbolic Z-matrix:
 Charge =  0 Multiplicity = 1

                         Standard orientation:
 ---------------------------------------------------------------------
 Center     Atomic      Atomic             Coordinates (Angstroms)
 Number     Number       Type             X           Y           Z
 ---------------------------------------------------------------------
      1          8           0        0.063345    1.169833    0.000000
      2          1           0        0.061014    0.187235    0.000000
      3          1           0       -0.865390    1.490703   -0.000000
      4          8           0        0.063345   -0.994482    0.000000
      5          1           0        0.659665   -1.775449    0.000000
      6          1           0       -0.868803   -1.305297   -0.000000
 ---------------------------------------------------------------------

 SCF Done:  E(RHF) =  -33.6141558828     A.U. after   11 cycles
 E2 =    -0.2281594907D+00 EUMP2 =    -0.33842315373524D+02
 CCSD(T)
 CCSD(T)= -0.33857141414D+02

 The electronic state is 1-A'.
 Alpha  occ. eigenvalues --   -1.44790  -1.27591  -0.80375  -0.75867  -0.58279
 Alpha  occ. eigenvalues --   -0.55384  -0.45074  -0.41631
 Alpha virt. eigenvalues --    0.16221   0.24928   0.29914   0.61013   0.73279
 Alpha virt. eigenvalues --    0.73819   0.87399   0.91246   0.93592   1.07702
 Alpha virt. eigenvalues --    1.11637   1.18637   1.27419   1.34674   2.95053

 Mulliken charges:
               1
     1  O   -0.738326
     2  H    0.338121
     3  H    0.304787
     4  O   -0.803340
     5  H    0.476912
     6  H    0.421846
 Sum of Mulliken charges =  -0.00000

 Dipole moment (field-independent basis, Debye):
    X=             -2.5554    Y=             -5.4929    Z=             -0.0000  Tot=              6.0582
 Quadrupole moment (field-independent basis, Debye-Ang):
   XX=             -9.6908   YY=            -10.4858   ZZ=            -14.9434
   XY=             -3.2731   XZ=              0.0000   YZ=             -0.0000

 4\MP4DQ=-33.8509289\MP4SDQ=-33.8532951\CCSD=-33.8539308\CCSD(T)=-33.85
 Normal termination of Gaussian 16 at Sun Dec 10 06:21:11 2023.
