 Gaussian 16, Revision A.03,
 Gaussian 16:  ES64L-G16RevA.03 25-Dec-2016

 ------------------
 #p CCSD(T)/CEP-31G
 ------------------

 ------------
 H2O_H2O_4001
 ------------
 Symbolic Z-matrix:
 Charge =  0 Multiplicity = 1

                         Standard orientation:
 ---------------------------------------------------------------------
 Center     Atomic      Atomic             Coordinates (Angstroms)
 Number     Number       Type             X           Y           Z
 ---------------------------------------------------------------------
      1          8           0        0.090684   -2.685598    0.000000
      2          1           0        0.090610   -1.702997    0.000000
      3          1           0       -0.838785   -3.004334    0.000000
      4          8           0        0.090684    2.546888    0.000000
      5          1           0        0.154875    3.527390    0.000000
      6          1           0       -0.857642    2.289624    0.000000
 ---------------------------------------------------------------------

 SCF Done:  E(RHF) =  -33.6521852920     A.U. after   11 cycles
 E2 =    -0.2283587687D+00 EUMP2 =    -0.33880544060693D+02
 CCSD(T)
 CCSD(T)= -0.33897535500D+02

 The electronic state is 1-A'.
 Alpha  occ. eigenvalues --   -1.36420  -1.35050  -0.72073  -0.70663  -0.56186
 Alpha  occ. eigenvalues --   -0.54787  -0.50995  -0.49622
 Alpha virt. eigenvalues --    0.19103   0.20982   0.29618   0.31066   0.79574
 Alpha virt. eigenvalues --    0.80916   0.82492   0.83931   0.85550   0.87187
 Alpha virt. eigenvalues --    1.16431   1.17940   1.20950   1.22568   2.56123

 Mulliken charges:
               1
     1  O   -0.742756
     2  H    0.376170
     3  H    0.366555
     4  O   -0.743202
     5  H    0.375540
     6  H    0.367692
 Sum of Mulliken charges =  -0.00000

 Dipole moment (field-independent basis, Debye):
    X=             -4.1658    Y=              3.2686    Z=              0.0000  Tot=              5.2951
 Quadrupole moment (field-independent basis, Debye-Ang):
   XX=            -11.1293   YY=             -9.0810   ZZ=            -14.9887
   XY=              2.6241   XZ=              0.0000   YZ=              0.0000

 1499\MP4DQ=-33.8918914\MP4SDQ=-33.8939193\CCSD=-33.8949728\CCSD(T)=-33
 Normal termination of Gaussian 16 at Sun Dec 10 06:45:00 2023.
