 Gaussian 16, Revision A.03,
 Gaussian 16:  ES64L-G16RevA.03 25-Dec-2016

 ------------------
 #p CCSD(T)/CEP-31G
 ------------------

 -----------
 H2O_H2O_641
 -----------
 Symbolic Z-matrix:
 Charge =  0 Multiplicity = 1

                         Standard orientation:
 ---------------------------------------------------------------------
 Center     Atomic      Atomic             Coordinates (Angstroms)
 Number     Number       Type             X           Y           Z
 ---------------------------------------------------------------------
      1          8           0        0.041279    1.361719    0.000000
      2          1           0        0.037822    0.379123    0.000000
      3          1           0       -0.887087    1.683654    0.000000
      4          8           0        0.041279   -1.181921   -0.000000
      5          1           0        0.890504   -1.676214   -0.000000
      6          1           0       -0.701708   -1.824942   -0.000000
 ---------------------------------------------------------------------

 SCF Done:  E(RHF) =  -33.6588551311     A.U. after   11 cycles
 E2 =    -0.2289572390D+00 EUMP2 =    -0.33887812370081D+02
 CCSD(T)
 CCSD(T)= -0.33903665456D+02

 The electronic state is 1-A'.
 Alpha  occ. eigenvalues --   -1.40381  -1.29741  -0.75710  -0.70243  -0.58819
 Alpha  occ. eigenvalues --   -0.55050  -0.48787  -0.44276
 Alpha virt. eigenvalues --    0.17261   0.27170   0.27869   0.52337   0.74309
 Alpha virt. eigenvalues --    0.74816   0.85565   0.88592   0.96695   0.99364
 Alpha virt. eigenvalues --    1.15078   1.18113   1.24232   1.37117   2.63689

 Mulliken charges:
               1
     1  O   -0.780334
     2  H    0.428600
     3  H    0.337753
     4  O   -0.831379
     5  H    0.423021
     6  H    0.422340
 Sum of Mulliken charges =   0.00000

 Dipole moment (field-independent basis, Debye):
    X=             -1.7794    Y=             -4.9745    Z=             -0.0000  Tot=              5.2831
 Quadrupole moment (field-independent basis, Debye-Ang):
   XX=             -9.3322   YY=             -9.4639   ZZ=            -15.0165
   XY=             -3.9816   XZ=             -0.0000   YZ=              0.0000

 872\MP4DQ=-33.8977319\MP4SDQ=-33.8998895\CCSD=-33.9007222\CCSD(T)=-33.
 Normal termination of Gaussian 16 at Sun Dec 10 06:30:35 2023.
