 Gaussian 16, Revision A.03,
 Gaussian 16:  ES64L-G16RevA.03 25-Dec-2016

 ------------------
 #p CCSD(T)/CEP-31G
 ------------------

 ------------
 H2O_H2O_2494
 ------------
 Symbolic Z-matrix:
 Charge =  0 Multiplicity = 1

                         Standard orientation:
 ---------------------------------------------------------------------
 Center     Atomic      Atomic             Coordinates (Angstroms)
 Number     Number       Type             X           Y           Z
 ---------------------------------------------------------------------
      1          8           0        0.030215    2.097351   -0.000000
      2          1           0        0.027565    1.114753   -0.000000
      3          1           0       -0.898415    2.418523   -0.000000
      4          8           0        0.030215   -1.921761    0.000000
      5          1           0        0.959815   -2.240117    0.000000
      6          1           0       -0.572411   -2.697871    0.000000
 ---------------------------------------------------------------------

 SCF Done:  E(RHF) =  -33.6568821551     A.U. after   11 cycles
 E2 =    -0.2284002657D+00 EUMP2 =    -0.33885282420810D+02
 CCSD(T)
 CCSD(T)= -0.33902170452D+02

 The electronic state is 1-A'.
 Alpha  occ. eigenvalues --   -1.36985  -1.33665  -0.72636  -0.69304  -0.57037
 Alpha  occ. eigenvalues --   -0.53525  -0.51628  -0.48311
 Alpha virt. eigenvalues --    0.18383   0.23032   0.29302   0.33274   0.78894
 Alpha virt. eigenvalues --    0.82204   0.83518   0.84984   0.86241   0.88202
 Alpha virt. eigenvalues --    1.16086   1.19836   1.20546   1.29437   2.54482

 Mulliken charges:
               1
     1  O   -0.762009
     2  H    0.394596
     3  H    0.365699
     4  O   -0.757376
     5  H    0.380218
     6  H    0.378871
 Sum of Mulliken charges =  -0.00000

 Dipole moment (field-independent basis, Debye):
    X=             -1.3687    Y=             -4.2478    Z=              0.0000  Tot=              4.4628
 Quadrupole moment (field-independent basis, Debye-Ang):
   XX=             -9.4640   YY=             -7.1621   ZZ=            -14.9986
   XY=             -6.4678   XZ=              0.0000   YZ=             -0.0000

 483\MP4DQ=-33.8965035\MP4SDQ=-33.8985584\CCSD=-33.8995886\CCSD(T)=-33.
 Normal termination of Gaussian 16 at Sun Dec 10 07:07:22 2023.
