 Gaussian 16, Revision A.03,
 Gaussian 16:  ES64L-G16RevA.03 25-Dec-2016

 ------------------
 #p CCSD(T)/CEP-31G
 ------------------

 ------------
 H2O_H2O_2191
 ------------
 Symbolic Z-matrix:
 Charge =  0 Multiplicity = 1

                         Standard orientation:
 ---------------------------------------------------------------------
 Center     Atomic      Atomic             Coordinates (Angstroms)
 Number     Number       Type             X           Y           Z
 ---------------------------------------------------------------------
      1          8           0        0.041176    1.980023    0.000000
      2          1           0        0.038849    0.997425    0.000000
      3          1           0       -0.887560    2.300890    0.000000
      4          8           0        0.041176   -1.800131    0.000000
      5          1           0        0.890968   -2.293445    0.000000
      6          1           0       -0.701072   -2.444007    0.000000
 ---------------------------------------------------------------------

 SCF Done:  E(RHF) =  -33.6579088804     A.U. after   11 cycles
 E2 =    -0.2285037729D+00 EUMP2 =    -0.33886412653309D+02
 CCSD(T)
 CCSD(T)= -0.33903287730D+02

 The electronic state is 1-A'.
 Alpha  occ. eigenvalues --   -1.37211  -1.33292  -0.72860  -0.68933  -0.57364
 Alpha  occ. eigenvalues --   -0.53145  -0.51868  -0.47944
 Alpha virt. eigenvalues --    0.18269   0.23611   0.29139   0.34355   0.78562
 Alpha virt. eigenvalues --    0.82659   0.83397   0.86022   0.87189   0.88991
 Alpha virt. eigenvalues --    1.15892   1.20099   1.20436   1.31347   2.52770

 Mulliken charges:
               1
     1  O   -0.766699
     2  H    0.401919
     3  H    0.362572
     4  O   -0.760774
     5  H    0.383469
     6  H    0.379513
 Sum of Mulliken charges =  -0.00000

 Dipole moment (field-independent basis, Debye):
    X=             -1.8598    Y=             -4.3977    Z=              0.0000  Tot=              4.7748
 Quadrupole moment (field-independent basis, Debye-Ang):
   XX=             -9.4013   YY=             -7.2676   ZZ=            -15.0007
   XY=             -5.5810   XZ=              0.0000   YZ=              0.0000

 46\MP4DQ=-33.8975966\MP4SDQ=-33.8996627\CCSD=-33.9006887\CCSD(T)=-33.9
 Normal termination of Gaussian 16 at Sun Dec 10 07:00:34 2023.
