 Gaussian 16, Revision A.03,
 Gaussian 16:  ES64L-G16RevA.03 25-Dec-2016

 ------------------
 #p CCSD(T)/CEP-31G
 ------------------

 -----------
 H2O_H2O_272
 -----------
 Symbolic Z-matrix:
 Charge =  0 Multiplicity = 1

                         Standard orientation:
 ---------------------------------------------------------------------
 Center     Atomic      Atomic             Coordinates (Angstroms)
 Number     Number       Type             X           Y           Z
 ---------------------------------------------------------------------
      1          8           0        0.020098   -1.205192    0.000000
      2          1           0        0.014569   -0.222606    0.000000
      3          1           0       -0.907587   -1.529084    0.000000
      4          8           0        0.020098    1.038202    0.000000
      5          1           0        0.993556    1.171937    0.000000
      6          1           0       -0.422110    1.915675    0.000000
 ---------------------------------------------------------------------

 SCF Done:  E(RHF) =  -33.6300829217     A.U. after   11 cycles
 E2 =    -0.2276013963D+00 EUMP2 =    -0.33857684318014D+02
 CCSD(T)
 CCSD(T)= -0.33872842537D+02

 The electronic state is 1-A'.
 Alpha  occ. eigenvalues --   -1.43400  -1.28170  -0.80017  -0.72509  -0.57315
 Alpha  occ. eigenvalues --   -0.57210  -0.46126  -0.42492
 Alpha virt. eigenvalues --    0.17005   0.25507   0.29403   0.59370   0.73516
 Alpha virt. eigenvalues --    0.74817   0.88638   0.90579   0.93604   1.02466
 Alpha virt. eigenvalues --    1.14445   1.20666   1.29086   1.39041   2.86110

 Mulliken charges:
               1
     1  O   -0.752997
     2  H    0.340192
     3  H    0.334459
     4  O   -0.827428
     5  H    0.428747
     6  H    0.477027
 Sum of Mulliken charges =  -0.00000

 Dipole moment (field-independent basis, Debye):
    X=             -0.8782    Y=              5.1313    Z=              0.0000  Tot=              5.2059
 Quadrupole moment (field-independent basis, Debye-Ang):
   XX=             -9.5554   YY=            -10.1087   ZZ=            -14.9718
   XY=              3.8705   XZ=              0.0000   YZ=              0.0000

 22\MP4DQ=-33.8667687\MP4SDQ=-33.8690351\CCSD=-33.8697539\CCSD(T)=-33.8
 Normal termination of Gaussian 16 at Sun Dec 10 06:23:25 2023.
