 Gaussian 16, Revision A.03,
 Gaussian 16:  ES64L-G16RevA.03 25-Dec-2016

 ------------------
 #p CCSD(T)/CEP-31G
 ------------------

 ------------
 H2O_H2O_2985
 ------------
 Symbolic Z-matrix:
 Charge =  0 Multiplicity = 1

                         Standard orientation:
 ---------------------------------------------------------------------
 Center     Atomic      Atomic             Coordinates (Angstroms)
 Number     Number       Type             X           Y           Z
 ---------------------------------------------------------------------
      1          8           0        0.063239    2.296737   -0.000000
      2          1           0        0.062097    1.314136   -0.000000
      3          1           0       -0.865884    2.616483   -0.000000
      4          8           0        0.063239   -2.121233    0.000000
      5          1           0        0.660503   -2.901477    0.000000
      6          1           0       -0.868533   -2.433174    0.000000
 ---------------------------------------------------------------------

 SCF Done:  E(RHF) =  -33.6547473776     A.U. after   11 cycles
 E2 =    -0.2283547596D+00 EUMP2 =    -0.33883102137149D+02
 CCSD(T)
 CCSD(T)= -0.33900025341D+02

 The electronic state is 1-A'.
 Alpha  occ. eigenvalues --   -1.36744  -1.34101  -0.72396  -0.69710  -0.56655
 Alpha  occ. eigenvalues --   -0.53903  -0.51357  -0.48710
 Alpha virt. eigenvalues --    0.18718   0.22215   0.29397   0.32338   0.79215
 Alpha virt. eigenvalues --    0.81783   0.82631   0.84832   0.85177   0.88056
 Alpha virt. eigenvalues --    1.16266   1.19184   1.20674   1.25826   2.55945

 Mulliken charges:
               1
     1  O   -0.752855
     2  H    0.387911
     3  H    0.364138
     4  O   -0.751073
     5  H    0.379237
     6  H    0.372641
 Sum of Mulliken charges =  -0.00000

 Dipole moment (field-independent basis, Debye):
    X=             -2.8851    Y=             -4.1974    Z=              0.0000  Tot=              5.0933
 Quadrupole moment (field-independent basis, Debye-Ang):
   XX=             -9.7771   YY=             -6.7665   ZZ=            -14.9943
   XY=             -4.9475   XZ=              0.0000   YZ=             -0.0000

 75\MP4DQ=-33.894379\MP4SDQ=-33.8964176\CCSD=-33.8974575\CCSD(T)=-33.90
 Normal termination of Gaussian 16 at Sun Dec 10 06:26:45 2023.
