 Gaussian 16, Revision A.03,
 Gaussian 16:  ES64L-G16RevA.03 25-Dec-2016

 ------------------
 #p CCSD(T)/CEP-31G
 ------------------

 -----------
 H2O_H2O_436
 -----------
 Symbolic Z-matrix:
 Charge =  0 Multiplicity = 1

                         Standard orientation:
 ---------------------------------------------------------------------
 Center     Atomic      Atomic             Coordinates (Angstroms)
 Number     Number       Type             X           Y           Z
 ---------------------------------------------------------------------
      1          8           0        0.059742    1.280588   -0.000000
      2          1           0        0.057370    0.297989   -0.000000
      3          1           0       -0.868979    1.601497   -0.000000
      4          8           0        0.059742   -1.103279    0.000000
      5          1           0        0.705831   -1.843600    0.000000
      6          1           0       -0.850098   -1.474355    0.000000
 ---------------------------------------------------------------------

 SCF Done:  E(RHF) =  -33.6474989218     A.U. after   11 cycles
 E2 =    -0.2288396151D+00 EUMP2 =    -0.33876338536885D+02
 CCSD(T)
 CCSD(T)= -0.33891827354D+02

 The electronic state is 1-A'.
 Alpha  occ. eigenvalues --   -1.41766  -1.29072  -0.77105  -0.72331  -0.57710
 Alpha  occ. eigenvalues --   -0.56160  -0.47643  -0.43433
 Alpha virt. eigenvalues --    0.16786   0.26252   0.28591   0.56162   0.73752
 Alpha virt. eigenvalues --    0.74260   0.85724   0.89646   0.95678   1.04530
 Alpha virt. eigenvalues --    1.13916   1.18082   1.24545   1.35677   2.75239

 Mulliken charges:
               1
     1  O   -0.761860
     2  H    0.408589
     3  H    0.323127
     4  O   -0.834744
     5  H    0.453031
     6  H    0.411856
 Sum of Mulliken charges =  -0.00000

 Dipole moment (field-independent basis, Debye):
    X=             -2.4886    Y=             -5.1284    Z=              0.0000  Tot=              5.7003
 Quadrupole moment (field-independent basis, Debye-Ang):
   XX=             -9.6089   YY=             -9.8681   ZZ=            -14.9968
   XY=             -3.5588   XZ=              0.0000   YZ=             -0.0000

 9\MP4DQ=-33.8857819\MP4SDQ=-33.8880189\CCSD=-33.8887794\CCSD(T)=-33.89
 Normal termination of Gaussian 16 at Sun Dec 10 06:26:38 2023.
