 Gaussian 16, Revision A.03,
 Gaussian 16:  ES64L-G16RevA.03 25-Dec-2016

 ------------------
 #p CCSD(T)/CEP-31G
 ------------------

 -----------
 H2O_H2O_782
 -----------
 Symbolic Z-matrix:
 Charge =  0 Multiplicity = 1

                         Standard orientation:
 ---------------------------------------------------------------------
 Center     Atomic      Atomic             Coordinates (Angstroms)
 Number     Number       Type             X           Y           Z
 ---------------------------------------------------------------------
      1          8           0        0.073579    1.414516   -0.000000
      2          1           0        0.072341    0.431916   -0.000000
      3          1           0       -0.855512    1.734354    0.000000
      4          8           0        0.073579   -1.247651   -0.000000
      5          1           0        0.507063   -2.129467   -0.000000
      6          1           0       -0.901158   -1.371724    0.000000
 ---------------------------------------------------------------------

 SCF Done:  E(RHF) =  -33.6561981036     A.U. after   11 cycles
 E2 =    -0.2290048718D+00 EUMP2 =    -0.33885202975420D+02
 CCSD(T)
 CCSD(T)= -0.33901611693D+02

 The electronic state is 1-A'.
 Alpha  occ. eigenvalues --   -1.39871  -1.31178  -0.75862  -0.68853  -0.59177
 Alpha  occ. eigenvalues --   -0.54430  -0.50456  -0.45685
 Alpha virt. eigenvalues --    0.16998   0.26337   0.27527   0.48191   0.74627
 Alpha virt. eigenvalues --    0.76948   0.85240   0.87269   0.95131   1.08503
 Alpha virt. eigenvalues --    1.16383   1.20877   1.22840   1.36495   2.58570

 Mulliken charges:
               1
     1  O   -0.761194
     2  H    0.415007
     3  H    0.336573
     4  O   -0.817907
     5  H    0.440878
     6  H    0.386643
 Sum of Mulliken charges =   0.00000

 Dipole moment (field-independent basis, Debye):
    X=             -3.1726    Y=             -4.5683    Z=              0.0000  Tot=              5.5619
 Quadrupole moment (field-independent basis, Debye-Ang):
   XX=            -10.1823   YY=             -9.1682   ZZ=            -15.0058
   XY=             -3.4045   XZ=             -0.0000   YZ=              0.0000

 3\MP4DQ=-33.8956415\MP4SDQ=-33.8978464\CCSD=-33.8987556\CCSD(T)=-33.90
 Normal termination of Gaussian 16 at Sun Dec 10 06:33:13 2023.
