 Gaussian 16, Revision A.03,
 Gaussian 16:  ES64L-G16RevA.03 25-Dec-2016

 ------------------
 #p CCSD(T)/CEP-31G
 ------------------

 -----------
 H2O_H2O_172
 -----------
 Symbolic Z-matrix:
 Charge =  0 Multiplicity = 1

                         Standard orientation:
 ---------------------------------------------------------------------
 Center     Atomic      Atomic             Coordinates (Angstroms)
 Number     Number       Type             X           Y           Z
 ---------------------------------------------------------------------
      1          8           0        0.020116   -1.165301    0.000000
      2          1           0        0.014383   -0.182716    0.000000
      3          1           0       -0.907502   -1.489385    0.000000
      4          8           0        0.020116    0.998319    0.000000
      5          1           0        0.993546    1.132256    0.000000
      6          1           0       -0.422275    1.875700    0.000000
 ---------------------------------------------------------------------

 SCF Done:  E(RHF) =  -33.6142083634     A.U. after   11 cycles
 E2 =    -0.2272321058D+00 EUMP2 =    -0.33841440469207D+02
 CCSD(T)
 CCSD(T)= -0.33856325181D+02

 The electronic state is 1-A'.
 Alpha  occ. eigenvalues --   -1.44712  -1.27507  -0.81507  -0.73718  -0.58063
 Alpha  occ. eigenvalues --   -0.56408  -0.44961  -0.41707
 Alpha virt. eigenvalues --    0.16857   0.25007   0.29888   0.61090   0.73400
 Alpha virt. eigenvalues --    0.74495   0.89346   0.91202   0.93070   1.02803
 Alpha virt. eigenvalues --    1.13493   1.20076   1.30057   1.40531   2.92935

 Mulliken charges:
               1
     1  O   -0.746372
     2  H    0.304801
     3  H    0.328886
     4  O   -0.807653
     5  H    0.435002
     6  H    0.485335
 Sum of Mulliken charges =   0.00000

 Dipole moment (field-independent basis, Debye):
    X=             -0.8674    Y=              5.2990    Z=              0.0000  Tot=              5.3695
 Quadrupole moment (field-independent basis, Debye-Ang):
   XX=             -9.5319   YY=            -10.3378   ZZ=            -14.9483
   XY=              3.7202   XZ=              0.0000   YZ=              0.0000

 748\MP4DQ=-33.8502024\MP4SDQ=-33.852507\CCSD=-33.8531775\CCSD(T)=-33.8
 Normal termination of Gaussian 16 at Sun Dec 10 06:21:26 2023.
