 Gaussian 16, Revision A.03,
 Gaussian 16:  ES64L-G16RevA.03 25-Dec-2016

 ------------------
 #p CCSD(T)/CEP-31G
 ------------------

 ------------
 H2O_H2O_1686
 ------------
 Symbolic Z-matrix:
 Charge =  0 Multiplicity = 1

                         Standard orientation:
 ---------------------------------------------------------------------
 Center     Atomic      Atomic             Coordinates (Angstroms)
 Number     Number       Type             X           Y           Z
 ---------------------------------------------------------------------
      1          8           0        0.059679    1.779226    0.000000
      2          1           0        0.058007    0.796626    0.000000
      3          1           0       -0.869270    2.099474   -0.000000
      4          8           0        0.059679   -1.601832    0.000000
      5          1           0        0.706296   -2.341692    0.000000
      6          1           0       -0.849896   -1.973555   -0.000000
 ---------------------------------------------------------------------

 SCF Done:  E(RHF) =  -33.6592873738     A.U. after   11 cycles
 E2 =    -0.2287775947D+00 EUMP2 =    -0.33888064968453D+02
 CCSD(T)
 CCSD(T)= -0.33904914353D+02

 The electronic state is 1-A'.
 Alpha  occ. eigenvalues --   -1.37734  -1.32763  -0.73398  -0.68475  -0.58062
 Alpha  occ. eigenvalues --   -0.52549  -0.52403  -0.47406
 Alpha virt. eigenvalues --    0.17890   0.24608   0.28694   0.37248   0.77619
 Alpha virt. eigenvalues --    0.81618   0.83660   0.85724   0.90387   0.95191
 Alpha virt. eigenvalues --    1.15307   1.19820   1.20698   1.34338   2.50265

 Mulliken charges:
               1
     1  O   -0.772916
     2  H    0.415205
     3  H    0.355768
     4  O   -0.771540
     5  H    0.393843
     6  H    0.379640
 Sum of Mulliken charges =  -0.00000

 Dipole moment (field-independent basis, Debye):
    X=             -2.6725    Y=             -4.4369    Z=             -0.0000  Tot=              5.1796
 Quadrupole moment (field-independent basis, Debye-Ang):
   XX=             -9.6665   YY=             -7.8975   ZZ=            -15.0038
   XY=             -4.3843   XZ=              0.0000   YZ=             -0.0000

 88\MP4DQ=-33.8991579\MP4SDQ=-33.9012481\CCSD=-33.9022624\CCSD(T)=-33.9
 Normal termination of Gaussian 16 at Sun Dec 10 06:50:43 2023.
