 Gaussian 16, Revision A.03,
 Gaussian 16:  ES64L-G16RevA.03 25-Dec-2016

 ------------------
 #p CCSD(T)/CEP-31G
 ------------------

 ------------
 H2O_H2O_4925
 ------------
 Symbolic Z-matrix:
 Charge =  0 Multiplicity = 1

                         Standard orientation:
 ---------------------------------------------------------------------
 Center     Atomic      Atomic             Coordinates (Angstroms)
 Number     Number       Type             X           Y           Z
 ---------------------------------------------------------------------
      1          8           0        0.092949   -3.051342    0.000000
      2          1           0        0.092949   -2.068741    0.000000
      3          1           0       -0.836544   -3.370009    0.000000
      4          8           0        0.092949    2.918555    0.000000
      5          1           0        0.092949    3.901157    0.000000
      6          1           0       -0.836544    2.599888    0.000000
 ---------------------------------------------------------------------

 SCF Done:  E(RHF) =  -33.6519342692     A.U. after   11 cycles
 E2 =    -0.2283638651D+00 EUMP2 =    -0.33880298134282D+02
 CCSD(T)
 CCSD(T)= -0.33897296001D+02

 The electronic state is 1-A'.
 Alpha  occ. eigenvalues --   -1.36226  -1.35241  -0.71871  -0.70862  -0.55975
 Alpha  occ. eigenvalues --   -0.54974  -0.50799  -0.49811
 Alpha virt. eigenvalues --    0.19515   0.20584   0.29791   0.30815   0.79762
 Alpha virt. eigenvalues --    0.80734   0.82752   0.83755   0.85819   0.86912
 Alpha virt. eigenvalues --    1.16679   1.17668   1.21132   1.22154   2.56636

 Mulliken charges:
               1
     1  O   -0.741742
     2  H    0.373819
     3  H    0.367922
     4  O   -0.741985
     5  H    0.373799
     6  H    0.368186
 Sum of Mulliken charges =  -0.00000

 Dipole moment (field-independent basis, Debye):
    X=             -4.2807    Y=              3.1100    Z=              0.0000  Tot=              5.2912
 Quadrupole moment (field-independent basis, Debye-Ang):
   XX=            -11.2789   YY=             -9.6450   ZZ=            -14.9883
   XY=              2.3099   XZ=              0.0000   YZ=              0.0000

 911\MP4DQ=-33.8916519\MP4SDQ=-33.8936793\CCSD=-33.8947345\CCSD(T)=-33.
 Normal termination of Gaussian 16 at Sun Dec 10 07:02:40 2023.
