 Gaussian 16, Revision A.03,
 Gaussian 16:  ES64L-G16RevA.03 25-Dec-2016

 ------------------
 #p CCSD(T)/CEP-31G
 ------------------

 ------------
 H2O_H2O_1181
 ------------
 Symbolic Z-matrix:
 Charge =  0 Multiplicity = 1

                         Standard orientation:
 ---------------------------------------------------------------------
 Center     Atomic      Atomic             Coordinates (Angstroms)
 Number     Number       Type             X           Y           Z
 ---------------------------------------------------------------------
      1          8           0        0.076784    1.572053   -0.000000
      2          1           0        0.075862    0.589452   -0.000000
      3          1           0       -0.852409    1.891591   -0.000000
      4          8           0        0.076784   -1.408893    0.000000
      5          1           0        0.451959   -2.317052    0.000000
      6          1           0       -0.903961   -1.469265    0.000000
 ---------------------------------------------------------------------

 SCF Done:  E(RHF) =  -33.6579659604     A.U. after   11 cycles
 E2 =    -0.2290099216D+00 EUMP2 =    -0.33886975881972D+02
 CCSD(T)
 CCSD(T)= -0.33903796720D+02

 The electronic state is 1-A'.
 Alpha  occ. eigenvalues --   -1.38650  -1.32437  -0.74526  -0.68429  -0.58842
 Alpha  occ. eigenvalues --   -0.53265  -0.52027  -0.47014
 Alpha virt. eigenvalues --    0.17212   0.25512   0.27881   0.41706   0.76000
 Alpha virt. eigenvalues --    0.79345   0.85141   0.85214   0.92131   1.09408
 Alpha virt. eigenvalues --    1.16197   1.17335   1.21894   1.37377   2.50763

 Mulliken charges:
               1
     1  O   -0.766780
     2  H    0.415662
     3  H    0.346839
     4  O   -0.789245
     5  H    0.416228
     6  H    0.377296
 Sum of Mulliken charges =  -0.00000

 Dipole moment (field-independent basis, Debye):
    X=             -3.3949    Y=             -4.2580    Z=              0.0000  Tot=              5.4458
 Quadrupole moment (field-independent basis, Debye-Ang):
   XX=            -10.3458   YY=             -8.7407   ZZ=            -15.0029
   XY=             -3.3918   XZ=              0.0000   YZ=             -0.0000

 27\MP4DQ=-33.8979167\MP4SDQ=-33.900075\CCSD=-33.9010591\CCSD(T)=-33.90
 Normal termination of Gaussian 16 at Sun Dec 10 06:40:45 2023.
