 Gaussian 16, Revision A.03,
 Gaussian 16:  ES64L-G16RevA.03 25-Dec-2016

 ------------------
 #p CCSD(T)/CEP-31G
 ------------------

 ------------
 H2O_H2O_3756
 ------------
 Symbolic Z-matrix:
 Charge =  0 Multiplicity = 1

                         Standard orientation:
 ---------------------------------------------------------------------
 Center     Atomic      Atomic             Coordinates (Angstroms)
 Number     Number       Type             X           Y           Z
 ---------------------------------------------------------------------
      1          8           0        0.076753    2.599191    0.000000
      2          1           0        0.076207    1.616590    0.000000
      3          1           0       -0.852563    2.918374    0.000000
      4          8           0        0.076753   -2.435973    0.000000
      5          1           0        0.452274   -3.343987    0.000000
      6          1           0       -0.903969   -2.496720    0.000000
 ---------------------------------------------------------------------

 SCF Done:  E(RHF) =  -33.6530962930     A.U. after   11 cycles
 E2 =    -0.2283273455D+00 EUMP2 =    -0.33881423638552D+02
 CCSD(T)
 CCSD(T)= -0.33898387475D+02

 The electronic state is 1-A'.
 Alpha  occ. eigenvalues --   -1.36464  -1.34661  -0.72114  -0.70275  -0.56277
 Alpha  occ. eigenvalues --   -0.54425  -0.51052  -0.49248
 Alpha virt. eigenvalues --    0.19188   0.21362   0.29600   0.31559   0.79514
 Alpha virt. eigenvalues --    0.81271   0.82343   0.84292   0.85487   0.87525
 Alpha virt. eigenvalues --    1.16481   1.18358   1.20896   1.23208   2.56445

 Mulliken charges:
               1
     1  O   -0.746280
     2  H    0.380238
     3  H    0.365938
     4  O   -0.746246
     5  H    0.376419
     6  H    0.369932
 Sum of Mulliken charges =   0.00000

 Dipole moment (field-independent basis, Debye):
    X=             -3.5195    Y=             -3.8552    Z=              0.0000  Tot=              5.2201
 Quadrupole moment (field-independent basis, Debye-Ang):
   XX=            -10.3201   YY=             -7.0818   ZZ=            -14.9909
   XY=             -4.1703   XZ=              0.0000   YZ=              0.0000

 0033\MP4DQ=-33.892749\MP4SDQ=-33.8947759\CCSD=-33.8958266\CCSD(T)=-33.
 Normal termination of Gaussian 16 at Sun Dec 10 06:40:35 2023.
