 Gaussian 16, Revision A.03,
 Gaussian 16:  ES64L-G16RevA.03 25-Dec-2016

 ------------------
 #p CCSD(T)/CEP-31G
 ------------------

 ------------
 H2O_H2O_3927
 ------------
 Symbolic Z-matrix:
 Charge =  0 Multiplicity = 1

                         Standard orientation:
 ---------------------------------------------------------------------
 Center     Atomic      Atomic             Coordinates (Angstroms)
 Number     Number       Type             X           Y           Z
 ---------------------------------------------------------------------
      1          8           0        0.088230   -2.658731    0.000000
      2          1           0        0.088075   -1.676130    0.000000
      3          1           0       -0.841213   -2.977544    0.000000
      4          8           0        0.088230    2.514408    0.000000
      5          1           0        0.216331    3.488623    0.000000
      6          1           0       -0.874875    2.319638    0.000000
 ---------------------------------------------------------------------

 SCF Done:  E(RHF) =  -33.6523680009     A.U. after   11 cycles
 E2 =    -0.2283519280D+00 EUMP2 =    -0.33880719928856D+02
 CCSD(T)
 CCSD(T)= -0.33897705795D+02

 The electronic state is 1-A'.
 Alpha  occ. eigenvalues --   -1.36435  -1.34964  -0.72088  -0.70577  -0.56210
 Alpha  occ. eigenvalues --   -0.54706  -0.51012  -0.49539
 Alpha virt. eigenvalues --    0.19109   0.21071   0.29616   0.31166   0.79557
 Alpha virt. eigenvalues --    0.80995   0.82453   0.84009   0.85528   0.87271
 Alpha virt. eigenvalues --    1.16437   1.18036   1.20943   1.22704   2.56215

 Mulliken charges:
               1
     1  O   -0.743468
     2  H    0.377080
     3  H    0.366345
     4  O   -0.743866
     5  H    0.375796
     6  H    0.368114
 Sum of Mulliken charges =   0.00000

 Dipole moment (field-independent basis, Debye):
    X=             -4.0514    Y=              3.4032    Z=              0.0000  Tot=              5.2910
 Quadrupole moment (field-independent basis, Debye-Ang):
   XX=            -10.9689   YY=             -8.5884   ZZ=            -14.9891
   XY=              2.9399   XZ=              0.0000   YZ=              0.0000

 5\MP4DQ=-33.8920628\MP4SDQ=-33.8940905\CCSD=-33.8951434\CCSD(T)=-33.89
 Normal termination of Gaussian 16 at Sun Dec 10 06:43:40 2023.
