 Gaussian 16, Revision A.03,
 Gaussian 16:  ES64L-G16RevA.03 25-Dec-2016

 ------------------
 #p CCSD(T)/CEP-31G
 ------------------

 ------------
 H2O_H2O_1669
 ------------
 Symbolic Z-matrix:
 Charge =  0 Multiplicity = 1

                         Standard orientation:
 ---------------------------------------------------------------------
 Center     Atomic      Atomic             Coordinates (Angstroms)
 Number     Number       Type             X           Y           Z
 ---------------------------------------------------------------------
      1          8           0        0.030262    1.768262   -0.000000
      2          1           0        0.027092    0.785666   -0.000000
      3          1           0       -0.898198    2.089926   -0.000000
      4          8           0        0.030262   -1.592705    0.000000
      5          1           0        0.959693   -1.911551    0.000000
      6          1           0       -0.572775   -2.368497    0.000000
 ---------------------------------------------------------------------

 SCF Done:  E(RHF) =  -33.6605544942     A.U. after   11 cycles
 E2 =    -0.2286966402D+00 EUMP2 =    -0.33889251134480D+02
 CCSD(T)
 CCSD(T)= -0.33906071285D+02

 The electronic state is 1-A'.
 Alpha  occ. eigenvalues --   -1.37709  -1.32667  -0.73370  -0.68437  -0.58127
 Alpha  occ. eigenvalues --   -0.52505  -0.52397  -0.47348
 Alpha virt. eigenvalues --    0.17984   0.24795   0.28791   0.37485   0.77581
 Alpha virt. eigenvalues --    0.81248   0.83739   0.86441   0.89310   0.96475
 Alpha virt. eigenvalues --    1.15461   1.19390   1.21208   1.34613   2.50481

 Mulliken charges:
               1
     1  O   -0.778227
     2  H    0.414752
     3  H    0.361158
     4  O   -0.775599
     5  H    0.387896
     6  H    0.390021
 Sum of Mulliken charges =  -0.00000

 Dipole moment (field-independent basis, Debye):
    X=             -1.3570    Y=             -4.3904    Z=              0.0000  Tot=              4.5954
 Quadrupole moment (field-independent basis, Debye-Ang):
   XX=             -9.4491   YY=             -7.9576   ZZ=            -15.0066
   XY=             -5.4827   XZ=              0.0000   YZ=             -0.0000

 5874\MP4DQ=-33.9003213\MP4SDQ=-33.9024085\CCSD=-33.9034208\CCSD(T)=-33
 Normal termination of Gaussian 16 at Sun Dec 10 06:50:24 2023.
