 Gaussian 16, Revision A.03,
 Gaussian 16:  ES64L-G16RevA.03 25-Dec-2016

 ------------------
 #p CCSD(T)/CEP-31G
 ------------------

 ------------
 H2O_H2O_1365
 ------------
 Symbolic Z-matrix:
 Charge =  0 Multiplicity = 1

                         Standard orientation:
 ---------------------------------------------------------------------
 Center     Atomic      Atomic             Coordinates (Angstroms)
 Number     Number       Type             X           Y           Z
 ---------------------------------------------------------------------
      1          8           0        0.044933    1.651187   -0.000000
      2          1           0        0.042318    0.668589   -0.000000
      3          1           0       -0.883709    1.972326   -0.000000
      4          8           0        0.044933   -1.470861    0.000000
      5          1           0        0.860480   -2.018938    0.000000
      6          1           0       -0.738010   -2.064583    0.000000
 ---------------------------------------------------------------------

 SCF Done:  E(RHF) =  -33.6620952635     A.U. after   11 cycles
 E2 =    -0.2289300338D+00 EUMP2 =    -0.33891025297319D+02
 CCSD(T)
 CCSD(T)= -0.33907720575D+02

 The electronic state is 1-A'.
 Alpha  occ. eigenvalues --   -1.38172  -1.32007  -0.73795  -0.68060  -0.58732
 Alpha  occ. eigenvalues --   -0.52890  -0.51750  -0.46675
 Alpha virt. eigenvalues --    0.17861   0.25563   0.28453   0.40639   0.76723
 Alpha virt. eigenvalues --    0.79623   0.84879   0.86021   0.92210   0.98535
 Alpha virt. eigenvalues --    1.15071   1.19503   1.21524   1.34090   2.49728

 Mulliken charges:
               1
     1  O   -0.783193
     2  H    0.427885
     3  H    0.354061
     4  O   -0.788038
     5  H    0.397928
     6  H    0.391356
 Sum of Mulliken charges =   0.00000

 Dipole moment (field-independent basis, Debye):
    X=             -1.9953    Y=             -4.5916    Z=              0.0000  Tot=              5.0063
 Quadrupole moment (field-independent basis, Debye-Ang):
   XX=             -9.3963   YY=             -8.2390   ZZ=            -15.0117
   XY=             -4.6469   XZ=              0.0000   YZ=             -0.0000

 231\MP4DQ=-33.9019329\MP4SDQ=-33.9040257\CCSD=-33.9050144\CCSD(T)=-33.
 Normal termination of Gaussian 16 at Sun Dec 10 06:44:24 2023.
