 Gaussian 16, Revision A.03,
 Gaussian 16:  ES64L-G16RevA.03 25-Dec-2016

 ------------------
 #p CCSD(T)/CEP-31G
 ------------------

 ------------
 H2O_H2O_3415
 ------------
 Symbolic Z-matrix:
 Charge =  0 Multiplicity = 1

                         Standard orientation:
 ---------------------------------------------------------------------
 Center     Atomic      Atomic             Coordinates (Angstroms)
 Number     Number       Type             X           Y           Z
 ---------------------------------------------------------------------
      1          8           0        0.044850    2.468925   -0.000000
      2          1           0        0.043134    1.486325   -0.000000
      3          1           0       -0.884085    2.789214   -0.000000
      4          8           0        0.044850   -2.288517    0.000000
      5          1           0        0.860899   -2.835848    0.000000
      6          1           0       -0.737549   -2.882955    0.000000
 ---------------------------------------------------------------------

 SCF Done:  E(RHF) =  -33.6545535282     A.U. after   11 cycles
 E2 =    -0.2282946550D+00 EUMP2 =    -0.33882848183209D+02
 CCSD(T)
 CCSD(T)= -0.33899770747D+02

 The electronic state is 1-A'.
 Alpha  occ. eigenvalues --   -1.36544  -1.34232  -0.72187  -0.69856  -0.56440
 Alpha  occ. eigenvalues --   -0.54045  -0.51156  -0.48844
 Alpha virt. eigenvalues --    0.19165   0.21887   0.29627   0.32072   0.79409
 Alpha virt. eigenvalues --    0.81646   0.82233   0.84663   0.85413   0.87805
 Alpha virt. eigenvalues --    1.16474   1.18913   1.20904   1.24054   2.56414

 Mulliken charges:
               1
     1  O   -0.751893
     2  H    0.384961
     3  H    0.366585
     4  O   -0.750433
     5  H    0.376936
     6  H    0.373844
 Sum of Mulliken charges =  -0.00000

 Dipole moment (field-independent basis, Debye):
    X=             -2.0498    Y=             -4.2778    Z=              0.0000  Tot=              4.7436
 Quadrupole moment (field-independent basis, Debye-Ang):
   XX=             -9.4260   YY=             -6.0883   ZZ=            -14.9942
   XY=             -6.5053   XZ=              0.0000   YZ=             -0.0000

 3858\MP4DQ=-33.894138\MP4SDQ=-33.8961661\CCSD=-33.8972111\CCSD(T)=-33.
 Normal termination of Gaussian 16 at Sun Dec 10 06:34:30 2023.
