 Gaussian 16, Revision A.03,
 Gaussian 16:  ES64L-G16RevA.03 25-Dec-2016

 ------------------
 #p CCSD(T)/CEP-31G
 ------------------

 ------------
 H2O_H2O_2194
 ------------
 Symbolic Z-matrix:
 Charge =  0 Multiplicity = 1

                         Standard orientation:
 ---------------------------------------------------------------------
 Center     Atomic      Atomic             Coordinates (Angstroms)
 Number     Number       Type             X           Y           Z
 ---------------------------------------------------------------------
      1          8           0        0.030230    1.977683    0.000000
      2          1           0        0.027412    0.995085    0.000000
      3          1           0       -0.898345    2.299014    0.000000
      4          8           0        0.030230   -1.802104   -0.000000
      5          1           0        0.959776   -2.120618   -0.000000
      6          1           0       -0.572528   -2.578111   -0.000000
 ---------------------------------------------------------------------

 SCF Done:  E(RHF) =  -33.6579821718     A.U. after   11 cycles
 E2 =    -0.2284855238D+00 EUMP2 =    -0.33886467695587D+02
 CCSD(T)
 CCSD(T)= -0.33903346416D+02

 The electronic state is 1-A'.
 Alpha  occ. eigenvalues --   -1.37197  -1.33370  -0.72851  -0.69023  -0.57347
 Alpha  occ. eigenvalues --   -0.53236  -0.51853  -0.48029
 Alpha virt. eigenvalues --    0.18199   0.23599   0.29160   0.34270   0.78569
 Alpha virt. eigenvalues --    0.82582   0.83094   0.85903   0.87557   0.89185
 Alpha virt. eigenvalues --    1.15893   1.20037   1.20504   1.31899   2.53055

 Mulliken charges:
               1
     1  O   -0.767127
     2  H    0.400448
     3  H    0.364479
     4  O   -0.761476
     5  H    0.382283
     6  H    0.381393
 Sum of Mulliken charges =  -0.00000

 Dipole moment (field-independent basis, Debye):
    X=             -1.3645    Y=             -4.2897    Z=             -0.0000  Tot=              4.5015
 Quadrupole moment (field-independent basis, Debye-Ang):
   XX=             -9.4602   YY=             -7.4325   ZZ=            -15.0007
   XY=             -6.1143   XZ=             -0.0000   YZ=              0.0000

 026\MP4DQ=-33.8976542\MP4SDQ=-33.8997218\CCSD=-33.9007475\CCSD(T)=-33.
 Normal termination of Gaussian 16 at Sun Dec 10 07:00:38 2023.
