 Gaussian 16, Revision A.03,
 Gaussian 16:  ES64L-G16RevA.03 25-Dec-2016

 ------------------
 #p CCSD(T)/CEP-31G
 ------------------

 ------------
 H2O_H2O_2499
 ------------
 Symbolic Z-matrix:
 Charge =  0 Multiplicity = 1

                         Standard orientation:
 ---------------------------------------------------------------------
 Center     Atomic      Atomic             Coordinates (Angstroms)
 Number     Number       Type             X           Y           Z
 ---------------------------------------------------------------------
      1          8           0       -0.013550    2.088480    0.000000
      2          1           0       -0.010195    1.105884    0.000000
      3          1           0        0.914850    2.410318    0.000000
      4          8           0       -0.013550   -1.929229    0.000000
      5          1           0       -0.996146   -1.932583    0.000000
      6          1           0        0.308288   -2.857628    0.000000
 ---------------------------------------------------------------------

 SCF Done:  E(RHF) =  -33.6564451080     A.U. after   11 cycles
 E2 =    -0.2283890728D+00 EUMP2 =    -0.33884834180740D+02
 CCSD(T)
 CCSD(T)= -0.33901741793D+02

 The electronic state is 1-A'.
 Alpha  occ. eigenvalues --   -1.36969  -1.33991  -0.72638  -0.69644  -0.56983
 Alpha  occ. eigenvalues --   -0.53853  -0.51601  -0.48637
 Alpha virt. eigenvalues --    0.17981   0.22983   0.29302   0.32942   0.78908
 Alpha virt. eigenvalues --    0.81905   0.82935   0.84772   0.87244   0.87777
 Alpha virt. eigenvalues --    1.15992   1.19620   1.20578   1.30440   2.55296

 Mulliken charges:
               1
     1  O   -0.760499
     2  H    0.390084
     3  H    0.368932
     4  O   -0.757319
     5  H    0.378172
     6  H    0.380630
 Sum of Mulliken charges =   0.00000

 Dipole moment (field-independent basis, Debye):
    X=              0.6128    Y=             -3.8447    Z=              0.0000  Tot=              3.8932
 Quadrupole moment (field-independent basis, Debye-Ang):
   XX=             -9.8650   YY=             -7.9773   ZZ=            -14.9972
   XY=              7.5297   XZ=              0.0000   YZ=              0.0000

 6\MP4DQ=-33.8960707\MP4SDQ=-33.8981271\CCSD=-33.8991583\CCSD(T)=-33.90
 Normal termination of Gaussian 16 at Sun Dec 10 07:07:27 2023.
