 Gaussian 16, Revision A.03,
 Gaussian 16:  ES64L-G16RevA.03 25-Dec-2016

 ------------------
 #p CCSD(T)/CEP-31G
 ------------------

 ------------
 H2O_H2O_3853
 ------------
 Symbolic Z-matrix:
 Charge =  0 Multiplicity = 1

                         Standard orientation:
 ---------------------------------------------------------------------
 Center     Atomic      Atomic             Coordinates (Angstroms)
 Number     Number       Type             X           Y           Z
 ---------------------------------------------------------------------
      1          8           0        0.085599   -2.631683    0.000000
      2          1           0        0.085354   -1.649081    0.000000
      3          1           0       -0.843815   -2.950580    0.000000
      4          8           0        0.085599    2.482081    0.000000
      5          1           0        0.277056    3.445849    0.000000
      6          1           0       -0.888171    2.350630    0.000000
 ---------------------------------------------------------------------

 SCF Done:  E(RHF) =  -33.6525610670     A.U. after   11 cycles
 E2 =    -0.2283455343D+00 EUMP2 =    -0.33880906601353D+02
 CCSD(T)
 CCSD(T)= -0.33897886630D+02

 The electronic state is 1-A'.
 Alpha  occ. eigenvalues --   -1.36450  -1.34877  -0.72103  -0.70490  -0.56235
 Alpha  occ. eigenvalues --   -0.54625  -0.51030  -0.49455
 Alpha virt. eigenvalues --    0.19112   0.21162   0.29606   0.31276   0.79538
 Alpha virt. eigenvalues --    0.81075   0.82413   0.84088   0.85506   0.87354
 Alpha virt. eigenvalues --    1.16440   1.18133   1.20924   1.22863   2.56292

 Mulliken charges:
               1
     1  O   -0.744218
     2  H    0.378009
     3  H    0.366147
     4  O   -0.744543
     5  H    0.376051
     6  H    0.368553
 Sum of Mulliken charges =   0.00000

 Dipole moment (field-independent basis, Debye):
    X=             -3.9288    Y=              3.5301    Z=              0.0000  Tot=              5.2818
 Quadrupole moment (field-independent basis, Debye-Ang):
   XX=            -10.8053   YY=             -8.1506   ZZ=            -14.9896
   XY=              3.2506   XZ=              0.0000   YZ=              0.0000

 5015\MP4DQ=-33.8922447\MP4SDQ=-33.8942722\CCSD=-33.8953245\CCSD(T)=-33
 Normal termination of Gaussian 16 at Sun Dec 10 06:42:20 2023.
