 Gaussian 16, Revision A.03,
 Gaussian 16:  ES64L-G16RevA.03 25-Dec-2016

 ------------------
 #p CCSD(T)/CEP-31G
 ------------------

 ----------
 H2O_H2O_28
 ----------
 Symbolic Z-matrix:
 Charge =  0 Multiplicity = 1

                         Standard orientation:
 ---------------------------------------------------------------------
 Center     Atomic      Atomic             Coordinates (Angstroms)
 Number     Number       Type             X           Y           Z
 ---------------------------------------------------------------------
      1          8           0        0.085626   -1.105945    0.000000
      2          1           0        0.085021   -0.123344    0.000000
      3          1           0       -0.843671   -1.425184    0.000000
      4          8           0        0.085626    0.956406    0.000000
      5          1           0        0.276728    1.920245    0.000000
      6          1           0       -0.888095    0.824599    0.000000
 ---------------------------------------------------------------------

 SCF Done:  E(RHF) =  -33.5630756437     A.U. after   11 cycles
 E2 =    -0.2278459512D+00 EUMP2 =    -0.33790921594972D+02
 CCSD(T)
 CCSD(T)= -0.33806012846D+02

 The electronic state is 1-A'.
 Alpha  occ. eigenvalues --   -1.48008  -1.28368  -0.85830  -0.73447  -0.59511
 Alpha  occ. eigenvalues --   -0.55196  -0.45655  -0.42292
 Alpha virt. eigenvalues --    0.15796   0.22607   0.30451   0.61153   0.72969
 Alpha virt. eigenvalues --    0.75018   0.90597   0.90938   0.96992   1.08472
 Alpha virt. eigenvalues --    1.09917   1.20491   1.28431   1.49908   3.09182

 Mulliken charges:
               1
     1  O   -0.667113
     2  H    0.180223
     3  H    0.296314
     4  O   -0.713307
     5  H    0.507468
     6  H    0.396416
 Sum of Mulliken charges =  -0.00000

 Dipole moment (field-independent basis, Debye):
    X=             -3.4760    Y=              5.1071    Z=              0.0000  Tot=              6.1778
 Quadrupole moment (field-independent basis, Debye-Ang):
   XX=            -10.8015   YY=            -10.6201   ZZ=            -14.8687
   XY=              2.5164   XZ=              0.0000   YZ=              0.0000

 95\MP4DQ=-33.7995027\MP4SDQ=-33.8021185\CCSD=-33.8027248\CCSD(T)=-33.8
 Normal termination of Gaussian 16 at Sun Dec 10 06:18:34 2023.
