 Gaussian 16, Revision A.03,
 Gaussian 16:  ES64L-G16RevA.03 25-Dec-2016

 ------------------
 #p CCSD(T)/CEP-31G
 ------------------

 ------------
 H2O_H2O_1684
 ------------
 Symbolic Z-matrix:
 Charge =  0 Multiplicity = 1

                         Standard orientation:
 ---------------------------------------------------------------------
 Center     Atomic      Atomic             Coordinates (Angstroms)
 Number     Number       Type             X           Y           Z
 ---------------------------------------------------------------------
      1          8           0        0.066790    1.776870    0.000000
      2          1           0        0.065475    0.794269    0.000000
      3          1           0       -0.862276    2.096780    0.000000
      4          8           0        0.066790   -1.603811    0.000000
      5          1           0        0.611601   -2.421543    0.000000
      6          1           0       -0.883433   -1.853977    0.000000
 ---------------------------------------------------------------------

 SCF Done:  E(RHF) =  -33.6584963289     A.U. after   11 cycles
 E2 =    -0.2287902787D+00 EUMP2 =    -0.33887286607692D+02
 CCSD(T)
 CCSD(T)= -0.33904170473D+02

 The electronic state is 1-A'.
 Alpha  occ. eigenvalues --   -1.37755  -1.32925  -0.73443  -0.68608  -0.58020
 Alpha  occ. eigenvalues --   -0.52691  -0.52407  -0.47554
 Alpha virt. eigenvalues --    0.17748   0.24514   0.28635   0.37036   0.77600
 Alpha virt. eigenvalues --    0.81638   0.83549   0.85536   0.90176   0.96457
 Alpha virt. eigenvalues --    1.15232   1.19499   1.20774   1.35288   2.50502

 Mulliken charges:
               1
     1  O   -0.769981
     2  H    0.412807
     3  H    0.355061
     4  O   -0.770133
     5  H    0.395086
     6  H    0.377161
 Sum of Mulliken charges =   0.00000

 Dipole moment (field-independent basis, Debye):
    X=             -2.9941    Y=             -4.3341    Z=              0.0000  Tot=              5.2677
 Quadrupole moment (field-independent basis, Debye-Ang):
   XX=             -9.8980   YY=             -8.0196   ZZ=            -15.0019
   XY=             -4.0701   XZ=              0.0000   YZ=              0.0000

 58\MP4DQ=-33.8984037\MP4SDQ=-33.9005019\CCSD=-33.9015178\CCSD(T)=-33.9
 Normal termination of Gaussian 16 at Sun Dec 10 06:50:41 2023.
