 Gaussian 16, Revision A.03,
 Gaussian 16:  ES64L-G16RevA.03 25-Dec-2016

 ------------------
 #p CCSD(T)/CEP-31G
 ------------------

 ------------
 H2O_H2O_2618
 ------------
 Symbolic Z-matrix:
 Charge =  0 Multiplicity = 1

                         Standard orientation:
 ---------------------------------------------------------------------
 Center     Atomic      Atomic             Coordinates (Angstroms)
 Number     Number       Type             X           Y           Z
 ---------------------------------------------------------------------
      1          8           0        0.033810    2.148251    0.000000
      2          1           0        0.031372    1.165653    0.000000
      3          1           0       -0.894889    2.469223    0.000000
      4          8           0        0.033810   -1.970743   -0.000000
      5          1           0        0.940680   -2.349020   -0.000000
      6          1           0       -0.618128   -2.705919   -0.000000
 ---------------------------------------------------------------------

 SCF Done:  E(RHF) =  -33.6564924962     A.U. after   11 cycles
 E2 =    -0.2283763412D+00 EUMP2 =    -0.33884868837364D+02
 CCSD(T)
 CCSD(T)= -0.33901759046D+02

 The electronic state is 1-A'.
 Alpha  occ. eigenvalues --   -1.36912  -1.33739  -0.72560  -0.69372  -0.56935
 Alpha  occ. eigenvalues --   -0.53591  -0.51550  -0.48379
 Alpha virt. eigenvalues --    0.18511   0.22835   0.29354   0.33011   0.78994
 Alpha virt. eigenvalues --    0.82116   0.83566   0.84598   0.85833   0.88153
 Alpha virt. eigenvalues --    1.16160   1.19721   1.20593   1.28293   2.54901

 Mulliken charges:
               1
     1  O   -0.760180
     2  H    0.393098
     3  H    0.365579
     4  O   -0.755997
     5  H    0.379801
     6  H    0.377699
 Sum of Mulliken charges =   0.00000

 Dipole moment (field-independent basis, Debye):
    X=             -1.5341    Y=             -4.2798    Z=             -0.0000  Tot=              4.5465
 Quadrupole moment (field-independent basis, Debye-Ang):
   XX=             -9.4278   YY=             -6.9606   ZZ=            -14.9979
   XY=             -6.4053   XZ=             -0.0000   YZ=              0.0000

 3451\MP4DQ=-33.8961007\MP4SDQ=-33.8981504\CCSD=-33.8991827\CCSD(T)=-33
 Normal termination of Gaussian 16 at Sun Dec 10 06:20:08 2023.
