 Gaussian 16, Revision A.03,
 Gaussian 16:  ES64L-G16RevA.03 25-Dec-2016

 ------------------
 #p CCSD(T)/CEP-31G
 ------------------

 -----------
 H2O_H2O_416
 -----------
 Symbolic Z-matrix:
 Charge =  0 Multiplicity = 1

                         Standard orientation:
 ---------------------------------------------------------------------
 Center     Atomic      Atomic             Coordinates (Angstroms)
 Number     Number       Type             X           Y           Z
 ---------------------------------------------------------------------
      1          8           0        0.041303    1.271961   -0.000000
      2          1           0        0.037583    0.289367   -0.000000
      3          1           0       -0.886977    1.594144   -0.000000
      4          8           0        0.041303   -1.092186    0.000000
      5          1           0        0.890396   -1.586705    0.000000
      6          1           0       -0.701856   -1.735008    0.000000
 ---------------------------------------------------------------------

 SCF Done:  E(RHF) =  -33.6480984997     A.U. after   11 cycles
 E2 =    -0.2286367831D+00 EUMP2 =    -0.33876735282779D+02
 CCSD(T)
 CCSD(T)= -0.33892065972D+02

 The electronic state is 1-A'.
 Alpha  occ. eigenvalues --   -1.41867  -1.28630  -0.76831  -0.72982  -0.57591
 Alpha  occ. eigenvalues --   -0.56295  -0.47098  -0.43013
 Alpha virt. eigenvalues --    0.16944   0.26480   0.28790   0.57075   0.73753
 Alpha virt. eigenvalues --    0.73807   0.85962   0.89958   0.94586   1.01422
 Alpha virt. eigenvalues --    1.14656   1.17490   1.25654   1.36370   2.74749

 Mulliken charges:
               1
     1  O   -0.771017
     2  H    0.405959
     3  H    0.327807
     4  O   -0.832779
     5  H    0.434935
     6  H    0.435095
 Sum of Mulliken charges =  -0.00000

 Dipole moment (field-independent basis, Debye):
    X=             -1.7492    Y=             -5.2161    Z=              0.0000  Tot=              5.5016
 Quadrupole moment (field-independent basis, Debye-Ang):
   XX=             -9.3080   YY=             -9.9533   ZZ=            -15.0001
   XY=             -3.7242   XZ=             -0.0000   YZ=             -0.0000

 281\MP4DQ=-33.8860554\MP4SDQ=-33.8882615\CCSD=-33.8890035\CCSD(T)=-33.
 Normal termination of Gaussian 16 at Sun Dec 10 06:26:15 2023.
