 Gaussian 16, Revision A.03,
 Gaussian 16:  ES64L-G16RevA.03 25-Dec-2016

 ------------------
 #p CCSD(T)/CEP-31G
 ------------------

 ------------
 H2O_H2O_2080
 ------------
 Symbolic Z-matrix:
 Charge =  0 Multiplicity = 1

                         Standard orientation:
 ---------------------------------------------------------------------
 Center     Atomic      Atomic             Coordinates (Angstroms)
 Number     Number       Type             X           Y           Z
 ---------------------------------------------------------------------
      1          8           0        0.079861    1.928805   -0.000000
      2          1           0        0.079260    0.946204   -0.000000
      3          1           0       -0.849437    2.248040   -0.000000
      4          8           0        0.079861   -1.769761    0.000000
      5          1           0        0.395139   -2.700410    0.000000
      6          1           0       -0.902735   -1.766181    0.000000
 ---------------------------------------------------------------------

 SCF Done:  E(RHF) =  -33.6553236838     A.U. after   11 cycles
 E2 =    -0.2286552059D+00 EUMP2 =    -0.33883978889747D+02
 CCSD(T)
 CCSD(T)= -0.33900950246D+02

 The electronic state is 1-A'.
 Alpha  occ. eigenvalues --   -1.37375  -1.33837  -0.73084  -0.69414  -0.57363
 Alpha  occ. eigenvalues --   -0.53593  -0.51980  -0.48433
 Alpha virt. eigenvalues --    0.17467   0.23482   0.28845   0.34071   0.78370
 Alpha virt. eigenvalues --    0.82331   0.82788   0.85004   0.88530   0.91391
 Alpha virt. eigenvalues --    1.15462   1.19328   1.20519   1.34685   2.53319

 Mulliken charges:
               1
     1  O   -0.757193
     2  H    0.396520
     3  H    0.358550
     4  O   -0.755734
     5  H    0.387206
     6  H    0.370652
 Sum of Mulliken charges =   0.00000

 Dipole moment (field-independent basis, Debye):
    X=             -3.6179    Y=             -3.9111    Z=              0.0000  Tot=              5.3279
 Quadrupole moment (field-independent basis, Debye-Ang):
   XX=            -10.4950   YY=             -8.2448   ZZ=            -14.9942
   XY=             -3.4416   XZ=              0.0000   YZ=             -0.0000

 5\MP4DQ=-33.8952198\MP4SDQ=-33.8973073\CCSD=-33.8983347\CCSD(T)=-33.90
 Normal termination of Gaussian 16 at Sun Dec 10 06:58:11 2023.
