 Gaussian 16, Revision A.03,
 Gaussian 16:  ES64L-G16RevA.03 25-Dec-2016

 ------------------
 #p CCSD(T)/CEP-31G
 ------------------

 -----------
 H2O_H2O_880
 -----------
 Symbolic Z-matrix:
 Charge =  0 Multiplicity = 1

                         Standard orientation:
 ---------------------------------------------------------------------
 Center     Atomic      Atomic             Coordinates (Angstroms)
 Number     Number       Type             X           Y           Z
 ---------------------------------------------------------------------
      1          8           0        0.079878   -1.450135    0.000000
      2          1           0        0.079067   -0.467534    0.000000
      3          1           0       -0.849352   -1.769569    0.000000
      4          8           0        0.079878    1.291126    0.000000
      5          1           0        0.394957    2.221842    0.000000
      6          1           0       -0.902717    1.287335    0.000000
 ---------------------------------------------------------------------

 SCF Done:  E(RHF) =  -33.6551226441     A.U. after   11 cycles
 E2 =    -0.2290092790D+00 EUMP2 =    -0.33884131923170D+02
 CCSD(T)
 CCSD(T)= -0.33900785111D+02

 The electronic state is 1-A'.
 Alpha  occ. eigenvalues --   -1.39555  -1.31892  -0.75718  -0.68539  -0.59206
 Alpha  occ. eigenvalues --   -0.54080  -0.51277  -0.46401
 Alpha virt. eigenvalues --    0.16917   0.25935   0.27519   0.45940   0.74889
 Alpha virt. eigenvalues --    0.77972   0.85146   0.86501   0.93736   1.10495
 Alpha virt. eigenvalues --    1.15994   1.22562   1.24004   1.36710   2.54968

 Mulliken charges:
               1
     1  O   -0.755541
     2  H    0.404827
     3  H    0.339792
     4  O   -0.803580
     5  H    0.435216
     6  H    0.379287
 Sum of Mulliken charges =  -0.00000

 Dipole moment (field-independent basis, Debye):
    X=             -3.4846    Y=              4.3146    Z=              0.0000  Tot=              5.5461
 Quadrupole moment (field-independent basis, Debye-Ang):
   XX=            -10.5186   YY=             -9.1147   ZZ=            -15.0012
   XY=              3.1443   XZ=              0.0000   YZ=              0.0000

 68\MP4DQ=-33.8948144\MP4SDQ=-33.8970293\CCSD=-33.8979695\CCSD(T)=-33.9
 Normal termination of Gaussian 16 at Sun Dec 10 06:35:04 2023.
