 Gaussian 16, Revision A.03,
 Gaussian 16:  ES64L-G16RevA.03 25-Dec-2016

 ------------------
 #p CCSD(T)/CEP-31G
 ------------------

 -----------
 H2O_H2O_265
 -----------
 Symbolic Z-matrix:
 Charge =  0 Multiplicity = 1

                         Standard orientation:
 ---------------------------------------------------------------------
 Center     Atomic      Atomic             Coordinates (Angstroms)
 Number     Number       Type             X           Y           Z
 ---------------------------------------------------------------------
      1          8           0        0.045026    1.212378    0.000000
      2          1           0        0.041389    0.229783    0.000000
      3          1           0       -0.883281    1.534483    0.000000
      4          8           0        0.045026   -1.032146   -0.000000
      5          1           0        0.860004   -1.581070   -0.000000
      6          1           0       -0.738534   -1.625053   -0.000000
 ---------------------------------------------------------------------

 SCF Done:  E(RHF) =  -33.6333355326     A.U. after   11 cycles
 E2 =    -0.2283178065D+00 EUMP2 =    -0.33861653339176D+02
 CCSD(T)
 CCSD(T)= -0.33876586100D+02

 The electronic state is 1-A'.
 Alpha  occ. eigenvalues --   -1.43331  -1.27762  -0.77708  -0.75718  -0.57398
 Alpha  occ. eigenvalues --   -0.56299  -0.45646  -0.41971
 Alpha virt. eigenvalues --    0.16631   0.25888   0.29482   0.59944   0.73400
 Alpha virt. eigenvalues --    0.73476   0.86237   0.90893   0.93126   1.03799
 Alpha virt. eigenvalues --    1.13694   1.16741   1.27023   1.35421   2.83736

 Mulliken charges:
               1
     1  O   -0.761780
     2  H    0.376923
     3  H    0.317430
     4  O   -0.819171
     5  H    0.447420
     6  H    0.439178
 Sum of Mulliken charges =   0.00000

 Dipole moment (field-independent basis, Debye):
    X=             -1.8659    Y=             -5.4423    Z=             -0.0000  Tot=              5.7533
 Quadrupole moment (field-independent basis, Debye-Ang):
   XX=             -9.3076   YY=            -10.3186   ZZ=            -14.9762
   XY=             -3.5219   XZ=             -0.0000   YZ=              0.0000

 65\MP4DQ=-33.8705003\MP4SDQ=-33.8727609\CCSD=-33.87343\CCSD(T)=-33.876
 Normal termination of Gaussian 16 at Sun Dec 10 06:23:16 2023.
