 Gaussian 16, Revision A.03,
 Gaussian 16:  ES64L-G16RevA.03 25-Dec-2016

 ------------------
 #p CCSD(T)/CEP-31G
 ------------------

 ------------
 H2O_H2O_1152
 ------------
 Symbolic Z-matrix:
 Charge =  0 Multiplicity = 1

                         Standard orientation:
 ---------------------------------------------------------------------
 Center     Atomic      Atomic             Coordinates (Angstroms)
 Number     Number       Type             X           Y           Z
 ---------------------------------------------------------------------
      1          8           0        0.088239   -1.551836    0.000000
      2          1           0        0.087968   -0.569235    0.000000
      3          1           0       -0.841167   -1.870759    0.000000
      4          8           0        0.088239    1.407534    0.000000
      5          1           0        0.216225    2.381764    0.000000
      6          1           0       -0.874843    1.212651    0.000000
 ---------------------------------------------------------------------

 SCF Done:  E(RHF) =  -33.6535919443     A.U. after   11 cycles
 E2 =    -0.2291540989D+00 EUMP2 =    -0.33882746043188D+02
 CCSD(T)
 CCSD(T)= -0.33899720077D+02

 The electronic state is 1-A'.
 Alpha  occ. eigenvalues --   -1.38828  -1.33217  -0.75032  -0.68802  -0.58744
 Alpha  occ. eigenvalues --   -0.53340  -0.52767  -0.47735
 Alpha virt. eigenvalues --    0.16749   0.25121   0.27775   0.41196   0.75739
 Alpha virt. eigenvalues --    0.79909   0.84757   0.84844   0.90819   1.11704
 Alpha virt. eigenvalues --    1.15673   1.20815   1.22487   1.38976   2.50513

 Mulliken charges:
               1
     1  O   -0.751087
     2  H    0.393844
     3  H    0.347322
     4  O   -0.773126
     5  H    0.414627
     6  H    0.368420
 Sum of Mulliken charges =  -0.00000

 Dipole moment (field-independent basis, Debye):
    X=             -3.9230    Y=              3.7987    Z=              0.0000  Tot=              5.4607
 Quadrupole moment (field-independent basis, Debye-Ang):
   XX=            -11.0282   YY=             -9.2378   ZZ=            -14.9927
   XY=              2.6496   XZ=              0.0000   YZ=              0.0000

 975\MP4DQ=-33.8937827\MP4SDQ=-33.8959887\CCSD=-33.8969687\CCSD(T)=-33.
 Normal termination of Gaussian 16 at Sun Dec 10 06:40:11 2023.
