 Gaussian 16, Revision A.03,
 Gaussian 16:  ES64L-G16RevA.03 25-Dec-2016

 ------------------
 #p CCSD(T)/CEP-31G
 ------------------

 ------------
 H2O_H2O_4121
 ------------
 Symbolic Z-matrix:
 Charge =  0 Multiplicity = 1

                         Standard orientation:
 ---------------------------------------------------------------------
 Center     Atomic      Atomic             Coordinates (Angstroms)
 Number     Number       Type             X           Y           Z
 ---------------------------------------------------------------------
      1          8           0       -0.023176    2.742708    0.000000
      2          1           0       -0.020949    1.760109    0.000000
      3          1           0        0.905593    3.063480    0.000000
      4          8           0       -0.023176   -2.572303    0.000000
      5          1           0       -0.986461   -2.766183    0.000000
      6          1           0        0.472627   -3.420646    0.000000
 ---------------------------------------------------------------------

 SCF Done:  E(RHF) =  -33.6537576791     A.U. after   11 cycles
 E2 =    -0.2282800718D+00 EUMP2 =    -0.33882037750861D+02
 CCSD(T)
 CCSD(T)= -0.33898983458D+02

 The electronic state is 1-A'.
 Alpha  occ. eigenvalues --   -1.36328  -1.34629  -0.71969  -0.70266  -0.56174
 Alpha  occ. eigenvalues --   -0.54431  -0.50928  -0.49234
 Alpha virt. eigenvalues --    0.19495   0.21326   0.29792   0.31597   0.79625
 Alpha virt. eigenvalues --    0.81276   0.82420   0.84260   0.85635   0.87369
 Alpha virt. eigenvalues --    1.16657   1.18377   1.21080   1.22966   2.56602

 Mulliken charges:
               1
     1  O   -0.748798
     2  H    0.379482
     3  H    0.369276
     4  O   -0.748161
     5  H    0.374216
     6  H    0.373984
 Sum of Mulliken charges =  -0.00000

 Dipole moment (field-independent basis, Debye):
    X=              1.0625    Y=             -4.0049    Z=              0.0000  Tot=              4.1434
 Quadrupole moment (field-independent basis, Debye-Ang):
   XX=             -9.5971   YY=             -6.2471   ZZ=            -14.9925
   XY=              8.9796   XZ=              0.0000   YZ=              0.0000

 6029\MP4DQ=-33.8933521\MP4SDQ=-33.8953756\CCSD=-33.8964265\CCSD(T)=-33
 Normal termination of Gaussian 16 at Sun Dec 10 06:47:10 2023.
