 Gaussian 16, Revision A.03,
 Gaussian 16:  ES64L-G16RevA.03 25-Dec-2016

 ------------------
 #p CCSD(T)/CEP-31G
 ------------------

 -----------
 H2O_H2O_686
 -----------
 Symbolic Z-matrix:
 Charge =  0 Multiplicity = 1

                         Standard orientation:
 ---------------------------------------------------------------------
 Center     Atomic      Atomic             Coordinates (Angstroms)
 Number     Number       Type             X           Y           Z
 ---------------------------------------------------------------------
      1          8           0        0.059726    1.380318   -0.000000
      2          1           0        0.057537    0.397719   -0.000000
      3          1           0       -0.869055    1.701054   -0.000000
      4          8           0        0.059726   -1.202987    0.000000
      5          1           0        0.705953   -1.943187    0.000000
      6          1           0       -0.850046   -1.574232    0.000000
 ---------------------------------------------------------------------

 SCF Done:  E(RHF) =  -33.6581028304     A.U. after   11 cycles
 E2 =    -0.2290902068D+00 EUMP2 =    -0.33887193037194D+02
 CCSD(T)
 CCSD(T)= -0.33903227326D+02

 The electronic state is 1-A'.
 Alpha  occ. eigenvalues --   -1.40207  -1.30220  -0.75738  -0.69753  -0.58917
 Alpha  occ. eigenvalues --   -0.54846  -0.49348  -0.44734
 Alpha virt. eigenvalues --    0.17134   0.26929   0.27675   0.50960   0.74407
 Alpha virt. eigenvalues --    0.75452   0.85212   0.88164   0.96640   1.02937
 Alpha virt. eigenvalues --    1.15063   1.18394   1.23178   1.36642   2.62380

 Mulliken charges:
               1
     1  O   -0.773210
     2  H    0.429370
     3  H    0.334363
     4  O   -0.828698
     5  H    0.436734
     6  H    0.401441
 Sum of Mulliken charges =   0.00000

 Dipole moment (field-independent basis, Debye):
    X=             -2.5455    Y=             -4.8794    Z=              0.0000  Tot=              5.5035
 Quadrupole moment (field-independent basis, Debye-Ang):
   XX=             -9.6298   YY=             -9.3496   ZZ=            -15.0129
   XY=             -3.7477   XZ=              0.0000   YZ=             -0.0000

 85\MP4DQ=-33.8972745\MP4SDQ=-33.8994519\CCSD=-33.9003085\CCSD(T)=-33.9
 Normal termination of Gaussian 16 at Sun Dec 10 06:31:25 2023.
