 Gaussian 16, Revision A.03,
 Gaussian 16:  ES64L-G16RevA.03 25-Dec-2016

 ------------------
 #p CCSD(T)/CEP-31G
 ------------------

 -----------
 H2O_H2O_507
 -----------
 Symbolic Z-matrix:
 Charge =  0 Multiplicity = 1

                         Standard orientation:
 ---------------------------------------------------------------------
 Center     Atomic      Atomic             Coordinates (Angstroms)
 Number     Number       Type             X           Y           Z
 ---------------------------------------------------------------------
      1          8           0        0.073589    1.304817    0.000000
      2          1           0        0.072240    0.322216    0.000000
      3          1           0       -0.855466    1.624759    0.000000
      4          8           0        0.073589   -1.137968    0.000000
      5          1           0        0.506972   -2.019833    0.000000
      6          1           0       -0.901163   -1.261931    0.000000
 ---------------------------------------------------------------------

 SCF Done:  E(RHF) =  -33.6470636287     A.U. after   11 cycles
 E2 =    -0.2287977012D+00 EUMP2 =    -0.33875861329941D+02
 CCSD(T)
 CCSD(T)= -0.33891782257D+02

 The electronic state is 1-A'.
 Alpha  occ. eigenvalues --   -1.41379  -1.30092  -0.77595  -0.70459  -0.58407
 Alpha  occ. eigenvalues --   -0.55696  -0.48920  -0.44472
 Alpha virt. eigenvalues --    0.16691   0.25819   0.28212   0.53707   0.73830
 Alpha virt. eigenvalues --    0.75630   0.85779   0.88833   0.96514   1.07256
 Alpha virt. eigenvalues --    1.15334   1.22515   1.23957   1.35870   2.72052

 Mulliken charges:
               1
     1  O   -0.746436
     2  H    0.394986
     3  H    0.325690
     4  O   -0.831226
     5  H    0.462350
     6  H    0.394636
 Sum of Mulliken charges =  -0.00000

 Dipole moment (field-independent basis, Debye):
    X=             -3.1002    Y=             -4.8082    Z=              0.0000  Tot=              5.7210
 Quadrupole moment (field-independent basis, Debye-Ang):
   XX=            -10.1708   YY=             -9.6245   ZZ=            -14.9931
   XY=             -3.2842   XZ=              0.0000   YZ=              0.0000

 84\MP4DQ=-33.8857117\MP4SDQ=-33.8879815\CCSD=-33.8888034\CCSD(T)=-33.8
 Normal termination of Gaussian 16 at Sun Dec 10 06:28:03 2023.
