 Gaussian 16, Revision A.03,
 Gaussian 16:  ES64L-G16RevA.03 25-Dec-2016

 ------------------
 #p CCSD(T)/CEP-31G
 ------------------

 ------------
 H2O_H2O_2124
 ------------
 Symbolic Z-matrix:
 Charge =  0 Multiplicity = 1

                         Standard orientation:
 ---------------------------------------------------------------------
 Center     Atomic      Atomic             Coordinates (Angstroms)
 Number     Number       Type             X           Y           Z
 ---------------------------------------------------------------------
      1          8           0       -0.013572    1.938898    0.000000
      2          1           0       -0.009947    0.956303    0.000000
      3          1           0        0.914739    2.260991    0.000000
      4          8           0       -0.013572   -1.779654    0.000000
      5          1           0       -0.996166   -1.783279    0.000000
      6          1           0        0.308521   -2.707966    0.000000
 ---------------------------------------------------------------------

 SCF Done:  E(RHF) =  -33.6576754122     A.U. after   11 cycles
 E2 =    -0.2284944952D+00 EUMP2 =    -0.33886169907381D+02
 CCSD(T)
 CCSD(T)= -0.33903077682D+02

 The electronic state is 1-A'.
 Alpha  occ. eigenvalues --   -1.37240  -1.33666  -0.72931  -0.69333  -0.57362
 Alpha  occ. eigenvalues --   -0.53536  -0.51885  -0.48329
 Alpha virt. eigenvalues --    0.17765   0.23696   0.29123   0.34183   0.78465
 Alpha virt. eigenvalues --    0.82375   0.82528   0.85439   0.87780   0.91245
 Alpha virt. eigenvalues --    1.15808   1.19754   1.20561   1.34330   2.53870

 Mulliken charges:
               1
     1  O   -0.766559
     2  H    0.396167
     3  H    0.368146
     4  O   -0.762670
     5  H    0.380371
     6  H    0.384545
 Sum of Mulliken charges =   0.00000

 Dipole moment (field-independent basis, Debye):
    X=              0.6108    Y=             -3.8954    Z=              0.0000  Tot=              3.9430
 Quadrupole moment (field-independent basis, Debye-Ang):
   XX=             -9.8606   YY=             -8.1796   ZZ=            -14.9994
   XY=              6.9761   XZ=              0.0000   YZ=              0.0000

 6195\MP4DQ=-33.8973698\MP4SDQ=-33.8994472\CCSD=-33.9004719\CCSD(T)=-33
 Normal termination of Gaussian 16 at Sun Dec 10 06:59:02 2023.
