 Gaussian 16, Revision A.03,
 Gaussian 16:  ES64L-G16RevA.03 25-Dec-2016

 ------------------
 #p CCSD(T)/CEP-31G
 ------------------

 ------------
 H2O_H2O_1145
 ------------
 Symbolic Z-matrix:
 Charge =  0 Multiplicity = 1

                         Standard orientation:
 ---------------------------------------------------------------------
 Center     Atomic      Atomic             Coordinates (Angstroms)
 Number     Number       Type             X           Y           Z
 ---------------------------------------------------------------------
      1          8           0        0.026775    1.557549    0.000000
      2          1           0        0.022950    0.574955    0.000000
      3          1           0       -0.901471    1.879831    0.000000
      4          8           0        0.026775   -1.384396    0.000000
      5          1           0        0.974899   -1.642405    0.000000
      6          1           0       -0.524773   -2.197600    0.000000
 ---------------------------------------------------------------------

 SCF Done:  E(RHF) =  -33.6628359479     A.U. after   11 cycles
 E2 =    -0.2288400851D+00 EUMP2 =    -0.33891676032981D+02
 CCSD(T)
 CCSD(T)= -0.33908277984D+02

 The electronic state is 1-A'.
 Alpha  occ. eigenvalues --   -1.38595  -1.31641  -0.74301  -0.68076  -0.59158
 Alpha  occ. eigenvalues --   -0.53313  -0.51303  -0.46321
 Alpha virt. eigenvalues --    0.17727   0.26186   0.28150   0.43173   0.75962
 Alpha virt. eigenvalues --    0.78392   0.85739   0.86344   0.91893   1.04814
 Alpha virt. eigenvalues --    1.15831   1.17952   1.22644   1.35843   2.51531

 Mulliken charges:
               1
     1  O   -0.785920
     2  H    0.426055
     3  H    0.356343
     4  O   -0.803214
     5  H    0.396857
     6  H    0.409878
 Sum of Mulliken charges =   0.00000

 Dipole moment (field-independent basis, Debye):
    X=             -1.1945    Y=             -4.5049    Z=              0.0000  Tot=              4.6606
 Quadrupole moment (field-independent basis, Debye-Ang):
   XX=             -9.4847   YY=             -8.6193   ZZ=            -15.0152
   XY=             -4.9380   XZ=              0.0000   YZ=              0.0000

 15\MP4DQ=-33.9024507\MP4SDQ=-33.9045648\CCSD=-33.9055327\CCSD(T)=-33.9
 Normal termination of Gaussian 16 at Sun Dec 10 06:40:03 2023.
