 Gaussian 16, Revision A.03,
 Gaussian 16:  ES64L-G16RevA.03 25-Dec-2016

 ------------------
 #p CCSD(T)/CEP-31G
 ------------------

 ------------
 H2O_H2O_1606
 ------------
 Symbolic Z-matrix:
 Charge =  0 Multiplicity = 1

                         Standard orientation:
 ---------------------------------------------------------------------
 Center     Atomic      Atomic             Coordinates (Angstroms)
 Number     Number       Type             X           Y           Z
 ---------------------------------------------------------------------
      1          8           0        0.076777    1.741583   -0.000000
      2          1           0        0.075949    0.758982   -0.000000
      3          1           0       -0.852448    2.061032   -0.000000
      4          8           0        0.076777   -1.578409    0.000000
      5          1           0        0.452036   -2.486531    0.000000
      6          1           0       -0.903963   -1.638875    0.000000
 ---------------------------------------------------------------------

 SCF Done:  E(RHF) =  -33.6571977114     A.U. after   11 cycles
 E2 =    -0.2288563114D+00 EUMP2 =    -0.33886054022785D+02
 CCSD(T)
 CCSD(T)= -0.33902994291D+02

 The electronic state is 1-A'.
 Alpha  occ. eigenvalues --   -1.37892  -1.33173  -0.73648  -0.68818  -0.58064
 Alpha  occ. eigenvalues --   -0.52893  -0.52514  -0.47774
 Alpha virt. eigenvalues --    0.17410   0.24522   0.28446   0.37214   0.77359
 Alpha virt. eigenvalues --    0.81380   0.83526   0.85268   0.89960   1.00310
 Alpha virt. eigenvalues --    1.15068   1.18674   1.21081   1.37397   2.50697

 Mulliken charges:
               1
     1  O   -0.765264
     2  H    0.408876
     3  H    0.353670
     4  O   -0.769167
     5  H    0.398206
     6  H    0.373680
 Sum of Mulliken charges =   0.00000

 Dipole moment (field-independent basis, Debye):
    X=             -3.4440    Y=             -4.1136    Z=              0.0000  Tot=              5.3650
 Quadrupole moment (field-independent basis, Debye-Ang):
   XX=            -10.3399   YY=             -8.3875   ZZ=            -14.9986
   XY=             -3.5158   XZ=              0.0000   YZ=             -0.0000

 744\MP4DQ=-33.8971964\MP4SDQ=-33.8993151\CCSD=-33.9003301\CCSD(T)=-33.
 Normal termination of Gaussian 16 at Sun Dec 10 06:49:12 2023.
