 Gaussian 16, Revision A.03,
 Gaussian 16:  ES64L-G16RevA.03 25-Dec-2016

 ------------------
 #p CCSD(T)/CEP-31G
 ------------------

 ------------
 H2O_H2O_3454
 ------------
 Symbolic Z-matrix:
 Charge =  0 Multiplicity = 1

                         Standard orientation:
 ---------------------------------------------------------------------
 Center     Atomic      Atomic             Coordinates (Angstroms)
 Number     Number       Type             X           Y           Z
 ---------------------------------------------------------------------
      1          8           0        0.082802    2.474804    0.000000
      2          1           0        0.082443    1.492202    0.000000
      3          1           0       -0.846574    2.793810    0.000000
      4          8           0        0.082802   -2.320282   -0.000000
      5          1           0        0.336771   -3.269495   -0.000000
      6          1           0       -0.897472   -2.252686   -0.000000
 ---------------------------------------------------------------------

 SCF Done:  E(RHF) =  -33.6529851017     A.U. after   11 cycles
 E2 =    -0.2283510216D+00 EUMP2 =    -0.33881336123314D+02
 CCSD(T)
 CCSD(T)= -0.33898304869D+02

 The electronic state is 1-A'.
 Alpha  occ. eigenvalues --   -1.36575  -1.34692  -0.72231  -0.70299  -0.56384
 Alpha  occ. eigenvalues --   -0.54447  -0.51160  -0.49274
 Alpha virt. eigenvalues --    0.18803   0.21516   0.29485   0.31540   0.79414
 Alpha virt. eigenvalues --    0.81247   0.82297   0.84261   0.85386   0.87603
 Alpha virt. eigenvalues --    1.16302   1.18445   1.20787   1.23748   2.56299

 Mulliken charges:
               1
     1  O   -0.745887
     2  H    0.380509
     3  H    0.365173
     4  O   -0.746080
     5  H    0.377342
     6  H    0.368943
 Sum of Mulliken charges =   0.00000

 Dipole moment (field-independent basis, Debye):
    X=             -3.7935    Y=             -3.6642    Z=             -0.0000  Tot=              5.2742
 Quadrupole moment (field-independent basis, Debye-Ang):
   XX=            -10.6435   YY=             -7.8939   ZZ=            -14.9904
   XY=             -3.4911   XZ=             -0.0000   YZ=              0.0000

 9167\MP4DQ=-33.8926614\MP4SDQ=-33.8946916\CCSD=-33.8957407\CCSD(T)=-33
 Normal termination of Gaussian 16 at Sun Dec 10 06:35:11 2023.
