 Gaussian 16, Revision A.03,
 Gaussian 16:  ES64L-G16RevA.03 25-Dec-2016

 ------------------
 #p CCSD(T)/CEP-31G
 ------------------

 ------------
 H2O_H2O_1074
 ------------
 Symbolic Z-matrix:
 Charge =  0 Multiplicity = 1

                         Standard orientation:
 ---------------------------------------------------------------------
 Center     Atomic      Atomic             Coordinates (Angstroms)
 Number     Number       Type             X           Y           Z
 ---------------------------------------------------------------------
      1          8           0        0.013657   -1.520066    0.000000
      2          1           0        0.008978   -0.537476    0.000000
      3          1           0       -0.914308   -1.843155    0.000000
      4          8           0        0.013657    1.360851    0.000000
      5          1           0        0.996247    1.365530    0.000000
      6          1           0       -0.309431    2.288817    0.000000
 ---------------------------------------------------------------------

 SCF Done:  E(RHF) =  -33.6610081453     A.U. after   11 cycles
 E2 =    -0.2286497373D+00 EUMP2 =    -0.33889657882657D+02
 CCSD(T)
 CCSD(T)= -0.33906334583D+02

 The electronic state is 1-A'.
 Alpha  occ. eigenvalues --   -1.38792  -1.31930  -0.74797  -0.68162  -0.59284
 Alpha  occ. eigenvalues --   -0.53442  -0.51554  -0.46611
 Alpha virt. eigenvalues --    0.17596   0.26211   0.28000   0.43547   0.75632
 Alpha virt. eigenvalues --    0.78715   0.85785   0.86362   0.90441   1.10802
 Alpha virt. eigenvalues --    1.16201   1.19968   1.23375   1.37104   2.53066

 Mulliken charges:
               1
     1  O   -0.779812
     2  H    0.409032
     3  H    0.361853
     4  O   -0.805053
     5  H    0.394206
     6  H    0.419774
 Sum of Mulliken charges =  -0.00000

 Dipole moment (field-independent basis, Debye):
    X=             -0.6119    Y=              4.2006    Z=              0.0000  Tot=              4.2449
 Quadrupole moment (field-independent basis, Debye-Ang):
   XX=             -9.8387   YY=             -8.9012   ZZ=            -15.0115
   XY=              5.3780   XZ=              0.0000   YZ=              0.0000

 644\MP4DQ=-33.9004675\MP4SDQ=-33.9026187\CCSD=-33.9035869\CCSD(T)=-33.
 Normal termination of Gaussian 16 at Sun Dec 10 06:38:42 2023.
