 Gaussian 16, Revision A.03,
 Gaussian 16:  ES64L-G16RevA.03 25-Dec-2016

 ------------------
 #p CCSD(T)/CEP-31G
 ------------------

 -----------
 H2O_H2O_194
 -----------
 Symbolic Z-matrix:
 Charge =  0 Multiplicity = 1

                         Standard orientation:
 ---------------------------------------------------------------------
 Center     Atomic      Atomic             Coordinates (Angstroms)
 Number     Number       Type             X           Y           Z
 ---------------------------------------------------------------------
      1          8           0        0.030414    1.179870    0.000000
      2          1           0        0.025537    0.197281    0.000000
      3          1           0       -0.897486    1.503146   -0.000000
      4          8           0        0.030414   -1.004418    0.000000
      5          1           0        0.959290   -1.324880    0.000000
      6          1           0       -0.573970   -1.779162   -0.000000
 ---------------------------------------------------------------------

 SCF Done:  E(RHF) =  -33.6216967585     A.U. after   11 cycles
 E2 =    -0.2276728722D+00 EUMP2 =    -0.33849369630772D+02
 CCSD(T)
 CCSD(T)= -0.33864168400D+02

 The electronic state is 1-A'.
 Alpha  occ. eigenvalues --   -1.44254  -1.27355  -0.79871  -0.75219  -0.57947
 Alpha  occ. eigenvalues --   -0.56002  -0.44878  -0.41517
 Alpha virt. eigenvalues --    0.16691   0.25424   0.29836   0.61016   0.73410
 Alpha virt. eigenvalues --    0.73864   0.87538   0.91287   0.92738   1.02155
 Alpha virt. eigenvalues --    1.14141   1.19004   1.28980   1.36564   2.88643

 Mulliken charges:
               1
     1  O   -0.756549
     2  H    0.338813
     3  H    0.321339
     4  O   -0.809474
     5  H    0.439430
     6  H    0.466441
 Sum of Mulliken charges =   0.00000

 Dipole moment (field-independent basis, Debye):
    X=             -1.2860    Y=             -5.4604    Z=             -0.0000  Tot=              5.6098
 Quadrupole moment (field-independent basis, Debye-Ang):
   XX=             -9.3314   YY=            -10.4012   ZZ=            -14.9592
   XY=             -3.5554   XZ=              0.0000   YZ=             -0.0000

 2\MP4DQ=-33.8580693\MP4SDQ=-33.8603454\CCSD=-33.8609988\CCSD(T)=-33.86
 Normal termination of Gaussian 16 at Sun Dec 10 06:21:52 2023.
