 Gaussian 16, Revision A.03,
 Gaussian 16:  ES64L-G16RevA.03 25-Dec-2016

 ------------------
 #p CCSD(T)/CEP-31G
 ------------------

 ------------
 H2O_H2O_1370
 ------------
 Symbolic Z-matrix:
 Charge =  0 Multiplicity = 1

                         Standard orientation:
 ---------------------------------------------------------------------
 Center     Atomic      Atomic             Coordinates (Angstroms)
 Number     Number       Type             X           Y           Z
 ---------------------------------------------------------------------
      1          8           0        0.026755    1.647301    0.000000
      2          1           0        0.023151    0.664706    0.000000
      3          1           0       -0.901562    1.969376   -0.000000
      4          8           0        0.026755   -1.474137    0.000000
      5          1           0        0.974937   -1.731933    0.000000
      6          1           0       -0.524611   -2.287464   -0.000000
 ---------------------------------------------------------------------

 SCF Done:  E(RHF) =  -33.6620374095     A.U. after   11 cycles
 E2 =    -0.2287920717D+00 EUMP2 =    -0.33890829481161D+02
 CCSD(T)
 CCSD(T)= -0.33907565294D+02

 The electronic state is 1-A'.
 Alpha  occ. eigenvalues --   -1.38143  -1.32173  -0.73832  -0.68175  -0.58707
 Alpha  occ. eigenvalues --   -0.52849  -0.51942  -0.46860
 Alpha virt. eigenvalues --    0.17835   0.25557   0.28467   0.40323   0.76717
 Alpha virt. eigenvalues --    0.79707   0.84744   0.86432   0.90533   1.02482
 Alpha virt. eigenvalues --    1.15402   1.18409   1.21944   1.35479   2.50313

 Mulliken charges:
               1
     1  O   -0.783708
     2  H    0.421779
     3  H    0.359325
     4  O   -0.789739
     5  H    0.391971
     6  H    0.400372
 Sum of Mulliken charges =  -0.00000

 Dipole moment (field-independent basis, Debye):
    X=             -1.1966    Y=             -4.4179    Z=             -0.0000  Tot=              4.5770
 Quadrupole moment (field-independent basis, Debye-Ang):
   XX=             -9.4939   YY=             -8.3431   ZZ=            -15.0111
   XY=             -5.2400   XZ=              0.0000   YZ=             -0.0000

 556\MP4DQ=-33.9017724\MP4SDQ=-33.9038747\CCSD=-33.9048684\CCSD(T)=-33.
 Normal termination of Gaussian 16 at Sun Dec 10 06:44:30 2023.
