 Gaussian 16, Revision A.03,
 Gaussian 16:  ES64L-G16RevA.03 25-Dec-2016

 ------------------
 #p CCSD(T)/CEP-31G
 ------------------

 ------------
 H2O_H2O_1521
 ------------
 Symbolic Z-matrix:
 Charge =  0 Multiplicity = 1

                         Standard orientation:
 ---------------------------------------------------------------------
 Center     Atomic      Atomic             Coordinates (Angstroms)
 Number     Number       Type             X           Y           Z
 ---------------------------------------------------------------------
      1          8           0       -0.023299    1.705598    0.000000
      2          1           0       -0.019647    0.723003    0.000000
      3          1           0        0.905003    2.027717    0.000000
      4          8           0       -0.023299   -1.535260    0.000000
      5          1           0       -0.986301   -1.730537    0.000000
      6          1           0        0.473734   -2.382883    0.000000
 ---------------------------------------------------------------------

 SCF Done:  E(RHF) =  -33.6610849252     A.U. after   11 cycles
 E2 =    -0.2287173377D+00 EUMP2 =    -0.33889802262839D+02
 CCSD(T)
 CCSD(T)= -0.33906610079D+02

 The electronic state is 1-A'.
 Alpha  occ. eigenvalues --   -1.37902  -1.32550  -0.73603  -0.68389  -0.58379
 Alpha  occ. eigenvalues --   -0.52592  -0.52366  -0.47238
 Alpha virt. eigenvalues --    0.17854   0.25140   0.28638   0.38628   0.77167
 Alpha virt. eigenvalues --    0.80543   0.84116   0.86451   0.89454   1.00889
 Alpha virt. eigenvalues --    1.15462   1.18705   1.21566   1.35894   2.50547

 Mulliken charges:
               1
     1  O   -0.780581
     2  H    0.415783
     3  H    0.362007
     4  O   -0.782160
     5  H    0.388544
     6  H    0.396406
 Sum of Mulliken charges =   0.00000

 Dipole moment (field-independent basis, Debye):
    X=              1.0441    Y=             -4.3018    Z=              0.0000  Tot=              4.4267
 Quadrupole moment (field-independent basis, Debye-Ang):
   XX=             -9.5686   YY=             -8.2418   ZZ=            -15.0080
   XY=              5.5849   XZ=              0.0000   YZ=              0.0000

 063\MP4DQ=-33.9008342\MP4SDQ=-33.9029345\CCSD=-33.9039403\CCSD(T)=-33.
 Normal termination of Gaussian 16 at Sun Dec 10 06:47:30 2023.
