 Gaussian 16, Revision A.03,
 Gaussian 16:  ES64L-G16RevA.03 25-Dec-2016

 ------------------
 #p CCSD(T)/CEP-31G
 ------------------

 -----------
 H2O_H2O_523
 -----------
 Symbolic Z-matrix:
 Charge =  0 Multiplicity = 1

                         Standard orientation:
 ---------------------------------------------------------------------
 Center     Atomic      Atomic             Coordinates (Angstroms)
 Number     Number       Type             X           Y           Z
 ---------------------------------------------------------------------
      1          8           0        0.016829   -1.302909    0.000000
      2          1           0        0.011526   -0.320322    0.000000
      3          1           0       -0.910930   -1.626587    0.000000
      4          8           0        0.016829    1.139602    0.000000
      5          1           0        0.996966    1.209159    0.000000
      6          1           0       -0.366834    2.044206    0.000000
 ---------------------------------------------------------------------

 SCF Done:  E(RHF) =  -33.6507183757     A.U. after   11 cycles
 E2 =    -0.2281215689D+00 EUMP2 =    -0.33878839944632D+02
 CCSD(T)
 CCSD(T)= -0.33894696130D+02

 The electronic state is 1-A'.
 Alpha  occ. eigenvalues --   -1.41168  -1.29737  -0.77644  -0.69670  -0.59089
 Alpha  occ. eigenvalues --   -0.55529  -0.48558  -0.44270
 Alpha virt. eigenvalues --    0.17321   0.26410   0.28323   0.53908   0.73950
 Alpha virt. eigenvalues --    0.75995   0.87271   0.88956   0.93318   1.05407
 Alpha virt. eigenvalues --    1.15216   1.22124   1.28059   1.38686   2.70894

 Mulliken charges:
               1
     1  O   -0.763690
     2  H    0.380206
     3  H    0.347944
     4  O   -0.837665
     5  H    0.414010
     6  H    0.459196
 Sum of Mulliken charges =   0.00000

 Dipole moment (field-independent basis, Debye):
    X=             -0.7515    Y=              4.7145    Z=              0.0000  Tot=              4.7740
 Quadrupole moment (field-independent basis, Debye-Ang):
   XX=             -9.6940   YY=             -9.5888   ZZ=            -15.0032
   XY=              4.3656   XZ=              0.0000   YZ=              0.0000

 74\MP4DQ=-33.8887057\MP4SDQ=-33.8909214\CCSD=-33.8917535\CCSD(T)=-33.8
 Normal termination of Gaussian 16 at Sun Dec 10 06:28:22 2023.
