 Gaussian 16, Revision A.03,
 Gaussian 16:  ES64L-G16RevA.03 25-Dec-2016

 ------------------
 #p CCSD(T)/CEP-31G
 ------------------

 ------------
 H2O_H2O_1099
 ------------
 Symbolic Z-matrix:
 Charge =  0 Multiplicity = 1

                         Standard orientation:
 ---------------------------------------------------------------------
 Center     Atomic      Atomic             Coordinates (Angstroms)
 Number     Number       Type             X           Y           Z
 ---------------------------------------------------------------------
      1          8           0        0.013655   -1.530038    0.000000
      2          1           0        0.009008   -0.547448    0.000000
      3          1           0       -0.914321   -1.853097    0.000000
      4          8           0        0.013655    1.370823    0.000000
      5          1           0        0.996245    1.375469    0.000000
      6          1           0       -0.309405    2.298799    0.000000
 ---------------------------------------------------------------------

 SCF Done:  E(RHF) =  -33.6610579227     A.U. after   11 cycles
 E2 =    -0.2286587657D+00 EUMP2 =    -0.33889716688387D+02
 CCSD(T)
 CCSD(T)= -0.33906410771D+02

 The electronic state is 1-A'.
 Alpha  occ. eigenvalues --   -1.38727  -1.31996  -0.74713  -0.68178  -0.59231
 Alpha  occ. eigenvalues --   -0.53380  -0.51637  -0.46678
 Alpha virt. eigenvalues --    0.17602   0.26145   0.28039   0.43185   0.75720
 Alpha virt. eigenvalues --    0.78833   0.85662   0.86354   0.90325   1.10763
 Alpha virt. eigenvalues --    1.16306   1.19589   1.23135   1.37154   2.52783

 Mulliken charges:
               1
     1  O   -0.780062
     2  H    0.409479
     3  H    0.362150
     4  O   -0.803485
     5  H    0.393628
     6  H    0.418290
 Sum of Mulliken charges =   0.00000

 Dipole moment (field-independent basis, Debye):
    X=             -0.6117    Y=              4.1881    Z=              0.0000  Tot=              4.2325
 Quadrupole moment (field-independent basis, Debye-Ang):
   XX=             -9.8396   YY=             -8.8780   ZZ=            -15.0112
   XY=              5.4174   XZ=              0.0000   YZ=              0.0000

 8436\MP4DQ=-33.9005485\MP4SDQ=-33.9026973\CCSD=-33.9036688\CCSD(T)=-33
 Normal termination of Gaussian 16 at Sun Dec 10 06:39:11 2023.
