 Gaussian 16, Revision A.03,
 Gaussian 16:  ES64L-G16RevA.03 25-Dec-2016

 ------------------
 #p CCSD(T)/CEP-31G
 ------------------

 ------------
 H2O_H2O_3119
 ------------
 Symbolic Z-matrix:
 Charge =  0 Multiplicity = 1

                         Standard orientation:
 ---------------------------------------------------------------------
 Center     Atomic      Atomic             Coordinates (Angstroms)
 Number     Number       Type             X           Y           Z
 ---------------------------------------------------------------------
      1          8           0        0.030189    2.346657   -0.000000
      2          1           0        0.027831    1.364059   -0.000000
      3          1           0       -0.898536    2.667553   -0.000000
      4          8           0        0.030189   -2.171050    0.000000
      5          1           0        0.959883   -2.489130    0.000000
      6          1           0       -0.572207   -2.947340    0.000000
 ---------------------------------------------------------------------

 SCF Done:  E(RHF) =  -33.6552430072     A.U. after   11 cycles
 E2 =    -0.2283009667D+00 EUMP2 =    -0.33883543973903D+02
 CCSD(T)
 CCSD(T)= -0.33900451935D+02

 The electronic state is 1-A'.
 Alpha  occ. eigenvalues --   -1.36652  -1.34121  -0.72298  -0.69755  -0.56587
 Alpha  occ. eigenvalues --   -0.53956  -0.51274  -0.48746
 Alpha virt. eigenvalues --    0.18910   0.22151   0.29529   0.32284   0.79292
 Alpha virt. eigenvalues --    0.81737   0.82403   0.84563   0.85497   0.87861
 Alpha virt. eigenvalues --    1.16384   1.19161   1.20782   1.25219   2.56185

 Mulliken charges:
               1
     1  O   -0.754694
     2  H    0.386702
     3  H    0.367354
     4  O   -0.752585
     5  H    0.377250
     6  H    0.375973
 Sum of Mulliken charges =  -0.00000

 Dipole moment (field-independent basis, Debye):
    X=             -1.3760    Y=             -4.1831    Z=              0.0000  Tot=              4.4036
 Quadrupole moment (field-independent basis, Debye-Ang):
   XX=             -9.4692   YY=             -6.6381   ZZ=            -14.9955
   XY=             -7.1972   XZ=              0.0000   YZ=             -0.0000

 3\MP4DQ=-33.8948148\MP4SDQ=-33.896848\CCSD=-33.8978888\CCSD(T)=-33.900
 Normal termination of Gaussian 16 at Sun Dec 10 06:29:12 2023.
