 Gaussian 16, Revision A.03,
 Gaussian 16:  ES64L-G16RevA.03 25-Dec-2016

 ------------------
 #p CCSD(T)/CEP-31G
 ------------------

 ------------
 H2O_H2O_4260
 ------------
 Symbolic Z-matrix:
 Charge =  0 Multiplicity = 1

                         Standard orientation:
 ---------------------------------------------------------------------
 Center     Atomic      Atomic             Coordinates (Angstroms)
 Number     Number       Type             X           Y           Z
 ---------------------------------------------------------------------
      1          8           0        0.063220    2.805319   -0.000000
      2          1           0        0.062291    1.822718   -0.000000
      3          1           0       -0.865972    3.124863   -0.000000
      4          8           0        0.063220   -2.629787    0.000000
      5          1           0        0.660653   -3.409902    0.000000
      6          1           0       -0.868485   -2.941931    0.000000
 ---------------------------------------------------------------------

 SCF Done:  E(RHF) =  -33.6531911087     A.U. after   11 cycles
 E2 =    -0.2283093373D+00 EUMP2 =    -0.33881500446064D+02
 CCSD(T)
 CCSD(T)= -0.33898460864D+02

 The electronic state is 1-A'.
 Alpha  occ. eigenvalues --   -1.36317  -1.34654  -0.71960  -0.70277  -0.56134
 Alpha  occ. eigenvalues --   -0.54429  -0.50909  -0.49245
 Alpha virt. eigenvalues --    0.19496   0.21264   0.29774   0.31538   0.79648
 Alpha virt. eigenvalues --    0.81272   0.82494   0.84277   0.85672   0.87419
 Alpha virt. eigenvalues --    1.16646   1.18313   1.21081   1.22870   2.56613

 Mulliken charges:
               1
     1  O   -0.746619
     2  H    0.379394
     3  H    0.367199
     4  O   -0.746256
     5  H    0.375104
     6  H    0.371178
 Sum of Mulliken charges =   0.00000

 Dipole moment (field-independent basis, Debye):
    X=             -2.9026    Y=             -4.1254    Z=              0.0000  Tot=              5.0442
 Quadrupole moment (field-independent basis, Debye-Ang):
   XX=             -9.7755   YY=             -5.7347   ZZ=            -14.9914
   XY=             -5.6528   XZ=              0.0000   YZ=             -0.0000

 795\MP4DQ=-33.8928261\MP4SDQ=-33.8948506\CCSD=-33.8959027\CCSD(T)=-33.
 Normal termination of Gaussian 16 at Sun Dec 10 06:49:40 2023.
