 Gaussian 16, Revision A.03,
 Gaussian 16:  ES64L-G16RevA.03 25-Dec-2016

 ------------------
 #p CCSD(T)/CEP-31G
 ------------------

 ------------
 H2O_H2O_1538
 ------------
 Symbolic Z-matrix:
 Charge =  0 Multiplicity = 1

                         Standard orientation:
 ---------------------------------------------------------------------
 Center     Atomic      Atomic             Coordinates (Angstroms)
 Number     Number       Type             X           Y           Z
 ---------------------------------------------------------------------
      1          8           0        0.052353    1.720718    0.000000
      2          1           0        0.050237    0.738119    0.000000
      3          1           0       -0.876452    2.041385   -0.000000
      4          8           0        0.052353   -1.540890    0.000000
      5          1           0        0.789714   -2.190353    0.000000
      6          1           0       -0.801143   -2.027772   -0.000000
 ---------------------------------------------------------------------

 SCF Done:  E(RHF) =  -33.6607017950     A.U. after   11 cycles
 E2 =    -0.2288508647D+00 EUMP2 =    -0.33889552659739D+02
 CCSD(T)
 CCSD(T)= -0.33906336098D+02

 The electronic state is 1-A'.
 Alpha  occ. eigenvalues --   -1.37914  -1.32404  -0.73557  -0.68235  -0.58368
 Alpha  occ. eigenvalues --   -0.52607  -0.52181  -0.47061
 Alpha virt. eigenvalues --    0.17907   0.25054   0.28602   0.38723   0.77238
 Alpha virt. eigenvalues --    0.80767   0.84201   0.85903   0.91244   0.96614
 Alpha virt. eigenvalues --    1.15191   1.19804   1.20970   1.34003   2.49703

 Mulliken charges:
               1
     1  O   -0.778214
     2  H    0.421675
     3  H    0.354996
     4  O   -0.778619
     5  H    0.395796
     6  H    0.384367
 Sum of Mulliken charges =   0.00000

 Dipole moment (field-independent basis, Debye):
    X=             -2.3340    Y=             -4.5305    Z=             -0.0000  Tot=              5.0964
 Quadrupole moment (field-independent basis, Debye-Ang):
   XX=             -9.4963   YY=             -8.0178   ZZ=            -15.0075
   XY=             -4.5588   XZ=              0.0000   YZ=             -0.0000

 65\MP4DQ=-33.9005677\MP4SDQ=-33.9026575\CCSD=-33.903662\CCSD(T)=-33.90
 Normal termination of Gaussian 16 at Sun Dec 10 06:47:50 2023.
