 Gaussian 16, Revision A.03,
 Gaussian 16:  ES64L-G16RevA.03 25-Dec-2016

 ------------------
 #p CCSD(T)/CEP-31G
 ------------------

 -----------
 H2O_H2O_520
 -----------
 Symbolic Z-matrix:
 Charge =  0 Multiplicity = 1

                         Standard orientation:
 ---------------------------------------------------------------------
 Center     Atomic      Atomic             Coordinates (Angstroms)
 Number     Number       Type             X           Y           Z
 ---------------------------------------------------------------------
      1          8           0        0.026844    1.308231    0.000000
      2          1           0        0.022238    0.325641    0.000000
      3          1           0       -0.901146    1.631251    0.000000
      4          8           0        0.026844   -1.135122   -0.000000
      5          1           0        0.974762   -1.393883   -0.000000
      6          1           0       -0.525351   -1.947887   -0.000000
 ---------------------------------------------------------------------

 SCF Done:  E(RHF) =  -33.6532055428     A.U. after   11 cycles
 E2 =    -0.2284432040D+00 EUMP2 =    -0.33881648746810D+02
 CCSD(T)
 CCSD(T)= -0.33897331861D+02

 The electronic state is 1-A'.
 Alpha  occ. eigenvalues --   -1.41115  -1.29345  -0.76897  -0.70704  -0.58606
 Alpha  occ. eigenvalues --   -0.55609  -0.48130  -0.43847
 Alpha virt. eigenvalues --    0.17228   0.26660   0.28355   0.54523   0.73983
 Alpha virt. eigenvalues --    0.75019   0.86690   0.89207   0.94774   1.01521
 Alpha virt. eigenvalues --    1.15702   1.20111   1.25683   1.37385   2.69934

 Mulliken charges:
               1
     1  O   -0.772597
     2  H    0.403384
     3  H    0.340445
     4  O   -0.838224
     5  H    0.419059
     6  H    0.447934
 Sum of Mulliken charges =   0.00000

 Dipole moment (field-independent basis, Debye):
    X=             -1.1785    Y=             -4.9464    Z=             -0.0000  Tot=              5.0849
 Quadrupole moment (field-independent basis, Debye-Ang):
   XX=             -9.4385   YY=             -9.6414   ZZ=            -15.0079
   XY=             -4.0677   XZ=             -0.0000   YZ=              0.0000

 176\MP4DQ=-33.8913637\MP4SDQ=-33.8935497\CCSD=-33.8943575\CCSD(T)=-33.
 Normal termination of Gaussian 16 at Sun Dec 10 06:28:18 2023.
