 Gaussian 16, Revision A.03,
 Gaussian 16:  ES64L-G16RevA.03 25-Dec-2016

 ------------------
 #p CCSD(T)/CEP-31G
 ------------------

 -----------
 H2O_H2O_439
 -----------
 Symbolic Z-matrix:
 Charge =  0 Multiplicity = 1

                         Standard orientation:
 ---------------------------------------------------------------------
 Center     Atomic      Atomic             Coordinates (Angstroms)
 Number     Number       Type             X           Y           Z
 ---------------------------------------------------------------------
      1          8           0        0.048720    1.282183   -0.000000
      2          1           0        0.045561    0.299587   -0.000000
      3          1           0       -0.879744    1.603836   -0.000000
      4          8           0        0.048720   -1.101942    0.000000
      5          1           0        0.826343   -1.702616    0.000000
      6          1           0       -0.771678   -1.642733    0.000000
 ---------------------------------------------------------------------

 SCF Done:  E(RHF) =  -33.6493773628     A.U. after   11 cycles
 E2 =    -0.2287969150D+00 EUMP2 =    -0.33878174277816D+02
 CCSD(T)
 CCSD(T)= -0.33893575368D+02

 The electronic state is 1-A'.
 Alpha  occ. eigenvalues --   -1.41694  -1.28817  -0.76640  -0.72752  -0.57683
 Alpha  occ. eigenvalues --   -0.56157  -0.47365  -0.43202
 Alpha virt. eigenvalues --    0.16908   0.26520   0.28656   0.56523   0.73789
 Alpha virt. eigenvalues --    0.73842   0.85636   0.89784   0.94980   1.02394
 Alpha virt. eigenvalues --    1.13900   1.17468   1.25135   1.36224   2.73824

 Mulliken charges:
               1
     1  O   -0.769998
     2  H    0.412066
     3  H    0.326093
     4  O   -0.833134
     5  H    0.440666
     6  H    0.424308
 Sum of Mulliken charges =   0.00000

 Dipole moment (field-independent basis, Debye):
    X=             -2.0462    Y=             -5.1946    Z=              0.0000  Tot=              5.5831
 Quadrupole moment (field-independent basis, Debye-Ang):
   XX=             -9.3698   YY=             -9.9082   ZZ=            -15.0015
   XY=             -3.6835   XZ=              0.0000   YZ=             -0.0000

 41\MP4DQ=-33.8875603\MP4SDQ=-33.8897704\CCSD=-33.890521\CCSD(T)=-33.89
 Normal termination of Gaussian 16 at Sun Dec 10 06:26:41 2023.
