 Gaussian 16, Revision A.03,
 Gaussian 16:  ES64L-G16RevA.03 25-Dec-2016

 ------------------
 #p CCSD(T)/CEP-31G
 ------------------

 ------------
 H2O_H2O_2766
 ------------
 Symbolic Z-matrix:
 Charge =  0 Multiplicity = 1

                         Standard orientation:
 ---------------------------------------------------------------------
 Center     Atomic      Atomic             Coordinates (Angstroms)
 Number     Number       Type             X           Y           Z
 ---------------------------------------------------------------------
      1          8           0        0.041153    2.209388    0.000000
      2          1           0        0.039078    1.226789    0.000000
      3          1           0       -0.887665    2.530016   -0.000000
      4          8           0        0.041153   -2.029475    0.000000
      5          1           0        0.891073   -2.522571    0.000000
      6          1           0       -0.700928   -2.673541   -0.000000
 ---------------------------------------------------------------------

 SCF Done:  E(RHF) =  -33.6559917627     A.U. after   11 cycles
 E2 =    -0.2283565544D+00 EUMP2 =    -0.33884348317166D+02
 CCSD(T)
 CCSD(T)= -0.33901243948D+02

 The electronic state is 1-A'.
 Alpha  occ. eigenvalues --   -1.36835  -1.33824  -0.72481  -0.69449  -0.56823
 Alpha  occ. eigenvalues --   -0.53664  -0.51466  -0.48456
 Alpha virt. eigenvalues --    0.18660   0.22620   0.29413   0.32749   0.79094
 Alpha virt. eigenvalues --    0.82028   0.83269   0.84533   0.85521   0.88137
 Alpha virt. eigenvalues --    1.16232   1.19571   1.20656   1.27058   2.55342

 Mulliken charges:
               1
     1  O   -0.757931
     2  H    0.391526
     3  H    0.365156
     4  O   -0.754389
     5  H    0.379491
     6  H    0.376146
 Sum of Mulliken charges =   0.00000

 Dipole moment (field-independent basis, Debye):
    X=             -1.8711    Y=             -4.3225    Z=             -0.0000  Tot=              4.7101
 Quadrupole moment (field-independent basis, Debye-Ang):
   XX=             -9.4067   YY=             -6.7061   ZZ=            -14.9970
   XY=             -6.1388   XZ=              0.0000   YZ=             -0.0000

 383\MP4DQ=-33.8955936\MP4SDQ=-33.8976378\CCSD=-33.8986727\CCSD(T)=-33.
 Normal termination of Gaussian 16 at Sun Dec 10 06:22:47 2023.
