 Gaussian 16, Revision A.03,
 Gaussian 16:  ES64L-G16RevA.03 25-Dec-2016

 ------------------
 #p CCSD(T)/CEP-31G
 ------------------

 ------------
 H2O_H2O_3249
 ------------
 Symbolic Z-matrix:
 Charge =  0 Multiplicity = 1

                         Standard orientation:
 ---------------------------------------------------------------------
 Center     Atomic      Atomic             Coordinates (Angstroms)
 Number     Number       Type             X           Y           Z
 ---------------------------------------------------------------------
      1          8           0       -0.013515    2.387642    0.000000
      2          1           0       -0.010595    1.405045    0.000000
      3          1           0        0.915027    2.709069    0.000000
      4          8           0       -0.013515   -2.228379    0.000000
      5          1           0       -0.996112   -2.231299    0.000000
      6          1           0        0.307913   -3.156921    0.000000
 ---------------------------------------------------------------------

 SCF Done:  E(RHF) =  -33.6547636641     A.U. after   11 cycles
 E2 =    -0.2282826137D+00 EUMP2 =    -0.33883046277799D+02
 CCSD(T)
 CCSD(T)= -0.33899969073D+02

 The electronic state is 1-A'.
 Alpha  occ. eigenvalues --   -1.36591  -1.34434  -0.72243  -0.70080  -0.56493
 Alpha  occ. eigenvalues --   -0.54266  -0.51204  -0.49056
 Alpha virt. eigenvalues --    0.18790   0.21912   0.29559   0.31925   0.79359
 Alpha virt. eigenvalues --    0.81439   0.82275   0.84289   0.85508   0.87603
 Alpha virt. eigenvalues --    1.16365   1.18866   1.20820   1.24731   2.56396

 Mulliken charges:
               1
     1  O   -0.752823
     2  H    0.382691
     3  H    0.369744
     4  O   -0.751793
     5  H    0.375347
     6  H    0.376834
 Sum of Mulliken charges =  -0.00000

 Dipole moment (field-independent basis, Debye):
    X=              0.6165    Y=             -3.7795    Z=              0.0000  Tot=              3.8294
 Quadrupole moment (field-independent basis, Debye-Ang):
   XX=             -9.8713   YY=             -7.6034   ZZ=            -14.9942
   XY=              8.6304   XZ=              0.0000   YZ=              0.0000

 5801\MP4DQ=-33.8943328\MP4SDQ=-33.8963628\CCSD=-33.8974068\CCSD(T)=-33
 Normal termination of Gaussian 16 at Sun Dec 10 06:31:33 2023.
