 Gaussian 16, Revision A.03,
 Gaussian 16:  ES64L-G16RevA.03 25-Dec-2016

 ------------------
 #p CCSD(T)/CEP-31G
 ------------------

 ------------
 H2O_H2O_2415
 ------------
 Symbolic Z-matrix:
 Charge =  0 Multiplicity = 1

                         Standard orientation:
 ---------------------------------------------------------------------
 Center     Atomic      Atomic             Coordinates (Angstroms)
 Number     Number       Type             X           Y           Z
 ---------------------------------------------------------------------
      1          8           0        0.044882    2.070032    0.000000
      2          1           0        0.042820    1.087433    0.000000
      3          1           0       -0.883940    2.390649   -0.000000
      4          8           0        0.044882   -1.889656   -0.000000
      5          1           0        0.860738   -2.437274    0.000000
      6          1           0       -0.737727   -2.483819   -0.000000
 ---------------------------------------------------------------------

 SCF Done:  E(RHF) =  -33.6569703575     A.U. after   11 cycles
 E2 =    -0.2284391353D+00 EUMP2 =    -0.33885409492802D+02
 CCSD(T)
 CCSD(T)= -0.33902295965D+02

 The electronic state is 1-A'.
 Alpha  occ. eigenvalues --   -1.37053  -1.33522  -0.72701  -0.69148  -0.57122
 Alpha  occ. eigenvalues --   -0.53368  -0.51697  -0.48163
 Alpha virt. eigenvalues --    0.18401   0.23175   0.29248   0.33541   0.78814
 Alpha virt. eigenvalues --    0.82364   0.84005   0.85302   0.85748   0.88478
 Alpha virt. eigenvalues --    1.16036   1.19926   1.20484   1.29611   2.53913

 Mulliken charges:
               1
     1  O   -0.762434
     2  H    0.397272
     3  H    0.363261
     4  O   -0.757329
     5  H    0.381916
     6  H    0.377313
 Sum of Mulliken charges =   0.00000

 Dipole moment (field-independent basis, Debye):
    X=             -2.0336    Y=             -4.3775    Z=             -0.0000  Tot=              4.8268
 Quadrupole moment (field-independent basis, Debye-Ang):
   XX=             -9.4208   YY=             -7.0213   ZZ=            -14.9988
   XY=             -5.6095   XZ=              0.0000   YZ=             -0.0000

 96\MP4DQ=-33.8966231\MP4SDQ=-33.8986809\CCSD=-33.8997103\CCSD(T)=-33.9
 Normal termination of Gaussian 16 at Sun Dec 10 07:05:54 2023.
