 Gaussian 16, Revision A.03,
 Gaussian 16:  ES64L-G16RevA.03 25-Dec-2016

 ------------------
 #p CCSD(T)/CEP-31G
 ------------------

 -----------
 H2O_H2O_212
 -----------
 Symbolic Z-matrix:
 Charge =  0 Multiplicity = 1

                         Standard orientation:
 ---------------------------------------------------------------------
 Center     Atomic      Atomic             Coordinates (Angstroms)
 Number     Number       Type             X           Y           Z
 ---------------------------------------------------------------------
      1          8           0        0.056123    1.191621    0.000000
      2          1           0        0.053277    0.209024    0.000000
      3          1           0       -0.872443    1.512978    0.000000
      4          8           0        0.056123   -1.012879   -0.000000
      5          1           0        0.748912   -1.709693   -0.000000
      6          1           0       -0.827707   -1.442241   -0.000000
 ---------------------------------------------------------------------

 SCF Done:  E(RHF) =  -33.6247953938     A.U. after   11 cycles
 E2 =    -0.2282987804D+00 EUMP2 =    -0.33853094174152D+02
 CCSD(T)
 CCSD(T)= -0.33867955122D+02

 The electronic state is 1-A'.
 Alpha  occ. eigenvalues --   -1.44010  -1.27651  -0.78782  -0.76077  -0.57835
 Alpha  occ. eigenvalues --   -0.55787  -0.45333  -0.41770
 Alpha virt. eigenvalues --    0.16404   0.25464   0.29690   0.60530   0.73371
 Alpha virt. eigenvalues --    0.73544   0.86573   0.91094   0.93225   1.06712
 Alpha virt. eigenvalues --    1.12172   1.17051   1.27120   1.34692   2.89036

 Mulliken charges:
               1
     1  O   -0.751131
     2  H    0.362238
     3  H    0.310010
     4  O   -0.812440
     5  H    0.463573
     6  H    0.427750
 Sum of Mulliken charges =  -0.00000

 Dipole moment (field-independent basis, Debye):
    X=             -2.2837    Y=             -5.4869    Z=             -0.0000  Tot=              5.9432
 Quadrupole moment (field-independent basis, Debye-Ang):
   XX=             -9.4821   YY=            -10.4192   ZZ=            -14.9611
   XY=             -3.3949   XZ=             -0.0000   YZ=              0.0000

 04\MP4DQ=-33.8618062\MP4SDQ=-33.8641182\CCSD=-33.8647669\CCSD(T)=-33.8
 Normal termination of Gaussian 16 at Sun Dec 10 06:22:14 2023.
