 Gaussian 16, Revision A.03,
 Gaussian 16:  ES64L-G16RevA.03 25-Dec-2016

 ------------------
 #p CCSD(T)/CEP-31G
 ------------------

 -----------
 H2O_H2O_270
 -----------
 Symbolic Z-matrix:
 Charge =  0 Multiplicity = 1

                         Standard orientation:
 ---------------------------------------------------------------------
 Center     Atomic      Atomic             Coordinates (Angstroms)
 Number     Number       Type             X           Y           Z
 ---------------------------------------------------------------------
      1          8           0        0.026880    1.208502    0.000000
      2          1           0        0.021865    0.225914    0.000000
      3          1           0       -0.900975    1.531908    0.000000
      4          8           0        0.026880   -1.035415   -0.000000
      5          1           0        0.974690   -1.294570   -0.000000
      6          1           0       -0.525653   -1.847950   -0.000000
 ---------------------------------------------------------------------

 SCF Done:  E(RHF) =  -33.6321059219     A.U. after   11 cycles
 E2 =    -0.2278378566D+00 EUMP2 =    -0.33859943778514D+02
 CCSD(T)
 CCSD(T)= -0.33874986442D+02

 The electronic state is 1-A'.
 Alpha  occ. eigenvalues --   -1.43337  -1.27928  -0.79259  -0.73626  -0.57280
 Alpha  occ. eigenvalues --   -0.56883  -0.45843  -0.42210
 Alpha virt. eigenvalues --    0.16885   0.25694   0.29450   0.59666   0.73515
 Alpha virt. eigenvalues --    0.74245   0.87842   0.90749   0.93522   1.01357
 Alpha virt. eigenvalues --    1.14661   1.19858   1.28230   1.36929   2.84538

 Mulliken charges:
               1
     1  O   -0.759305
     2  H    0.356849
     3  H    0.328592
     4  O   -0.825318
     5  H    0.432521
     6  H    0.466661
 Sum of Mulliken charges =   0.00000

 Dipole moment (field-independent basis, Debye):
    X=             -1.1568    Y=             -5.2779    Z=             -0.0000  Tot=              5.4032
 Quadrupole moment (field-independent basis, Debye-Ang):
   XX=             -9.4006   YY=            -10.1841   ZZ=            -14.9750
   XY=             -3.7142   XZ=             -0.0000   YZ=              0.0000

 958\MP4DQ=-33.8689235\MP4SDQ=-33.8711738\CCSD=-33.8718727\CCSD(T)=-33.
 Normal termination of Gaussian 16 at Sun Dec 10 06:23:22 2023.
