 Gaussian 16, Revision A.03,
 Gaussian 16:  ES64L-G16RevA.03 25-Dec-2016

 ------------------
 #p CCSD(T)/CEP-31G
 ------------------

 ------------
 H2O_H2O_1133
 ------------
 Symbolic Z-matrix:
 Charge =  0 Multiplicity = 1

                         Standard orientation:
 ---------------------------------------------------------------------
 Center     Atomic      Atomic             Coordinates (Angstroms)
 Number     Number       Type             X           Y           Z
 ---------------------------------------------------------------------
      1          8           0        0.070238    1.555923    0.000000
      2          1           0        0.068925    0.573323    0.000000
      3          1           0       -0.858828    1.875831    0.000000
      4          8           0        0.070238   -1.385744   -0.000000
      5          1           0        0.560401   -2.237358   -0.000000
      6          1           0       -0.894311   -1.573229   -0.000000
 ---------------------------------------------------------------------

 SCF Done:  E(RHF) =  -33.6596401739     A.U. after   11 cycles
 E2 =    -0.2290343577D+00 EUMP2 =    -0.33888674531668D+02
 CCSD(T)
 CCSD(T)= -0.33905382513D+02

 The electronic state is 1-A'.
 Alpha  occ. eigenvalues --   -1.38723  -1.32009  -0.74500  -0.68281  -0.58991
 Alpha  occ. eigenvalues --   -0.53378  -0.51588  -0.46604
 Alpha virt. eigenvalues --    0.17362   0.25815   0.27898   0.42776   0.75880
 Alpha virt. eigenvalues --    0.78753   0.85315   0.85562   0.93072   1.07189
 Alpha virt. eigenvalues --    1.15601   1.17852   1.21847   1.36372   2.51240

 Mulliken charges:
               1
     1  O   -0.772750
     2  H    0.424016
     3  H    0.346003
     4  O   -0.796693
     5  H    0.417404
     6  H    0.382020
 Sum of Mulliken charges =   0.00000

 Dipole moment (field-independent basis, Debye):
    X=             -3.0884    Y=             -4.4470    Z=             -0.0000  Tot=              5.4143
 Quadrupole moment (field-independent basis, Debye-Ang):
   XX=            -10.0326   YY=             -8.6759   ZZ=            -15.0076
   XY=             -3.6779   XZ=             -0.0000   YZ=              0.0000

 8238\MP4DQ=-33.8995133\MP4SDQ=-33.9016572\CCSD=-33.9026299\CCSD(T)=-33
 Normal termination of Gaussian 16 at Sun Dec 10 06:39:49 2023.
