 Gaussian 16, Revision A.03,
 Gaussian 16:  ES64L-G16RevA.03 25-Dec-2016

 ------------------
 #p CCSD(T)/CEP-31G
 ------------------

 ------------
 H2O_H2O_1965
 ------------
 Symbolic Z-matrix:
 Charge =  0 Multiplicity = 1

                         Standard orientation:
 ---------------------------------------------------------------------
 Center     Atomic      Atomic             Coordinates (Angstroms)
 Number     Number       Type             X           Y           Z
 ---------------------------------------------------------------------
      1          8           0        0.044901    1.890529    0.000000
      2          1           0        0.042633    0.907930    0.000000
      3          1           0       -0.883855    2.211339    0.000000
      4          8           0        0.044901   -1.710171   -0.000000
      5          1           0        0.860643   -2.257959   -0.000000
      6          1           0       -0.737832   -2.304171   -0.000000
 ---------------------------------------------------------------------

 SCF Done:  E(RHF) =  -33.6588199911     A.U. after   11 cycles
 E2 =    -0.2286026796D+00 EUMP2 =    -0.33887422670746D+02
 CCSD(T)
 CCSD(T)= -0.33904281614D+02

 The electronic state is 1-A'.
 Alpha  occ. eigenvalues --   -1.37410  -1.33017  -0.73057  -0.68682  -0.57659
 Alpha  occ. eigenvalues --   -0.52861  -0.52077  -0.47675
 Alpha virt. eigenvalues --    0.18156   0.24083   0.28986   0.35499   0.78216
 Alpha virt. eigenvalues --    0.82731   0.83070   0.86101   0.88820   0.90610
 Alpha virt. eigenvalues --    1.15699   1.20082   1.20535   1.32652   2.51472

 Mulliken charges:
               1
     1  O   -0.770765
     2  H    0.408010
     3  H    0.360480
     4  O   -0.765035
     5  H    0.386380
     6  H    0.380931
 Sum of Mulliken charges =   0.00000

 Dipole moment (field-independent basis, Debye):
    X=             -2.0214    Y=             -4.4478    Z=             -0.0000  Tot=              4.8855
 Quadrupole moment (field-independent basis, Debye-Ang):
   XX=             -9.4148   YY=             -7.4948   ZZ=            -15.0027
   XY=             -5.2022   XZ=             -0.0000   YZ=              0.0000

 4\MP4DQ=-33.8985678\MP4SDQ=-33.9006418\CCSD=-33.9016636\CCSD(T)=-33.90
 Normal termination of Gaussian 16 at Sun Dec 10 06:55:58 2023.
