 Gaussian 16, Revision A.03,
 Gaussian 16:  ES64L-G16RevA.03 25-Dec-2016

 ------------------
 #p CCSD(T)/CEP-31G
 ------------------

 -----------
 H2O_H2O_211
 -----------
 Symbolic Z-matrix:
 Charge =  0 Multiplicity = 1

                         Standard orientation:
 ---------------------------------------------------------------------
 Center     Atomic      Atomic             Coordinates (Angstroms)
 Number     Number       Type             X           Y           Z
 ---------------------------------------------------------------------
      1          8           0        0.059760    1.190829    0.000000
      2          1           0        0.057195    0.208231    0.000000
      3          1           0       -0.868898    1.511921    0.000000
      4          8           0        0.059760   -1.013544    0.000000
      5          1           0        0.705703   -1.753992    0.000000
      6          1           0       -0.850154   -1.384440    0.000000
 ---------------------------------------------------------------------

 SCF Done:  E(RHF) =  -33.6238401420     A.U. after   11 cycles
 E2 =    -0.2283214724D+00 EUMP2 =    -0.33852161614372D+02
 CCSD(T)
 CCSD(T)= -0.33867063897D+02

 The electronic state is 1-A'.
 Alpha  occ. eigenvalues --   -1.44052  -1.27770  -0.79214  -0.75621  -0.57832
 Alpha  occ. eigenvalues --   -0.55829  -0.45478  -0.41885
 Alpha virt. eigenvalues --    0.16367   0.25334   0.29668   0.60411   0.73358
 Alpha virt. eigenvalues --    0.73701   0.86841   0.91023   0.93605   1.07071
 Alpha virt. eigenvalues --    1.12067   1.17722   1.26868   1.34561   2.90122

 Mulliken charges:
               1
     1  O   -0.747193
     2  H    0.359985
     3  H    0.309140
     4  O   -0.813722
     5  H    0.468446
     6  H    0.423344
 Sum of Mulliken charges =  -0.00000

 Dipole moment (field-independent basis, Debye):
    X=             -2.4273    Y=             -5.4519    Z=              0.0000  Tot=              5.9679
 Quadrupole moment (field-independent basis, Debye-Ang):
   XX=             -9.5814   YY=            -10.3945   ZZ=            -14.9588
   XY=             -3.3616   XZ=              0.0000   YZ=              0.0000

 \MP4DQ=-33.8609005\MP4SDQ=-33.8632252\CCSD=-33.8638792\CCSD(T)=-33.867
 Normal termination of Gaussian 16 at Sun Dec 10 06:22:12 2023.
