 Gaussian 16, Revision A.03,
 Gaussian 16:  ES64L-G16RevA.03 25-Dec-2016

 ------------------
 #p CCSD(T)/CEP-31G
 ------------------

 ------------
 H2O_H2O_1149
 ------------
 Symbolic Z-matrix:
 Charge =  0 Multiplicity = 1

                         Standard orientation:
 ---------------------------------------------------------------------
 Center     Atomic      Atomic             Coordinates (Angstroms)
 Number     Number       Type             X           Y           Z
 ---------------------------------------------------------------------
      1          8           0        0.013649   -1.549983    0.000000
      2          1           0        0.009066   -0.567392    0.000000
      3          1           0       -0.914347   -1.872982    0.000000
      4          8           0        0.013649    1.390766    0.000000
      5          1           0        0.996240    1.395348    0.000000
      6          1           0       -0.309349    2.318762    0.000000
 ---------------------------------------------------------------------

 SCF Done:  E(RHF) =  -33.6611049736     A.U. after   11 cycles
 E2 =    -0.2286732868D+00 EUMP2 =    -0.33889778260359D+02
 CCSD(T)
 CCSD(T)= -0.33906504006D+02

 The electronic state is 1-A'.
 Alpha  occ. eigenvalues --   -1.38603  -1.32122  -0.74556  -0.68218  -0.59122
 Alpha  occ. eigenvalues --   -0.53261  -0.51795  -0.46807
 Alpha virt. eigenvalues --    0.17614   0.26013   0.28117   0.42487   0.75896
 Alpha virt. eigenvalues --    0.79069   0.85420   0.86340   0.90095   1.10557
 Alpha virt. eigenvalues --    1.16525   1.18802   1.22754   1.37266   2.52309

 Mulliken charges:
               1
     1  O   -0.780402
     2  H    0.410139
     3  H    0.362708
     4  O   -0.800406
     5  H    0.392526
     6  H    0.415434
 Sum of Mulliken charges =  -0.00000

 Dipole moment (field-independent basis, Debye):
    X=             -0.6113    Y=              4.1643    Z=              0.0000  Tot=              4.2089
 Quadrupole moment (field-independent basis, Debye-Ang):
   XX=             -9.8412   YY=             -8.8331   ZZ=            -15.0106
   XY=              5.4960   XZ=              0.0000   YZ=              0.0000

 25\MP4DQ=-33.900651\MP4SDQ=-33.9027952\CCSD=-33.903773\CCSD(T)=-33.906
 Normal termination of Gaussian 16 at Sun Dec 10 06:40:08 2023.
