 Gaussian 16, Revision A.03,
 Gaussian 16:  ES64L-G16RevA.03 25-Dec-2016

 ------------------
 #p CCSD(T)/CEP-31G
 ------------------

 ------------
 H2O_H2O_4606
 ------------
 Symbolic Z-matrix:
 Charge =  0 Multiplicity = 1

                         Standard orientation:
 ---------------------------------------------------------------------
 Center     Atomic      Atomic             Coordinates (Angstroms)
 Number     Number       Type             X           Y           Z
 ---------------------------------------------------------------------
      1          8           0        0.076748    2.938242    0.000000
      2          1           0        0.076267    1.955640    0.000000
      3          1           0       -0.852589    3.257363    0.000000
      4          8           0        0.076748   -2.775013   -0.000000
      5          1           0        0.452329   -3.683004   -0.000000
      6          1           0       -0.903970   -2.835826   -0.000000
 ---------------------------------------------------------------------

 SCF Done:  E(RHF) =  -33.6526208039     A.U. after   11 cycles
 E2 =    -0.2283312460D+00 EUMP2 =    -0.33880952049891D+02
 CCSD(T)
 CCSD(T)= -0.33897929144D+02

 The electronic state is 1-A'.
 Alpha  occ. eigenvalues --   -1.36260  -1.34887  -0.71904  -0.70509  -0.56044
 Alpha  occ. eigenvalues --   -0.54643  -0.50843  -0.49469
 Alpha virt. eigenvalues --    0.19534   0.20982   0.29802   0.31242   0.79715
 Alpha virt. eigenvalues --    0.81061   0.82634   0.84067   0.85750   0.87220
 Alpha virt. eigenvalues --    1.16679   1.18050   1.21123   1.22560   2.56661

 Mulliken charges:
               1
     1  O   -0.744411
     2  H    0.376985
     3  H    0.367420
     4  O   -0.744406
     5  H    0.374508
     6  H    0.369904
 Sum of Mulliken charges =   0.00000

 Dipole moment (field-independent basis, Debye):
    X=             -3.5292    Y=             -3.8282    Z=             -0.0000  Tot=              5.2068
 Quadrupole moment (field-independent basis, Debye-Ang):
   XX=            -10.3165   YY=             -6.5977   ZZ=            -14.9901
   XY=             -4.4276   XZ=             -0.0000   YZ=              0.0000

 464\MP4DQ=-33.8922905\MP4SDQ=-33.8943161\CCSD=-33.8953697\CCSD(T)=-33.
 Normal termination of Gaussian 16 at Sun Dec 10 06:55:54 2023.
