 Gaussian 16, Revision A.03,
 Gaussian 16:  ES64L-G16RevA.03 25-Dec-2016

 ------------------
 #p CCSD(T)/CEP-31G
 ------------------

 ------------
 H2O_H2O_1659
 ------------
 Symbolic Z-matrix:
 Charge =  0 Multiplicity = 1

                         Standard orientation:
 ---------------------------------------------------------------------
 Center     Atomic      Atomic             Coordinates (Angstroms)
 Number     Number       Type             X           Y           Z
 ---------------------------------------------------------------------
      1          8           0        0.066790    1.766897   -0.000000
      2          1           0        0.065467    0.784297   -0.000000
      3          1           0       -0.862273    2.086815   -0.000000
      4          8           0        0.066790   -1.593839    0.000000
      5          1           0        0.611594   -2.411577    0.000000
      6          1           0       -0.883434   -1.843998    0.000000
 ---------------------------------------------------------------------

 SCF Done:  E(RHF) =  -33.6586061669     A.U. after   11 cycles
 E2 =    -0.2288032076D+00 EUMP2 =    -0.33887409374434D+02
 CCSD(T)
 CCSD(T)= -0.33904289043D+02

 The electronic state is 1-A'.
 Alpha  occ. eigenvalues --   -1.37786  -1.32888  -0.73476  -0.68580  -0.58063
 Alpha  occ. eigenvalues --   -0.52650  -0.52440  -0.47516
 Alpha virt. eigenvalues --    0.17737   0.24572   0.28611   0.37237   0.77537
 Alpha virt. eigenvalues --    0.81525   0.83622   0.85538   0.90283   0.96931
 Alpha virt. eigenvalues --    1.15203   1.19452   1.20812   1.35360   2.50404

 Mulliken charges:
               1
     1  O   -0.770407
     2  H    0.413557
     3  H    0.354762
     4  O   -0.771047
     5  H    0.395764
     6  H    0.377371
 Sum of Mulliken charges =  -0.00000

 Dipole moment (field-independent basis, Debye):
    X=             -2.9922    Y=             -4.3402    Z=              0.0000  Tot=              5.2716
 Quadrupole moment (field-independent basis, Debye-Ang):
   XX=             -9.8979   YY=             -8.0446   ZZ=            -15.0022
   XY=             -4.0583   XZ=              0.0000   YZ=             -0.0000

 21\MP4DQ=-33.8985187\MP4SDQ=-33.9006181\CCSD=-33.9016331\CCSD(T)=-33.9
 Normal termination of Gaussian 16 at Sun Dec 10 06:50:13 2023.
