 Gaussian 16, Revision A.03,
 Gaussian 16:  ES64L-G16RevA.03 25-Dec-2016

 ------------------
 #p CCSD(T)/CEP-31G
 ------------------

 ------------
 H2O_H2O_2698
 ------------
 Symbolic Z-matrix:
 Charge =  0 Multiplicity = 1

                         Standard orientation:
 ---------------------------------------------------------------------
 Center     Atomic      Atomic             Coordinates (Angstroms)
 Number     Number       Type             X           Y           Z
 ---------------------------------------------------------------------
      1          8           0       -0.016646    2.170497    0.000000
      2          1           0       -0.013546    1.187901    0.000000
      3          1           0        0.911836    2.492095    0.000000
      4          8           0       -0.016646   -2.007116    0.000000
      5          1           0       -0.996936   -2.074475    0.000000
      6          1           0        0.364988   -2.912577    0.000000
 ---------------------------------------------------------------------

 SCF Done:  E(RHF) =  -33.6560308110     A.U. after   11 cycles
 E2 =    -0.2283481122D+00 EUMP2 =    -0.33884378923206D+02
 CCSD(T)
 CCSD(T)= -0.33901283436D+02

 The electronic state is 1-A'.
 Alpha  occ. eigenvalues --   -1.36852  -1.34053  -0.72511  -0.69701  -0.56836
 Alpha  occ. eigenvalues --   -0.53909  -0.51481  -0.48693
 Alpha virt. eigenvalues --    0.18273   0.22656   0.29371   0.32625   0.79064
 Alpha virt. eigenvalues --    0.81811   0.82918   0.84517   0.86217   0.87808
 Alpha virt. eigenvalues --    1.16128   1.19485   1.20638   1.28362   2.55665

 Mulliken charges:
               1
     1  O   -0.758371
     2  H    0.388594
     3  H    0.368608
     4  O   -0.755567
     5  H    0.377703
     6  H    0.379033
 Sum of Mulliken charges =   0.00000

 Dipole moment (field-independent basis, Debye):
    X=              0.7549    Y=             -3.9244    Z=              0.0000  Tot=              3.9964
 Quadrupole moment (field-independent basis, Debye-Ang):
   XX=             -9.7639   YY=             -7.6417   ZZ=            -14.9966
   XY=              7.5913   XZ=              0.0000   YZ=              0.0000

 22\MP4DQ=-33.8956272\MP4SDQ=-33.8976741\CCSD=-33.8987086\CCSD(T)=-33.9
 Normal termination of Gaussian 16 at Sun Dec 10 06:21:34 2023.
