 Gaussian 16, Revision A.03,
 Gaussian 16:  ES64L-G16RevA.03 25-Dec-2016

 ------------------
 #p CCSD(T)/CEP-31G
 ------------------

 ------------
 H2O_H2O_3264
 ------------
 Symbolic Z-matrix:
 Charge =  0 Multiplicity = 1

                         Standard orientation:
 ---------------------------------------------------------------------
 Center     Atomic      Atomic             Coordinates (Angstroms)
 Number     Number       Type             X           Y           Z
 ---------------------------------------------------------------------
      1          8           0        0.048579    2.409085    0.000000
      2          1           0        0.046955    1.426485    0.000000
      3          1           0       -0.880386    2.729287    0.000000
      4          8           0        0.048579   -2.228692    0.000000
      5          1           0        0.827140   -2.828150    0.000000
      6          1           0       -0.770973   -2.770763    0.000000
 ---------------------------------------------------------------------

 SCF Done:  E(RHF) =  -33.6547380251     A.U. after   11 cycles
 E2 =    -0.2283068286D+00 EUMP2 =    -0.33883044853659D+02
 CCSD(T)
 CCSD(T)= -0.33899963242D+02

 The electronic state is 1-A'.
 Alpha  occ. eigenvalues --   -1.36605  -1.34156  -0.72250  -0.69778  -0.56513
 Alpha  occ. eigenvalues --   -0.53971  -0.51219  -0.48770
 Alpha virt. eigenvalues --    0.19052   0.22017   0.29575   0.32173   0.79348
 Alpha virt. eigenvalues --    0.81717   0.82295   0.84731   0.85343   0.87895
 Alpha virt. eigenvalues --    1.16420   1.19038   1.20848   1.24502   2.56303

 Mulliken charges:
               1
     1  O   -0.752640
     2  H    0.386199
     3  H    0.365949
     4  O   -0.750942
     5  H    0.377612
     6  H    0.373822
 Sum of Mulliken charges =   0.00000

 Dipole moment (field-independent basis, Debye):
    X=             -2.2185    Y=             -4.2888    Z=              0.0000  Tot=              4.8286
 Quadrupole moment (field-independent basis, Debye-Ang):
   XX=             -9.4600   YY=             -6.2272   ZZ=            -14.9945
   XY=             -6.1214   XZ=              0.0000   YZ=              0.0000

 752\MP4DQ=-33.8943279\MP4SDQ=-33.8963587\CCSD=-33.8974018\CCSD(T)=-33.
 Normal termination of Gaussian 16 at Sun Dec 10 06:31:49 2023.
