 Gaussian 16, Revision A.03,
 Gaussian 16:  ES64L-G16RevA.03 25-Dec-2016

 ------------------
 #p CCSD(T)/CEP-31G
 ------------------

 ------------
 H2O_H2O_1775
 ------------
 Symbolic Z-matrix:
 Charge =  0 Multiplicity = 1

                         Standard orientation:
 ---------------------------------------------------------------------
 Center     Atomic      Atomic             Coordinates (Angstroms)
 Number     Number       Type             X           Y           Z
 ---------------------------------------------------------------------
      1          8           0        0.092949   -1.794879    0.000000
      2          1           0        0.092949   -0.812278    0.000000
      3          1           0       -0.836544   -2.113545    0.000000
      4          8           0        0.092949    1.662092    0.000000
      5          1           0        0.092949    2.644693    0.000000
      6          1           0       -0.836544    1.343425    0.000000
 ---------------------------------------------------------------------

 SCF Done:  E(RHF) =  -33.6528741474     A.U. after   11 cycles
 E2 =    -0.2289731120D+00 EUMP2 =    -0.33881847259426D+02
 CCSD(T)
 CCSD(T)= -0.33898916048D+02

 The electronic state is 1-A'.
 Alpha  occ. eigenvalues --   -1.37760  -1.34393  -0.73640  -0.69858  -0.57619
 Alpha  occ. eigenvalues --   -0.54065  -0.52313  -0.48938
 Alpha virt. eigenvalues --    0.16514   0.23875   0.28461   0.35156   0.77664
 Alpha virt. eigenvalues --    0.82121   0.82339   0.84477   0.88111   0.98279
 Alpha virt. eigenvalues --    1.15439   1.17737   1.21261   1.38713   2.53323

 Mulliken charges:
               1
     1  O   -0.749223
     2  H    0.389053
     3  H    0.357001
     4  O   -0.750469
     5  H    0.390615
     6  H    0.363023
 Sum of Mulliken charges =  -0.00000

 Dipole moment (field-independent basis, Debye):
    X=             -4.2007    Y=              3.3140    Z=              0.0000  Tot=              5.3505
 Quadrupole moment (field-independent basis, Debye-Ang):
   XX=            -11.3242   YY=             -9.5605   ZZ=            -14.9871
   XY=              2.2720   XZ=              0.0000   YZ=              0.0000

 3936\MP4DQ=-33.8931111\MP4SDQ=-33.8952417\CCSD=-33.8962582\CCSD(T)=-33
 Normal termination of Gaussian 16 at Sun Dec 10 06:52:23 2023.
