 Gaussian 16, Revision A.03,
 Gaussian 16:  ES64L-G16RevA.03 25-Dec-2016

 ------------------
 #p CCSD(T)/CEP-31G
 ------------------

 ----------
 H2O_H2O_63
 ----------
 Symbolic Z-matrix:
 Charge =  0 Multiplicity = 1

                         Standard orientation:
 ---------------------------------------------------------------------
 Center     Atomic      Atomic             Coordinates (Angstroms)
 Number     Number       Type             X           Y           Z
 ---------------------------------------------------------------------
      1          8           0        0.052462    1.132313    0.000000
      2          1           0        0.049152    0.149717    0.000000
      3          1           0       -0.875952    1.454108    0.000000
      4          8           0        0.052462   -0.952612   -0.000000
      5          1           0        0.789034   -1.602971   -0.000000
      6          1           0       -0.801624   -1.438456   -0.000000
 ---------------------------------------------------------------------

 SCF Done:  E(RHF) =  -33.5952560095     A.U. after   11 cycles
 E2 =    -0.2275505115D+00 EUMP2 =    -0.33822806520988D+02
 CCSD(T)
 CCSD(T)= -0.33837278104D+02

 The electronic state is 1-A'.
 Alpha  occ. eigenvalues --   -1.46248  -1.26546  -0.80681  -0.78870  -0.59291
 Alpha  occ. eigenvalues --   -0.54130  -0.43285  -0.40405
 Alpha virt. eigenvalues --    0.16083   0.24811   0.30523   0.62300   0.73191
 Alpha virt. eigenvalues --    0.73539   0.85584   0.91968   0.92111   1.08352
 Alpha virt. eigenvalues --    1.12377   1.16054   1.30146   1.35551   2.98289

 Mulliken charges:
               1
     1  O   -0.741813
     2  H    0.296082
     3  H    0.299507
     4  O   -0.763600
     5  H    0.468368
     6  H    0.441456
 Sum of Mulliken charges =  -0.00000

 Dipole moment (field-independent basis, Debye):
    X=             -2.0993    Y=             -5.7961    Z=             -0.0000  Tot=              6.1646
 Quadrupole moment (field-independent basis, Debye-Ang):
   XX=             -9.3792   YY=            -10.8088   ZZ=            -14.9197
   XY=             -3.2545   XZ=             -0.0000   YZ=              0.0000

 7\MP4DQ=-33.8310425\MP4SDQ=-33.8334323\CCSD=-33.8340017\CCSD(T)=-33.83
 Normal termination of Gaussian 16 at Sun Dec 10 06:19:16 2023.
