 Gaussian 16, Revision A.03,
 Gaussian 16:  ES64L-G16RevA.03 25-Dec-2016

 ------------------
 #p CCSD(T)/CEP-31G
 ------------------

 ------------
 H2O_H2O_1300
 ------------
 Symbolic Z-matrix:
 Charge =  0 Multiplicity = 1

                         Standard orientation:
 ---------------------------------------------------------------------
 Center     Atomic      Atomic             Coordinates (Angstroms)
 Number     Number       Type             X           Y           Z
 ---------------------------------------------------------------------
      1          8           0        0.092949   -1.605412    0.000000
      2          1           0        0.092949   -0.622811    0.000000
      3          1           0       -0.836544   -1.924079    0.000000
      4          8           0        0.092949    1.472625    0.000000
      5          1           0        0.092949    2.455227    0.000000
      6          1           0       -0.836544    1.153958    0.000000
 ---------------------------------------------------------------------

 SCF Done:  E(RHF) =  -33.6519630537     A.U. after   11 cycles
 E2 =    -0.2292798287D+00 EUMP2 =    -0.33881242882431D+02
 CCSD(T)
 CCSD(T)= -0.33898310743D+02

 The electronic state is 1-A'.
 Alpha  occ. eigenvalues --   -1.38539  -1.33936  -0.74770  -0.69277  -0.58382
 Alpha  occ. eigenvalues --   -0.53522  -0.53037  -0.48444
 Alpha virt. eigenvalues --    0.16523   0.24660   0.27979   0.39088   0.76179
 Alpha virt. eigenvalues --    0.80805   0.83836   0.84577   0.89348   1.10127
 Alpha virt. eigenvalues --    1.15746   1.18175   1.22465   1.39789   2.50630

 Mulliken charges:
               1
     1  O   -0.746460
     2  H    0.386648
     3  H    0.351087
     4  O   -0.757703
     5  H    0.403981
     6  H    0.362447
 Sum of Mulliken charges =   0.00000

 Dipole moment (field-independent basis, Debye):
    X=             -4.1584    Y=              3.4422    Z=              0.0000  Tot=              5.3983
 Quadrupole moment (field-independent basis, Debye-Ang):
   XX=            -11.3458   YY=             -9.5913   ZZ=            -14.9868
   XY=              2.2495   XZ=              0.0000   YZ=              0.0000

 7008\MP4DQ=-33.8923887\MP4SDQ=-33.8945892\CCSD=-33.8955758\CCSD(T)=-33
 Normal termination of Gaussian 16 at Sun Dec 10 06:43:06 2023.
