 Gaussian 16, Revision A.03,
 Gaussian 16:  ES64L-G16RevA.03 25-Dec-2016

 ------------------
 #p CCSD(T)/CEP-31G
 ------------------

 ------------
 H2O_H2O_4742
 ------------
 Symbolic Z-matrix:
 Charge =  0 Multiplicity = 1

                         Standard orientation:
 ---------------------------------------------------------------------
 Center     Atomic      Atomic             Coordinates (Angstroms)
 Number     Number       Type             X           Y           Z
 ---------------------------------------------------------------------
      1          8           0        0.037404    2.996671   -0.000000
      2          1           0        0.035784    2.014071   -0.000000
      3          1           0       -0.891562    3.316870   -0.000000
      4          8           0        0.037404   -2.817672    0.000000
      5          1           0        0.917955   -3.253718    0.000000
      6          1           0       -0.660645   -3.509216    0.000000
 ---------------------------------------------------------------------

 SCF Done:  E(RHF) =  -33.6532379816     A.U. after   11 cycles
 E2 =    -0.2283011642D+00 EUMP2 =    -0.33881539145803D+02
 CCSD(T)
 CCSD(T)= -0.33898498617D+02

 The electronic state is 1-A'.
 Alpha  occ. eigenvalues --   -1.36209  -1.34731  -0.71847  -0.70363  -0.56026
 Alpha  occ. eigenvalues --   -0.54514  -0.50802  -0.49326
 Alpha virt. eigenvalues --    0.19637   0.21159   0.29891   0.31438   0.79749
 Alpha virt. eigenvalues --    0.81194   0.82620   0.84182   0.85800   0.87289
 Alpha virt. eigenvalues --    1.16756   1.18234   1.21200   1.22725   2.56730

 Mulliken charges:
               1
     1  O   -0.746762
     2  H    0.377923
     3  H    0.368834
     4  O   -0.746257
     5  H    0.373821
     6  H    0.372441
 Sum of Mulliken charges =   0.00000

 Dipole moment (field-independent basis, Debye):
    X=             -1.7188    Y=             -4.1917    Z=              0.0000  Tot=              4.5304
 Quadrupole moment (field-independent basis, Debye-Ang):
   XX=             -9.4168   YY=             -5.0133   ZZ=            -14.9915
   XY=             -8.3881   XZ=              0.0000   YZ=             -0.0000

 78\MP4DQ=-33.8928649\MP4SDQ=-33.8948888\CCSD=-33.8959414\CCSD(T)=-33.8
 Normal termination of Gaussian 16 at Sun Dec 10 06:58:22 2023.
