 Gaussian 16, Revision A.03,
 Gaussian 16:  ES64L-G16RevA.03 25-Dec-2016

 ------------------
 #p CCSD(T)/CEP-31G
 ------------------

 ------------
 H2O_H2O_3407
 ------------
 Symbolic Z-matrix:
 Charge =  0 Multiplicity = 1

                         Standard orientation:
 ---------------------------------------------------------------------
 Center     Atomic      Atomic             Coordinates (Angstroms)
 Number     Number       Type             X           Y           Z
 ---------------------------------------------------------------------
      1          8           0        0.073533    2.461610   -0.000000
      2          1           0        0.072840    1.479008   -0.000000
      3          1           0       -0.855735    2.780931   -0.000000
      4          8           0        0.073533   -2.294663    0.000000
      5          1           0        0.507505   -3.176237    0.000000
      6          1           0       -0.901135   -2.419277    0.000000
 ---------------------------------------------------------------------

 SCF Done:  E(RHF) =  -33.6535886649     A.U. after   11 cycles
 E2 =    -0.2283333162D+00 EUMP2 =    -0.33881921981068D+02
 CCSD(T)
 CCSD(T)= -0.33898872641D+02

 The electronic state is 1-A'.
 Alpha  occ. eigenvalues --   -1.36577  -1.34474  -0.72229  -0.70084  -0.56419
 Alpha  occ. eigenvalues --   -0.54249  -0.51172  -0.49067
 Alpha virt. eigenvalues --    0.18959   0.21671   0.29493   0.31822   0.79399
 Alpha virt. eigenvalues --    0.81442   0.82273   0.84481   0.85363   0.87743
 Alpha virt. eigenvalues --    1.16380   1.18648   1.20776   1.24041   2.56391

 Mulliken charges:
               1
     1  O   -0.748206
     2  H    0.382804
     3  H    0.365118
     4  O   -0.747840
     5  H    0.377568
     6  H    0.370555
 Sum of Mulliken charges =   0.00000

 Dipole moment (field-independent basis, Debye):
    X=             -3.3658    Y=             -3.9616    Z=              0.0000  Tot=              5.1984
 Quadrupole moment (field-independent basis, Debye-Ang):
   XX=            -10.1700   YY=             -7.0138   ZZ=            -14.9919
   XY=             -4.3497   XZ=              0.0000   YZ=             -0.0000

 851\MP4DQ=-33.8932326\MP4SDQ=-33.8952626\CCSD=-33.8963098\CCSD(T)=-33.
 Normal termination of Gaussian 16 at Sun Dec 10 06:34:21 2023.
