 Gaussian 16, Revision A.03,
 Gaussian 16:  ES64L-G16RevA.03 25-Dec-2016

 ------------------
 #p CCSD(T)/CEP-31G
 ------------------

 ------------
 H2O_H2O_3522
 ------------
 Symbolic Z-matrix:
 Charge =  0 Multiplicity = 1

                         Standard orientation:
 ---------------------------------------------------------------------
 Center     Atomic      Atomic             Coordinates (Angstroms)
 Number     Number       Type             X           Y           Z
 ---------------------------------------------------------------------
      1          8           0       -0.019846    2.501594    0.000000
      2          1           0       -0.017281    1.518996    0.000000
      3          1           0        0.908812    2.822686    0.000000
      4          8           0       -0.019846   -2.334483    0.000000
      5          1           0       -0.993703   -2.465281    0.000000
      6          1           0        0.419713   -3.213286    0.000000
 ---------------------------------------------------------------------

 SCF Done:  E(RHF) =  -33.6544558092     A.U. after   11 cycles
 E2 =    -0.2282746738D+00 EUMP2 =    -0.33882730482986D+02
 CCSD(T)
 CCSD(T)= -0.33899658003D+02

 The electronic state is 1-A'.
 Alpha  occ. eigenvalues --   -1.36494  -1.34445  -0.72139  -0.70085  -0.56380
 Alpha  occ. eigenvalues --   -0.54266  -0.51103  -0.49061
 Alpha virt. eigenvalues --    0.19154   0.21689   0.29639   0.31870   0.79457
 Alpha virt. eigenvalues --    0.81436   0.82231   0.84374   0.85492   0.87574
 Alpha virt. eigenvalues --    1.16505   1.18698   1.20899   1.23835   2.56476

 Mulliken charges:
               1
     1  O   -0.751535
     2  H    0.382187
     3  H    0.369124
     4  O   -0.750556
     5  H    0.375242
     6  H    0.375538
 Sum of Mulliken charges =  -0.00000

 Dipole moment (field-independent basis, Debye):
    X=              0.9071    Y=             -3.9517    Z=              0.0000  Tot=              4.0545
 Quadrupole moment (field-independent basis, Debye-Ang):
   XX=             -9.6764   YY=             -6.9029   ZZ=            -14.9938
   XY=              8.4791   XZ=              0.0000   YZ=              0.0000

 742\MP4DQ=-33.8940261\MP4SDQ=-33.8960523\CCSD=-33.897099\CCSD(T)=-33.8
 Normal termination of Gaussian 16 at Sun Dec 10 06:36:24 2023.
