 Gaussian 16, Revision A.03,
 Gaussian 16:  ES64L-G16RevA.03 25-Dec-2016

 ------------------
 #p CCSD(T)/CEP-31G
 ------------------

 ------------
 H2O_H2O_2821
 ------------
 Symbolic Z-matrix:
 Charge =  0 Multiplicity = 1

                         Standard orientation:
 ---------------------------------------------------------------------
 Center     Atomic      Atomic             Coordinates (Angstroms)
 Number     Number       Type             X           Y           Z
 ---------------------------------------------------------------------
      1          8           0       -0.023223    2.224157    0.000000
      2          1           0       -0.020455    1.241559    0.000000
      3          1           0        0.905369    2.545439    0.000000
      4          8           0       -0.023223   -2.053777    0.000000
      5          1           0       -0.986400   -2.248186    0.000000
      6          1           0        0.473046   -2.901847    0.000000
 ---------------------------------------------------------------------

 SCF Done:  E(RHF) =  -33.6558753027     A.U. after   11 cycles
 E2 =    -0.2283312036D+00 EUMP2 =    -0.33884206506312D+02
 CCSD(T)
 CCSD(T)= -0.33901107119D+02

 The electronic state is 1-A'.
 Alpha  occ. eigenvalues --   -1.36790  -1.34013  -0.72441  -0.69653  -0.56764
 Alpha  occ. eigenvalues --   -0.53863  -0.51419  -0.48648
 Alpha virt. eigenvalues --    0.18552   0.22494   0.29415   0.32562   0.79139
 Alpha virt. eigenvalues --    0.81840   0.82853   0.84477   0.85812   0.87893
 Alpha virt. eigenvalues --    1.16237   1.19430   1.20671   1.27136   2.55737

 Mulliken charges:
               1
     1  O   -0.757496
     2  H    0.388757
     3  H    0.367698
     4  O   -0.754653
     5  H    0.377902
     6  H    0.377792
 Sum of Mulliken charges =   0.00000

 Dipole moment (field-independent basis, Debye):
    X=              1.0551    Y=             -4.0830    Z=              0.0000  Tot=              4.2171
 Quadrupole moment (field-independent basis, Debye-Ang):
   XX=             -9.5895   YY=             -7.1700   ZZ=            -14.9965
   XY=              7.3006   XZ=              0.0000   YZ=              0.0000

 7033\MP4DQ=-33.8954588\MP4SDQ=-33.8975008\CCSD=-33.8985369\CCSD(T)=-33
 Normal termination of Gaussian 16 at Sun Dec 10 06:23:46 2023.
