 Gaussian 16, Revision A.03,
 Gaussian 16:  ES64L-G16RevA.03 25-Dec-2016

 ------------------
 #p CCSD(T)/CEP-31G
 ------------------

 ------------
 H2O_H2O_2222
 ------------
 Symbolic Z-matrix:
 Charge =  0 Multiplicity = 1

                         Standard orientation:
 ---------------------------------------------------------------------
 Center     Atomic      Atomic             Coordinates (Angstroms)
 Number     Number       Type             X           Y           Z
 ---------------------------------------------------------------------
      1          8           0       -0.019906    1.983042    0.000000
      2          1           0       -0.016641    1.000446    0.000000
      3          1           0        0.908523    2.304795    0.000000
      4          8           0       -0.019906   -1.815959    0.000000
      5          1           0       -0.993670   -1.947451    0.000000
      6          1           0        0.420279   -2.694448    0.000000
 ---------------------------------------------------------------------

 SCF Done:  E(RHF) =  -33.6576443751     A.U. after   11 cycles
 E2 =    -0.2284658449D+00 EUMP2 =    -0.33886110219997D+02
 CCSD(T)
 CCSD(T)= -0.33903004312D+02

 The electronic state is 1-A'.
 Alpha  occ. eigenvalues --   -1.37166  -1.33582  -0.72834  -0.69241  -0.57282
 Alpha  occ. eigenvalues --   -0.53452  -0.51814  -0.48241
 Alpha virt. eigenvalues --    0.18016   0.23511   0.29178   0.33966   0.78606
 Alpha virt. eigenvalues --    0.82379   0.82847   0.85521   0.87788   0.89454
 Alpha virt. eigenvalues --    1.15879   1.19906   1.20531   1.32639   2.53750

 Mulliken charges:
               1
     1  O   -0.765932
     2  H    0.397036
     3  H    0.366791
     4  O   -0.761246
     5  H    0.380775
     6  H    0.382576
 Sum of Mulliken charges =  -0.00000

 Dipole moment (field-independent basis, Debye):
    X=              0.8978    Y=             -4.0749    Z=              0.0000  Tot=              4.1727
 Quadrupole moment (field-independent basis, Debye-Ang):
   XX=             -9.6650   YY=             -7.7674   ZZ=            -14.9997
   XY=              6.7165   XZ=              0.0000   YZ=              0.0000

 5584\MP4DQ=-33.8973107\MP4SDQ=-33.8993801\CCSD=-33.9004064\CCSD(T)=-33
 Normal termination of Gaussian 16 at Sun Dec 10 07:01:14 2023.
