 Gaussian 16, Revision A.03,
 Gaussian 16:  ES64L-G16RevA.03 25-Dec-2016

 ------------------
 #p CCSD(T)/CEP-31G
 ------------------

 ------------
 H2O_H2O_2475
 ------------
 Symbolic Z-matrix:
 Charge =  0 Multiplicity = 1

                         Standard orientation:
 ---------------------------------------------------------------------
 Center     Atomic      Atomic             Coordinates (Angstroms)
 Number     Number       Type             X           Y           Z
 ---------------------------------------------------------------------
      1          8           0        0.092949   -2.074093    0.000000
      2          1           0        0.092949   -1.091491    0.000000
      3          1           0       -0.836544   -2.392759    0.000000
      4          8           0        0.092949    1.941306    0.000000
      5          1           0        0.092949    2.923907    0.000000
      6          1           0       -0.836544    1.622639    0.000000
 ---------------------------------------------------------------------

 SCF Done:  E(RHF) =  -33.6525675896     A.U. after   11 cycles
 E2 =    -0.2285860672D+00 EUMP2 =    -0.33881153656794D+02
 CCSD(T)
 CCSD(T)= -0.33898168689D+02

 The electronic state is 1-A'.
 Alpha  occ. eigenvalues --   -1.37105  -1.34758  -0.72819  -0.70319  -0.56908
 Alpha  occ. eigenvalues --   -0.54472  -0.51674  -0.49320
 Alpha virt. eigenvalues --    0.16798   0.22750   0.28984   0.32341   0.78839
 Alpha virt. eigenvalues --    0.81324   0.82793   0.84243   0.87270   0.87898
 Alpha virt. eigenvalues --    1.15432   1.18663   1.20503   1.31041   2.56016

 Mulliken charges:
               1
     1  O   -0.745454
     2  H    0.382457
     3  H    0.361998
     4  O   -0.745436
     5  H    0.381804
     6  H    0.364632
 Sum of Mulliken charges =   0.00000

 Dipole moment (field-independent basis, Debye):
    X=             -4.2364    Y=              3.2142    Z=              0.0000  Tot=              5.3177
 Quadrupole moment (field-independent basis, Debye-Ang):
   XX=            -11.3043   YY=             -9.5701   ZZ=            -14.9877
   XY=              2.2885   XZ=              0.0000   YZ=              0.0000

 735\MP4DQ=-33.8924708\MP4SDQ=-33.8945362\CCSD=-33.8955725\CCSD(T)=-33.
 Normal termination of Gaussian 16 at Sun Dec 10 07:07:01 2023.
