 Gaussian 16, Revision A.03,
 Gaussian 16:  ES64L-G16RevA.03 25-Dec-2016

 ------------------
 #p CCSD(T)/CEP-31G
 ------------------

 ------------
 H2O_H2O_1528
 ------------
 Symbolic Z-matrix:
 Charge =  0 Multiplicity = 1

                         Standard orientation:
 ---------------------------------------------------------------------
 Center     Atomic      Atomic             Coordinates (Angstroms)
 Number     Number       Type             X           Y           Z
 ---------------------------------------------------------------------
      1          8           0        0.085609   -1.704281    0.000000
      2          1           0        0.085226   -0.721679    0.000000
      3          1           0       -0.843760   -2.023309    0.000000
      4          8           0        0.085609    1.554703    0.000000
      5          1           0        0.276930    2.518498    0.000000
      6          1           0       -0.888142    1.423115    0.000000
 ---------------------------------------------------------------------

 SCF Done:  E(RHF) =  -33.6552472075     A.U. after   11 cycles
 E2 =    -0.2289681015D+00 EUMP2 =    -0.33884215308987D+02
 CCSD(T)
 CCSD(T)= -0.33901225165D+02

 The electronic state is 1-A'.
 Alpha  occ. eigenvalues --   -1.38054  -1.33568  -0.73929  -0.69125  -0.58091
 Alpha  occ. eigenvalues --   -0.53239  -0.52634  -0.48135
 Alpha virt. eigenvalues --    0.16983   0.24500   0.28250   0.37370   0.77065
 Alpha virt. eigenvalues --    0.81262   0.83432   0.84945   0.89515   1.04131
 Alpha virt. eigenvalues --    1.15198   1.17747   1.21475   1.39340   2.50951

 Mulliken charges:
               1
     1  O   -0.758187
     2  H    0.401023
     3  H    0.353028
     4  O   -0.764669
     5  H    0.399746
     6  H    0.369059
 Sum of Mulliken charges =   0.00000

 Dipole moment (field-independent basis, Debye):
    X=             -3.8442    Y=              3.7972    Z=              0.0000  Tot=              5.4033
 Quadrupole moment (field-independent basis, Debye-Ang):
   XX=            -10.8434   YY=             -8.8982   ZZ=            -14.9937
   XY=              2.9073   XZ=              0.0000   YZ=              0.0000

 676\MP4DQ=-33.8953899\MP4SDQ=-33.8975345\CCSD=-33.8985456\CCSD(T)=-33.
 Normal termination of Gaussian 16 at Sun Dec 10 06:47:38 2023.
