 Gaussian 16, Revision A.03,
 Gaussian 16:  ES64L-G16RevA.03 25-Dec-2016

 ------------------
 #p CCSD(T)/CEP-31G
 ------------------

 ------------
 H2O_H2O_1658
 ------------
 Symbolic Z-matrix:
 Charge =  0 Multiplicity = 1

                         Standard orientation:
 ---------------------------------------------------------------------
 Center     Atomic      Atomic             Coordinates (Angstroms)
 Number     Number       Type             X           Y           Z
 ---------------------------------------------------------------------
      1          8           0        0.070224    1.765346    0.000000
      2          1           0        0.069075    0.782745    0.000000
      3          1           0       -0.858896    2.085099    0.000000
      4          8           0        0.070224   -1.595143   -0.000000
      5          1           0        0.560530   -2.446675   -0.000000
      6          1           0       -0.894294   -1.782789   -0.000000
 ---------------------------------------------------------------------

 SCF Done:  E(RHF) =  -33.6581306064     A.U. after   11 cycles
 E2 =    -0.2288104138D+00 EUMP2 =    -0.33886941020222D+02
 CCSD(T)
 CCSD(T)= -0.33903841471D+02

 The electronic state is 1-A'.
 Alpha  occ. eigenvalues --   -1.37798  -1.32991  -0.73505  -0.68665  -0.58037
 Alpha  occ. eigenvalues --   -0.52742  -0.52441  -0.47612
 Alpha virt. eigenvalues --    0.17647   0.24520   0.28576   0.37105   0.77525
 Alpha virt. eigenvalues --    0.81539   0.83550   0.85448   0.90131   0.97677
 Alpha virt. eigenvalues --    1.15166   1.19248   1.20868   1.35949   2.50553

 Mulliken charges:
               1
     1  O   -0.768656
     2  H    0.411894
     3  H    0.354523
     4  O   -0.770079
     5  H    0.396230
     6  H    0.376087
 Sum of Mulliken charges =  -0.00000

 Dipole moment (field-independent basis, Debye):
    X=             -3.1484    Y=             -4.2716    Z=             -0.0000  Tot=              5.3065
 Quadrupole moment (field-independent basis, Debye-Ang):
   XX=            -10.0345   YY=             -8.1280   ZZ=            -15.0010
   XY=             -3.8911   XZ=             -0.0000   YZ=              0.0000

 \MP4DQ=-33.898065\MP4SDQ=-33.9001694\CCSD=-33.9011851\CCSD(T)=-33.9038
 Normal termination of Gaussian 16 at Sun Dec 10 06:50:12 2023.
