 Gaussian 16, Revision A.03,
 Gaussian 16:  ES64L-G16RevA.03 25-Dec-2016

 ------------------
 #p CCSD(T)/CEP-31G
 ------------------

 ------------
 H2O_H2O_3585
 ------------
 Symbolic Z-matrix:
 Charge =  0 Multiplicity = 1

                         Standard orientation:
 ---------------------------------------------------------------------
 Center     Atomic      Atomic             Coordinates (Angstroms)
 Number     Number       Type             X           Y           Z
 ---------------------------------------------------------------------
      1          8           0        0.063229    2.536070   -0.000000
      2          1           0        0.062198    1.553469   -0.000000
      3          1           0       -0.865930    2.855711   -0.000000
      4          8           0        0.063229   -2.360551    0.000000
      5          1           0        0.660582   -3.140728    0.000000
      6          1           0       -0.868507   -2.672599    0.000000
 ---------------------------------------------------------------------

 SCF Done:  E(RHF) =  -33.6538246996     A.U. after   11 cycles
 E2 =    -0.2283095016D+00 EUMP2 =    -0.33882134201218D+02
 CCSD(T)
 CCSD(T)= -0.33899076742D+02

 The electronic state is 1-A'.
 Alpha  occ. eigenvalues --   -1.36501  -1.34409  -0.72147  -0.70027  -0.56356
 Alpha  occ. eigenvalues --   -0.54197  -0.51101  -0.49009
 Alpha virt. eigenvalues --    0.19201   0.21646   0.29607   0.31868   0.79464
 Alpha virt. eigenvalues --    0.81495   0.82259   0.84536   0.85438   0.87709
 Alpha virt. eigenvalues --    1.16486   1.18657   1.20891   1.23644   2.56464

 Mulliken charges:
               1
     1  O   -0.749076
     2  H    0.382963
     3  H    0.365907
     4  O   -0.748374
     5  H    0.376856
     6  H    0.371724
 Sum of Mulliken charges =   0.00000

 Dipole moment (field-independent basis, Debye):
    X=             -2.8949    Y=             -4.1536    Z=              0.0000  Tot=              5.0629
 Quadrupole moment (field-independent basis, Debye-Ang):
   XX=             -9.7763   YY=             -6.2810   ZZ=            -14.9926
   XY=             -5.2800   XZ=              0.0000   YZ=             -0.0000

 928\MP4DQ=-33.8934418\MP4SDQ=-33.8954689\CCSD=-33.8965168\CCSD(T)=-33.
 Normal termination of Gaussian 16 at Sun Dec 10 06:37:31 2023.
