 Gaussian 16, Revision A.03,
 Gaussian 16:  ES64L-G16RevA.03 25-Dec-2016

 ------------------
 #p CCSD(T)/CEP-31G
 ------------------

 -----------
 H2O_H2O_698
 -----------
 Symbolic Z-matrix:
 Charge =  0 Multiplicity = 1

                         Standard orientation:
 ---------------------------------------------------------------------
 Center     Atomic      Atomic             Coordinates (Angstroms)
 Number     Number       Type             X           Y           Z
 ---------------------------------------------------------------------
      1          8           0        0.016806   -1.372717    0.000000
      2          1           0        0.011789   -0.390128    0.000000
      3          1           0       -0.911049   -1.696124    0.000000
      4          8           0        0.016806    1.209400    0.000000
      5          1           0        0.996963    1.278670    0.000000
      6          1           0       -0.366594    2.114116    0.000000
 ---------------------------------------------------------------------

 SCF Done:  E(RHF) =  -33.6574332571     A.U. after   11 cycles
 E2 =    -0.2284025054D+00 EUMP2 =    -0.33885835762490D+02
 CCSD(T)
 CCSD(T)= -0.33902030501D+02

 The electronic state is 1-A'.
 Alpha  occ. eigenvalues --   -1.40143  -1.30523  -0.76373  -0.68711  -0.59543
 Alpha  occ. eigenvalues --   -0.54690  -0.49708  -0.45131
 Alpha virt. eigenvalues --    0.17446   0.26856   0.27769   0.50253   0.74410
 Alpha virt. eigenvalues --    0.76697   0.86718   0.87924   0.92719   1.07140
 Alpha virt. eigenvalues --    1.15490   1.22107   1.26875   1.37766   2.62396

 Mulliken charges:
               1
     1  O   -0.772284
     2  H    0.398549
     3  H    0.353054
     4  O   -0.830800
     5  H    0.406682
     6  H    0.444799
 Sum of Mulliken charges =  -0.00000

 Dipole moment (field-independent basis, Debye):
    X=             -0.7530    Y=              4.5476    Z=              0.0000  Tot=              4.6096
 Quadrupole moment (field-independent basis, Debye-Ang):
   XX=             -9.7121   YY=             -9.3045   ZZ=            -15.0122
   XY=              4.6419   XZ=              0.0000   YZ=              0.0000

 194\MP4DQ=-33.8960905\MP4SDQ=-33.8982756\CCSD=-33.8991638\CCSD(T)=-33.
 Normal termination of Gaussian 16 at Sun Dec 10 06:31:39 2023.
