 Gaussian 16, Revision A.03,
 Gaussian 16:  ES64L-G16RevA.03 25-Dec-2016

 ------------------
 #p CCSD(T)/CEP-31G
 ------------------

 ------------
 H2O_H2O_1611
 ------------
 Symbolic Z-matrix:
 Charge =  0 Multiplicity = 1

                         Standard orientation:
 ---------------------------------------------------------------------
 Center     Atomic      Atomic             Coordinates (Angstroms)
 Number     Number       Type             X           Y           Z
 ---------------------------------------------------------------------
      1          8           0        0.059682    1.749308    0.000000
      2          1           0        0.057979    0.766708    0.000000
      3          1           0       -0.869258    2.069584    0.000000
      4          8           0        0.059682   -1.571918   -0.000000
      5          1           0        0.706276   -2.311798   -0.000000
      6          1           0       -0.849905   -1.943614   -0.000000
 ---------------------------------------------------------------------

 SCF Done:  E(RHF) =  -33.6596641422     A.U. after   11 cycles
 E2 =    -0.2288195580D+00 EUMP2 =    -0.33888483700146D+02
 CCSD(T)
 CCSD(T)= -0.33905316235D+02

 The electronic state is 1-A'.
 Alpha  occ. eigenvalues --   -1.37830  -1.32643  -0.73494  -0.68394  -0.58195
 Alpha  occ. eigenvalues --   -0.52504  -0.52417  -0.47287
 Alpha virt. eigenvalues --    0.17853   0.24789   0.28624   0.37883   0.77428
 Alpha virt. eigenvalues --    0.81241   0.83886   0.85720   0.90756   0.96441
 Alpha virt. eigenvalues --    1.15217   1.19717   1.20813   1.34498   2.50003

 Mulliken charges:
               1
     1  O   -0.774345
     2  H    0.417672
     3  H    0.354875
     4  O   -0.774425
     5  H    0.395744
     6  H    0.380479
 Sum of Mulliken charges =  -0.00000

 Dipole moment (field-independent basis, Debye):
    X=             -2.6671    Y=             -4.4551    Z=             -0.0000  Tot=              5.1924
 Quadrupole moment (field-independent basis, Debye-Ang):
   XX=             -9.6651   YY=             -7.9833   ZZ=            -15.0049
   XY=             -4.3383   XZ=             -0.0000   YZ=              0.0000

 8248\MP4DQ=-33.8995496\MP4SDQ=-33.9016429\CCSD=-33.9026536\CCSD(T)=-33
 Normal termination of Gaussian 16 at Sun Dec 10 06:49:18 2023.
