 Gaussian 16, Revision A.03,
 Gaussian 16:  ES64L-G16RevA.03 25-Dec-2016

 ------------------
 #p CCSD(T)/CEP-31G
 ------------------

 ------------
 H2O_H2O_1964
 ------------
 Symbolic Z-matrix:
 Charge =  0 Multiplicity = 1

                         Standard orientation:
 ---------------------------------------------------------------------
 Center     Atomic      Atomic             Coordinates (Angstroms)
 Number     Number       Type             X           Y           Z
 ---------------------------------------------------------------------
      1          8           0        0.048622    1.890522    0.000000
      2          1           0        0.046530    0.907923    0.000000
      3          1           0       -0.880191    2.211166    0.000000
      4          8           0        0.048622   -1.710176    0.000000
      5          1           0        0.826898   -2.310004    0.000000
      6          1           0       -0.771188   -2.251856    0.000000
 ---------------------------------------------------------------------

 SCF Done:  E(RHF) =  -33.6586746093     A.U. after   11 cycles
 E2 =    -0.2286113339D+00 EUMP2 =    -0.33887285943222D+02
 CCSD(T)
 CCSD(T)= -0.33904148720D+02

 The electronic state is 1-A'.
 Alpha  occ. eigenvalues --   -1.37416  -1.33029  -0.73065  -0.68688  -0.57656
 Alpha  occ. eigenvalues --   -0.52866  -0.52081  -0.47683
 Alpha virt. eigenvalues --    0.18140   0.24067   0.28971   0.35487   0.78213
 Alpha virt. eigenvalues --    0.82772   0.83064   0.85990   0.89023   0.90501
 Alpha virt. eigenvalues --    1.15684   1.20124   1.20468   1.32668   2.51460

 Mulliken charges:
               1
     1  O   -0.770177
     2  H    0.408017
     3  H    0.359905
     4  O   -0.764666
     5  H    0.386897
     6  H    0.380024
 Sum of Mulliken charges =  -0.00000

 Dipole moment (field-independent basis, Debye):
    X=             -2.1891    Y=             -4.4484    Z=              0.0000  Tot=              4.9579
 Quadrupole moment (field-independent basis, Debye-Ang):
   XX=             -9.4510   YY=             -7.4972   ZZ=            -15.0024
   XY=             -5.0438   XZ=              0.0000   YZ=              0.0000

 05\MP4DQ=-33.8984336\MP4SDQ=-33.9005082\CCSD=-33.9015302\CCSD(T)=-33.9
 Normal termination of Gaussian 16 at Sun Dec 10 06:55:57 2023.
