 Gaussian 16, Revision A.03,
 Gaussian 16:  ES64L-G16RevA.03 25-Dec-2016

 ------------------
 #p CCSD(T)/CEP-31G
 ------------------

 ------------
 H2O_H2O_3251
 ------------
 Symbolic Z-matrix:
 Charge =  0 Multiplicity = 1

                         Standard orientation:
 ---------------------------------------------------------------------
 Center     Atomic      Atomic             Coordinates (Angstroms)
 Number     Number       Type             X           Y           Z
 ---------------------------------------------------------------------
      1          8           0        0.090685   -2.386439    0.000000
      2          1           0        0.090601   -1.403838    0.000000
      3          1           0       -0.838782   -2.705184    0.000000
      4          8           0        0.090685    2.247731    0.000000
      5          1           0        0.154867    3.228234    0.000000
      6          1           0       -0.857639    1.990458    0.000000
 ---------------------------------------------------------------------

 SCF Done:  E(RHF) =  -33.6524528362     A.U. after   11 cycles
 E2 =    -0.2283931157D+00 EUMP2 =    -0.33880845951860D+02
 CCSD(T)
 CCSD(T)= -0.33897833567D+02

 The electronic state is 1-A'.
 Alpha  occ. eigenvalues --   -1.36673  -1.34887  -0.72340  -0.70486  -0.56457
 Alpha  occ. eigenvalues --   -0.54622  -0.51249  -0.49458
 Alpha virt. eigenvalues --    0.18163   0.21675   0.29389   0.31375   0.79332
 Alpha virt. eigenvalues --    0.81079   0.82336   0.84058   0.85385   0.87538
 Alpha virt. eigenvalues --    1.15970   1.18413   1.20715   1.24373   2.55829

 Mulliken charges:
               1
     1  O   -0.743894
     2  H    0.378825
     3  H    0.364820
     4  O   -0.744486
     5  H    0.377865
     6  H    0.366870
 Sum of Mulliken charges =  -0.00000

 Dipole moment (field-independent basis, Debye):
    X=             -4.1533    Y=              3.2991    Z=              0.0000  Tot=              5.3042
 Quadrupole moment (field-independent basis, Debye-Ang):
   XX=            -11.1362   YY=             -9.1420   ZZ=            -14.9888
   XY=              2.5865   XZ=              0.0000   YZ=              0.0000

 402\MP4DQ=-33.8921816\MP4SDQ=-33.8942159\CCSD=-33.8952645\CCSD(T)=-33.
 Normal termination of Gaussian 16 at Sun Dec 10 06:31:35 2023.
