 Gaussian 16, Revision A.03,
 Gaussian 16:  ES64L-G16RevA.03 25-Dec-2016

 ------------------
 #p CCSD(T)/CEP-31G
 ------------------

 ------------
 H2O_H2O_2025
 ------------
 Symbolic Z-matrix:
 Charge =  0 Multiplicity = 1

                         Standard orientation:
 ---------------------------------------------------------------------
 Center     Atomic      Atomic             Coordinates (Angstroms)
 Number     Number       Type             X           Y           Z
 ---------------------------------------------------------------------
      1          8           0        0.092949   -1.894598    0.000000
      2          1           0        0.092949   -0.911997    0.000000
      3          1           0       -0.836544   -2.213265    0.000000
      4          8           0        0.092949    1.761811    0.000000
      5          1           0        0.092949    2.744413    0.000000
      6          1           0       -0.836544    1.443144    0.000000
 ---------------------------------------------------------------------

 SCF Done:  E(RHF) =  -33.6528194114     A.U. after   11 cycles
 E2 =    -0.2288122975D+00 EUMP2 =    -0.33881631708931D+02
 CCSD(T)
 CCSD(T)= -0.33898680210D+02

 The electronic state is 1-A'.
 Alpha  occ. eigenvalues --   -1.37481  -1.34551  -0.73274  -0.70062  -0.57318
 Alpha  occ. eigenvalues --   -0.54245  -0.52043  -0.49105
 Alpha virt. eigenvalues --    0.16536   0.23459   0.28676   0.33823   0.78213
 Alpha virt. eigenvalues --    0.81841   0.82538   0.84402   0.87826   0.93144
 Alpha virt. eigenvalues --    1.15374   1.18264   1.20829   1.36405   2.54712

 Mulliken charges:
               1
     1  O   -0.748035
     2  H    0.386829
     3  H    0.359161
     4  O   -0.747968
     5  H    0.386431
     6  H    0.363582
 Sum of Mulliken charges =   0.00000

 Dipole moment (field-independent basis, Debye):
    X=             -4.2160    Y=              3.2699    Z=              0.0000  Tot=              5.3355
 Quadrupole moment (field-independent basis, Debye-Ang):
   XX=            -11.3158   YY=             -9.5603   ZZ=            -14.9873
   XY=              2.2794   XZ=              0.0000   YZ=              0.0000

 1956\MP4DQ=-33.8929222\MP4SDQ=-33.895025\CCSD=-33.8960501\CCSD(T)=-33.
 Normal termination of Gaussian 16 at Sun Dec 10 06:57:05 2023.
