 Gaussian 16, Revision A.03,
 Gaussian 16:  ES64L-G16RevA.03 25-Dec-2016

 ------------------
 #p CCSD(T)/CEP-31G
 ------------------

 ------------
 H2O_H2O_2126
 ------------
 Symbolic Z-matrix:
 Charge =  0 Multiplicity = 1

                         Standard orientation:
 ---------------------------------------------------------------------
 Center     Atomic      Atomic             Coordinates (Angstroms)
 Number     Number       Type             X           Y           Z
 ---------------------------------------------------------------------
      1          8           0        0.090686   -1.937700    0.000000
      2          1           0        0.090583   -0.955099    0.000000
      3          1           0       -0.838774   -2.256464    0.000000
      4          8           0        0.090686    1.798995    0.000000
      5          1           0        0.154849    2.779500    0.000000
      6          1           0       -0.857632    1.541704    0.000000
 ---------------------------------------------------------------------

 SCF Done:  E(RHF) =  -33.6532979908     A.U. after   11 cycles
 E2 =    -0.2287231200D+00 EUMP2 =    -0.33882021110832D+02
 CCSD(T)
 CCSD(T)= -0.33899046936D+02

 The electronic state is 1-A'.
 Alpha  occ. eigenvalues --   -1.37373  -1.34443  -0.73127  -0.69980  -0.57232
 Alpha  occ. eigenvalues --   -0.54155  -0.51946  -0.49007
 Alpha virt. eigenvalues --    0.16775   0.23307   0.28782   0.33438   0.78403
 Alpha virt. eigenvalues --    0.81814   0.82678   0.84510   0.87913   0.91463
 Alpha virt. eigenvalues --    1.15364   1.18611   1.20653   1.35206   2.54776

 Mulliken charges:
               1
     1  O   -0.749415
     2  H    0.388010
     3  H    0.359570
     4  O   -0.749069
     5  H    0.385526
     6  H    0.365378
 Sum of Mulliken charges =  -0.00000

 Dipole moment (field-independent basis, Debye):
    X=             -4.1175    Y=              3.4016    Z=              0.0000  Tot=              5.3408
 Quadrupole moment (field-independent basis, Debye-Ang):
   XX=            -11.1560   YY=             -9.2383   ZZ=            -14.9889
   XY=              2.5236   XZ=              0.0000   YZ=              0.0000

 769\MP4DQ=-33.8933088\MP4SDQ=-33.8954002\CCSD=-33.8964285\CCSD(T)=-33.
 Normal termination of Gaussian 16 at Sun Dec 10 06:59:05 2023.
