 Gaussian 16, Revision A.03,
 Gaussian 16:  ES64L-G16RevA.03 25-Dec-2016

 ------------------
 #p CCSD(T)/CEP-31G
 ------------------

 ------------
 H2O_H2O_1084
 ------------
 Symbolic Z-matrix:
 Charge =  0 Multiplicity = 1

                         Standard orientation:
 ---------------------------------------------------------------------
 Center     Atomic      Atomic             Coordinates (Angstroms)
 Number     Number       Type             X           Y           Z
 ---------------------------------------------------------------------
      1          8           0        0.066809    1.537529    0.000000
      2          1           0        0.065277    0.554929    0.000000
      3          1           0       -0.862186    1.857644   -0.000000
      4          8           0        0.066809   -1.364500    0.000000
      5          1           0        0.611438   -2.182353    0.000000
      6          1           0       -0.883470   -1.614455   -0.000000
 ---------------------------------------------------------------------

 SCF Done:  E(RHF) =  -33.6603755641     A.U. after   11 cycles
 E2 =    -0.2290635928D+00 EUMP2 =    -0.33889439156872D+02
 CCSD(T)
 CCSD(T)= -0.33906070425D+02

 The electronic state is 1-A'.
 Alpha  occ. eigenvalues --   -1.38828  -1.31752  -0.74559  -0.68255  -0.59090
 Alpha  occ. eigenvalues --   -0.53501  -0.51308  -0.46350
 Alpha virt. eigenvalues --    0.17401   0.26029   0.27870   0.43672   0.75725
 Alpha virt. eigenvalues --    0.78294   0.85333   0.85880   0.93720   1.05933
 Alpha virt. eigenvalues --    1.15438   1.18167   1.21910   1.36046   2.51824

 Mulliken charges:
               1
     1  O   -0.775330
     2  H    0.427868
     3  H    0.345174
     4  O   -0.801343
     5  H    0.418622
     6  H    0.385010
 Sum of Mulliken charges =  -0.00000

 Dipole moment (field-independent basis, Debye):
    X=             -2.9266    Y=             -4.5359    Z=             -0.0000  Tot=              5.3981
 Quadrupole moment (field-independent basis, Debye-Ang):
   XX=             -9.8906   YY=             -8.7061   ZZ=            -15.0101
   XY=             -3.7868   XZ=              0.0000   YZ=             -0.0000

 516\MP4DQ=-33.9002006\MP4SDQ=-33.9023404\CCSD=-33.9033022\CCSD(T)=-33.
 Normal termination of Gaussian 16 at Sun Dec 10 06:38:54 2023.
