 Gaussian 16, Revision A.03,
 Gaussian 16:  ES64L-G16RevA.03 25-Dec-2016

 ------------------
 #p CCSD(T)/CEP-31G
 ------------------

 ------------
 H2O_H2O_4296
 ------------
 Symbolic Z-matrix:
 Charge =  0 Multiplicity = 1

                         Standard orientation:
 ---------------------------------------------------------------------
 Center     Atomic      Atomic             Coordinates (Angstroms)
 Number     Number       Type             X           Y           Z
 ---------------------------------------------------------------------
      1          8           0       -0.023171    2.812513    0.000000
      2          1           0       -0.021001    1.829914    0.000000
      3          1           0        0.905616    3.133231    0.000000
      4          8           0       -0.023171   -2.642105    0.000000
      5          1           0       -0.986466   -2.835929    0.000000
      6          1           0        0.472584   -3.490477    0.000000
 ---------------------------------------------------------------------

 SCF Done:  E(RHF) =  -33.6535975922     A.U. after   11 cycles
 E2 =    -0.2282844467D+00 EUMP2 =    -0.33881882038844D+02
 CCSD(T)
 CCSD(T)= -0.33898832195D+02

 The electronic state is 1-A'.
 Alpha  occ. eigenvalues --   -1.36289  -1.34683  -0.71930  -0.70321  -0.56126
 Alpha  occ. eigenvalues --   -0.54481  -0.50888  -0.49286
 Alpha virt. eigenvalues --    0.19548   0.21245   0.29826   0.31522   0.79665
 Alpha virt. eigenvalues --    0.81228   0.82485   0.84212   0.85683   0.87314
 Alpha virt. eigenvalues --    1.16690   1.18307   1.21120   1.22846   2.56641

 Mulliken charges:
               1
     1  O   -0.748171
     2  H    0.378757
     3  H    0.369393
     4  O   -0.747606
     5  H    0.373935
     6  H    0.373694
 Sum of Mulliken charges =   0.00000

 Dipole moment (field-independent basis, Debye):
    X=              1.0630    Y=             -3.9997    Z=              0.0000  Tot=              4.1385
 Quadrupole moment (field-independent basis, Debye-Ang):
   XX=             -9.5977   YY=             -6.1226   ZZ=            -14.9922
   XY=              9.2056   XZ=              0.0000   YZ=              0.0000

 7\MP4DQ=-33.8932002\MP4SDQ=-33.8952237\CCSD=-33.8962752\CCSD(T)=-33.89
 Normal termination of Gaussian 16 at Sun Dec 10 06:50:19 2023.
