 Gaussian 16, Revision A.03,
 Gaussian 16:  ES64L-G16RevA.03 25-Dec-2016

 ------------------
 #p CCSD(T)/CEP-31G
 ------------------

 ------------
 H2O_H2O_2305
 ------------
 Symbolic Z-matrix:
 Charge =  0 Multiplicity = 1

                         Standard orientation:
 ---------------------------------------------------------------------
 Center     Atomic      Atomic             Coordinates (Angstroms)
 Number     Number       Type             X           Y           Z
 ---------------------------------------------------------------------
      1          8           0        0.079859    2.018554   -0.000000
      2          1           0        0.079285    1.035953   -0.000000
      3          1           0       -0.849448    2.337763   -0.000000
      4          8           0        0.079859   -1.859506    0.000000
      5          1           0        0.395162   -2.790146    0.000000
      6          1           0       -0.902736   -1.855954    0.000000
 ---------------------------------------------------------------------

 SCF Done:  E(RHF) =  -33.6548127358     A.U. after   11 cycles
 E2 =    -0.2285649469D+00 EUMP2 =    -0.33883377682776D+02
 CCSD(T)
 CCSD(T)= -0.33900341865D+02

 The electronic state is 1-A'.
 Alpha  occ. eigenvalues --   -1.37188  -1.34020  -0.72879  -0.69600  -0.57127
 Alpha  occ. eigenvalues --   -0.53784  -0.51791  -0.48615
 Alpha virt. eigenvalues --    0.17607   0.23066   0.28989   0.33220   0.78680
 Alpha virt. eigenvalues --    0.82018   0.83087   0.84890   0.88033   0.88699
 Alpha virt. eigenvalues --    1.15641   1.19405   1.20426   1.32299   2.54387

 Mulliken charges:
               1
     1  O   -0.754514
     2  H    0.392575
     3  H    0.360209
     4  O   -0.752779
     5  H    0.384246
     6  H    0.370263
 Sum of Mulliken charges =   0.00000

 Dipole moment (field-independent basis, Debye):
    X=             -3.6280    Y=             -3.8770    Z=              0.0000  Tot=              5.3097
 Quadrupole moment (field-independent basis, Debye-Ang):
   XX=            -10.4917   YY=             -8.1231   ZZ=            -14.9934
   XY=             -3.4979   XZ=              0.0000   YZ=             -0.0000

 961\MP4DQ=-33.8946387\MP4SDQ=-33.8967113\CCSD=-33.8977424\CCSD(T)=-33.
 Normal termination of Gaussian 16 at Sun Dec 10 07:03:51 2023.
