 Gaussian 16, Revision A.03,
 Gaussian 16:  ES64L-G16RevA.03 25-Dec-2016

 ------------------
 #p CCSD(T)/CEP-31G
 ------------------

 ------------
 H2O_H2O_4270
 ------------
 Symbolic Z-matrix:
 Charge =  0 Multiplicity = 1

                         Standard orientation:
 ---------------------------------------------------------------------
 Center     Atomic      Atomic             Coordinates (Angstroms)
 Number     Number       Type             X           Y           Z
 ---------------------------------------------------------------------
      1          8           0        0.026620    2.804083   -0.000000
      2          1           0        0.024550    1.821484   -0.000000
      3          1           0       -0.902199    3.124707    0.000000
      4          8           0        0.026620   -2.630835   -0.000000
      5          1           0        0.975202   -2.887150   -0.000000
      6          1           0       -0.523475   -3.445022    0.000000
 ---------------------------------------------------------------------

 SCF Done:  E(RHF) =  -33.6536285353     A.U. after   11 cycles
 E2 =    -0.2282846630D+00 EUMP2 =    -0.33881913198314D+02
 CCSD(T)
 CCSD(T)= -0.33898862217D+02

 The electronic state is 1-A'.
 Alpha  occ. eigenvalues --   -1.36295  -1.34647  -0.71936  -0.70283  -0.56135
 Alpha  occ. eigenvalues --   -0.54444  -0.50894  -0.49249
 Alpha virt. eigenvalues --    0.19544   0.21285   0.29822   0.31564   0.79659
 Alpha virt. eigenvalues --    0.81263   0.82473   0.84249   0.85680   0.87352
 Alpha virt. eigenvalues --    1.16685   1.18345   1.21116   1.22888   2.56639

 Mulliken charges:
               1
     1  O   -0.748293
     2  H    0.379150
     3  H    0.369117
     4  O   -0.747668
     5  H    0.374140
     6  H    0.373553
 Sum of Mulliken charges =   0.00000

 Dipole moment (field-independent basis, Debye):
    X=             -1.2212    Y=             -4.0676    Z=              0.0000  Tot=              4.2469
 Quadrupole moment (field-independent basis, Debye-Ang):
   XX=             -9.5288   YY=             -5.9021   ZZ=            -14.9923
   XY=             -8.8539   XZ=             -0.0000   YZ=              0.0000

 818\MP4DQ=-33.8932305\MP4SDQ=-33.8952539\CCSD=-33.8963053\CCSD(T)=-33.
 Normal termination of Gaussian 16 at Sun Dec 10 06:49:51 2023.
