 Gaussian 16, Revision A.03,
 Gaussian 16:  ES64L-G16RevA.03 25-Dec-2016

 ------------------
 #p CCSD(T)/CEP-31G
 ------------------

 ------------
 H2O_H2O_2271
 ------------
 Symbolic Z-matrix:
 Charge =  0 Multiplicity = 1

                         Standard orientation:
 ---------------------------------------------------------------------
 Center     Atomic      Atomic             Coordinates (Angstroms)
 Number     Number       Type             X           Y           Z
 ---------------------------------------------------------------------
      1          8           0       -0.023250    2.004767    0.000000
      2          1           0       -0.020167    1.022171    0.000000
      3          1           0        0.905239    2.326349    0.000000
      4          8           0       -0.023250   -1.834403    0.000000
      5          1           0       -0.986366   -2.029122    0.000000
      6          1           0        0.473292   -2.682313    0.000000
 ---------------------------------------------------------------------

 SCF Done:  E(RHF) =  -33.6575669839     A.U. after   11 cycles
 E2 =    -0.2284536965D+00 EUMP2 =    -0.33886020680416D+02
 CCSD(T)
 CCSD(T)= -0.33902910175D+02

 The electronic state is 1-A'.
 Alpha  occ. eigenvalues --   -1.37132  -1.33559  -0.72793  -0.69213  -0.57241
 Alpha  occ. eigenvalues --   -0.53428  -0.51781  -0.48216
 Alpha virt. eigenvalues --    0.18123   0.23423   0.29202   0.33858   0.78667
 Alpha virt. eigenvalues --    0.82373   0.83028   0.85524   0.87622   0.88825
 Alpha virt. eigenvalues --    1.15925   1.19946   1.20515   1.31860   2.53765

 Mulliken charges:
               1
     1  O   -0.765405
     2  H    0.397144
     3  H    0.366211
     4  O   -0.760458
     5  H    0.380893
     6  H    0.381614
 Sum of Mulliken charges =  -0.00000

 Dipole moment (field-independent basis, Debye):
    X=              1.0497    Y=             -4.1490    Z=              0.0000  Tot=              4.2797
 Quadrupole moment (field-independent basis, Debye-Ang):
   XX=             -9.5836   YY=             -7.5855   ZZ=            -14.9997
   XY=              6.5861   XZ=              0.0000   YZ=              0.0000

 7\MP4DQ=-33.8972228\MP4SDQ=-33.8992888\CCSD=-33.9003158\CCSD(T)=-33.90
 Normal termination of Gaussian 16 at Sun Dec 10 07:03:12 2023.
