 Gaussian 16, Revision A.03,
 Gaussian 16:  ES64L-G16RevA.03 25-Dec-2016

 ------------------
 #p CCSD(T)/CEP-31G
 ------------------

 ------------
 H2O_H2O_2091
 ------------
 Symbolic Z-matrix:
 Charge =  0 Multiplicity = 1

                         Standard orientation:
 ---------------------------------------------------------------------
 Center     Atomic      Atomic             Coordinates (Angstroms)
 Number     Number       Type             X           Y           Z
 ---------------------------------------------------------------------
      1          8           0        0.041180    1.940134   -0.000000
      2          1           0        0.038804    0.957535   -0.000000
      3          1           0       -0.887539    2.261048   -0.000000
      4          8           0        0.041180   -1.760246    0.000000
      5          1           0        0.890948   -2.253604    0.000000
      6          1           0       -0.701100   -2.404084    0.000000
 ---------------------------------------------------------------------

 SCF Done:  E(RHF) =  -33.6583389352     A.U. after   11 cycles
 E2 =    -0.2285413375D+00 EUMP2 =    -0.33886880272658D+02
 CCSD(T)
 CCSD(T)= -0.33903748891D+02

 The electronic state is 1-A'.
 Alpha  occ. eigenvalues --   -1.37293  -1.33176  -0.72941  -0.68826  -0.57488
 Alpha  occ. eigenvalues --   -0.53029  -0.51955  -0.47832
 Alpha virt. eigenvalues --    0.18218   0.23819   0.29080   0.34817   0.78422
 Alpha virt. eigenvalues --    0.82825   0.83103   0.86111   0.87944   0.89564
 Alpha virt. eigenvalues --    1.15816   1.20101   1.20478   1.32014   2.52214

 Mulliken charges:
               1
     1  O   -0.768637
     2  H    0.404394
     3  H    0.361962
     4  O   -0.762609
     5  H    0.384451
     6  H    0.380440
 Sum of Mulliken charges =   0.00000

 Dipole moment (field-independent basis, Debye):
    X=             -1.8574    Y=             -4.4137    Z=              0.0000  Tot=              4.7885
 Quadrupole moment (field-independent basis, Debye-Ang):
   XX=             -9.3998   YY=             -7.3728   ZZ=            -15.0016
   XY=             -5.4831   XZ=              0.0000   YZ=             -0.0000

 01\MP4DQ=-33.8980483\MP4SDQ=-33.900118\CCSD=-33.9011423\CCSD(T)=-33.90
 Normal termination of Gaussian 16 at Sun Dec 10 06:58:24 2023.
