 Gaussian 16, Revision A.03,
 Gaussian 16:  ES64L-G16RevA.03 25-Dec-2016

 ------------------
 #p CCSD(T)/CEP-31G
 ------------------

 -----------
 H2O_H2O_240
 -----------
 Symbolic Z-matrix:
 Charge =  0 Multiplicity = 1

                         Standard orientation:
 ---------------------------------------------------------------------
 Center     Atomic      Atomic             Coordinates (Angstroms)
 Number     Number       Type             X           Y           Z
 ---------------------------------------------------------------------
      1          8           0        0.045029    1.202404    0.000000
      2          1           0        0.041359    0.219810    0.000000
      3          1           0       -0.883267    1.524540    0.000000
      4          8           0        0.045029   -1.022175   -0.000000
      5          1           0        0.859988   -1.571127   -0.000000
      6          1           0       -0.738551   -1.615056   -0.000000
 ---------------------------------------------------------------------

 SCF Done:  E(RHF) =  -33.6300157945     A.U. after   11 cycles
 E2 =    -0.2282337273D+00 EUMP2 =    -0.33858249521726D+02
 CCSD(T)
 CCSD(T)= -0.33873115959D+02

 The electronic state is 1-A'.
 Alpha  occ. eigenvalues --   -1.43623  -1.27604  -0.77891  -0.76209  -0.57604
 Alpha  occ. eigenvalues --   -0.56062  -0.45369  -0.41779
 Alpha virt. eigenvalues --    0.16580   0.25779   0.29607   0.60356   0.73376
 Alpha virt. eigenvalues --    0.73439   0.86265   0.91051   0.92905   1.04126
 Alpha virt. eigenvalues --    1.13625   1.16631   1.27354   1.35329   2.85277

 Mulliken charges:
               1
     1  O   -0.760191
     2  H    0.369839
     3  H    0.315792
     4  O   -0.815120
     5  H    0.448965
     6  H    0.440714
 Sum of Mulliken charges =   0.00000

 Dipole moment (field-independent basis, Debye):
    X=             -1.8605    Y=             -5.4833    Z=             -0.0000  Tot=              5.7903
 Quadrupole moment (field-independent basis, Debye-Ang):
   XX=             -9.3040   YY=            -10.3794   ZZ=            -14.9710
   XY=             -3.4931   XZ=             -0.0000   YZ=              0.0000

 056\MP4DQ=-33.8670172\MP4SDQ=-33.869288\CCSD=-33.8699448\CCSD(T)=-33.8
 Normal termination of Gaussian 16 at Sun Dec 10 06:22:47 2023.
