 Gaussian 16, Revision A.03,
 Gaussian 16:  ES64L-G16RevA.03 25-Dec-2016

 ------------------
 #p CCSD(T)/CEP-31G
 ------------------

 ------------
 H2O_H2O_1418
 ------------
 Symbolic Z-matrix:
 Charge =  0 Multiplicity = 1

                         Standard orientation:
 ---------------------------------------------------------------------
 Center     Atomic      Atomic             Coordinates (Angstroms)
 Number     Number       Type             X           Y           Z
 ---------------------------------------------------------------------
      1          8           0        0.033877    1.669575    0.000000
      2          1           0        0.030701    0.686979    0.000000
      3          1           0       -0.894581    1.991245    0.000000
      4          8           0        0.033877   -1.492118   -0.000000
      5          1           0        0.940463   -1.871076   -0.000000
      6          1           0       -0.618613   -2.226804   -0.000000
 ---------------------------------------------------------------------

 SCF Done:  E(RHF) =  -33.6620090194     A.U. after   11 cycles
 E2 =    -0.2288336290D+00 EUMP2 =    -0.33890842648408D+02
 CCSD(T)
 CCSD(T)= -0.33907572909D+02

 The electronic state is 1-A'.
 Alpha  occ. eigenvalues --   -1.38068  -1.32160  -0.73716  -0.68134  -0.58628
 Alpha  occ. eigenvalues --   -0.52780  -0.51938  -0.46842
 Alpha virt. eigenvalues --    0.17898   0.25448   0.28533   0.39963   0.76882
 Alpha virt. eigenvalues --    0.79920   0.84635   0.86345   0.90936   0.99678
 Alpha virt. eigenvalues --    1.15239   1.19000   1.21716   1.34587   2.49904

 Mulliken charges:
               1
     1  O   -0.783376
     2  H    0.423859
     3  H    0.357619
     4  O   -0.786599
     5  H    0.393060
     6  H    0.395437
 Sum of Mulliken charges =  -0.00000

 Dipole moment (field-independent basis, Debye):
    X=             -1.5122    Y=             -4.5054    Z=             -0.0000  Tot=              4.7524
 Quadrupole moment (field-independent basis, Debye-Ang):
   XX=             -9.4026   YY=             -8.2107   ZZ=            -15.0110
   XY=             -5.0468   XZ=             -0.0000   YZ=              0.0000

 52\MP4DQ=-33.9017924\MP4SDQ=-33.9038858\CCSD=-33.9048812\CCSD(T)=-33.9
 Normal termination of Gaussian 16 at Sun Dec 10 06:45:27 2023.
