 Gaussian 16, Revision A.03,
 Gaussian 16:  ES64L-G16RevA.03 25-Dec-2016

 ------------------
 #p CCSD(T)/CEP-31G
 ------------------

 ------------
 H2O_H2O_2099
 ------------
 Symbolic Z-matrix:
 Charge =  0 Multiplicity = 1

                         Standard orientation:
 ---------------------------------------------------------------------
 Center     Atomic      Atomic             Coordinates (Angstroms)
 Number     Number       Type             X           Y           Z
 ---------------------------------------------------------------------
      1          8           0       -0.013573    1.928926    0.000000
      2          1           0       -0.009929    0.946331    0.000000
      3          1           0        0.914731    2.251038    0.000000
      4          8           0       -0.013573   -1.769683    0.000000
      5          1           0       -0.996169   -1.773327    0.000000
      6          1           0        0.308538   -2.697988    0.000000
 ---------------------------------------------------------------------

 SCF Done:  E(RHF) =  -33.6577686627     A.U. after   11 cycles
 E2 =    -0.2285025178D+00 EUMP2 =    -0.33886271180513D+02
 CCSD(T)
 CCSD(T)= -0.33903178812D+02

 The electronic state is 1-A'.
 Alpha  occ. eigenvalues --   -1.37261  -1.33641  -0.72954  -0.69309  -0.57392
 Alpha  occ. eigenvalues --   -0.53511  -0.51907  -0.48305
 Alpha virt. eigenvalues --    0.17756   0.23748   0.29109   0.34295   0.78426
 Alpha virt. eigenvalues --    0.82417   0.82479   0.85482   0.87789   0.91617
 Alpha virt. eigenvalues --    1.15797   1.19741   1.20574   1.34570   2.53759

 Mulliken charges:
               1
     1  O   -0.767015
     2  H    0.396638
     3  H    0.368079
     4  O   -0.763149
     5  H    0.380546
     6  H    0.384901
 Sum of Mulliken charges =   0.00000

 Dipole moment (field-independent basis, Debye):
    X=              0.6107    Y=             -3.8993    Z=              0.0000  Tot=              3.9469
 Quadrupole moment (field-independent basis, Debye-Ang):
   XX=             -9.8602   YY=             -8.1936   ZZ=            -14.9996
   XY=              6.9391   XZ=              0.0000   YZ=              0.0000

 7181\MP4DQ=-33.897468\MP4SDQ=-33.8995469\CCSD=-33.9005712\CCSD(T)=-33.
 Normal termination of Gaussian 16 at Sun Dec 10 06:58:33 2023.
