 Gaussian 16, Revision A.03,
 Gaussian 16:  ES64L-G16RevA.03 25-Dec-2016

 ------------------
 #p CCSD(T)/CEP-31G
 ------------------

 ------------
 H2O_H2O_3686
 ------------
 Symbolic Z-matrix:
 Charge =  0 Multiplicity = 1

                         Standard orientation:
 ---------------------------------------------------------------------
 Center     Atomic      Atomic             Coordinates (Angstroms)
 Number     Number       Type             X           Y           Z
 ---------------------------------------------------------------------
      1          8           0        0.059631    2.577012   -0.000000
      2          1           0        0.058494    1.594411   -0.000000
      3          1           0       -0.869493    2.896753   -0.000000
      4          8           0        0.059631   -2.399554    0.000000
      5          1           0        0.706651   -3.139061    0.000000
      6          1           0       -0.849743   -2.771773    0.000000
 ---------------------------------------------------------------------

 SCF Done:  E(RHF) =  -33.6538197449     A.U. after   11 cycles
 E2 =    -0.2283028581D+00 EUMP2 =    -0.33882122602957D+02
 CCSD(T)
 CCSD(T)= -0.33899065039D+02

 The electronic state is 1-A'.
 Alpha  occ. eigenvalues --   -1.36465  -1.34421  -0.72109  -0.70040  -0.56319
 Alpha  occ. eigenvalues --   -0.54211  -0.51065  -0.49021
 Alpha virt. eigenvalues --    0.19280   0.21606   0.29653   0.31843   0.79498
 Alpha virt. eigenvalues --    0.81483   0.82275   0.84518   0.85484   0.87669
 Alpha virt. eigenvalues --    1.16523   1.18626   1.20941   1.23469   2.56495

 Mulliken charges:
               1
     1  O   -0.749049
     2  H    0.382598
     3  H    0.366289
     4  O   -0.748307
     5  H    0.376482
     6  H    0.371986
 Sum of Mulliken charges =  -0.00000

 Dipole moment (field-independent basis, Debye):
    X=             -2.7311    Y=             -4.1937    Z=              0.0000  Tot=              5.0046
 Quadrupole moment (field-independent basis, Debye-Ang):
   XX=             -9.6724   YY=             -6.0587   ZZ=            -14.9927
   XY=             -5.6235   XZ=              0.0000   YZ=             -0.0000

 23\MP4DQ=-33.8934314\MP4SDQ=-33.8954575\CCSD=-33.896506\CCSD(T)=-33.89
 Normal termination of Gaussian 16 at Sun Dec 10 06:39:19 2023.
