 Gaussian 16, Revision A.03,
 Gaussian 16:  ES64L-G16RevA.03 25-Dec-2016

 ------------------
 #p CCSD(T)/CEP-31G
 ------------------

 ------------
 H2O_H2O_2073
 ------------
 Symbolic Z-matrix:
 Charge =  0 Multiplicity = 1

                         Standard orientation:
 ---------------------------------------------------------------------
 Center     Atomic      Atomic             Coordinates (Angstroms)
 Number     Number       Type             X           Y           Z
 ---------------------------------------------------------------------
      1          8           0       -0.016681    1.921194    0.000000
      2          1           0       -0.013161    0.938599    0.000000
      3          1           0        0.911664    2.243188    0.000000
      4          8           0       -0.016681   -1.757826    0.000000
      5          1           0       -0.996943   -1.825603    0.000000
      6          1           0        0.365341   -2.663124    0.000000
 ---------------------------------------------------------------------

 SCF Done:  E(RHF) =  -33.6580705794     A.U. after   11 cycles
 E2 =    -0.2285111842D+00 EUMP2 =    -0.33886581763597D+02
 CCSD(T)
 CCSD(T)= -0.33903480382D+02

 The electronic state is 1-A'.
 Alpha  occ. eigenvalues --   -1.37284  -1.33514  -0.72969  -0.69184  -0.57442
 Alpha  occ. eigenvalues --   -0.53384  -0.51935  -0.48180
 Alpha virt. eigenvalues --    0.17857   0.23810   0.29095   0.34517   0.78389
 Alpha virt. eigenvalues --    0.82474   0.82544   0.85677   0.87866   0.91694
 Alpha virt. eigenvalues --    1.15783   1.19790   1.20610   1.34380   2.53323

 Mulliken charges:
               1
     1  O   -0.768188
     2  H    0.398719
     3  H    0.367118
     4  O   -0.763915
     5  H    0.381326
     6  H    0.384941
 Sum of Mulliken charges =   0.00000

 Dipole moment (field-independent basis, Debye):
    X=              0.7507    Y=             -4.0063    Z=              0.0000  Tot=              4.0761
 Quadrupole moment (field-independent basis, Debye-Ang):
   XX=             -9.7566   YY=             -8.0309   ZZ=            -15.0004
   XY=              6.7032   XZ=              0.0000   YZ=              0.0000

 191\MP4DQ=-33.8977687\MP4SDQ=-33.8998475\CCSD=-33.9008713\CCSD(T)=-33.
 Normal termination of Gaussian 16 at Sun Dec 10 06:58:02 2023.
