 Gaussian 16, Revision A.03,
 Gaussian 16:  ES64L-G16RevA.03 25-Dec-2016

 ------------------
 #p CCSD(T)/CEP-31G
 ------------------

 ------------
 H2O_H2O_2081
 ------------
 Symbolic Z-matrix:
 Charge =  0 Multiplicity = 1

                         Standard orientation:
 ---------------------------------------------------------------------
 Center     Atomic      Atomic             Coordinates (Angstroms)
 Number     Number       Type             X           Y           Z
 ---------------------------------------------------------------------
      1          8           0        0.076769    1.931056   -0.000000
      2          1           0        0.076027    0.948455   -0.000000
      3          1           0       -0.852482    2.250425   -0.000000
      4          8           0        0.076769   -1.767869    0.000000
      5          1           0        0.452109   -2.675959    0.000000
      6          1           0       -0.903964   -1.828420    0.000000
 ---------------------------------------------------------------------

 SCF Done:  E(RHF) =  -33.6557569606     A.U. after   11 cycles
 E2 =    -0.2286389061D+00 EUMP2 =    -0.33884395866728D+02
 CCSD(T)
 CCSD(T)= -0.33901352845D+02

 The electronic state is 1-A'.
 Alpha  occ. eigenvalues --   -1.37365  -1.33718  -0.73063  -0.69304  -0.57383
 Alpha  occ. eigenvalues --   -0.53485  -0.51979  -0.48322
 Alpha virt. eigenvalues --    0.17609   0.23516   0.28872   0.34197   0.78378
 Alpha virt. eigenvalues --    0.82423   0.82851   0.85102   0.88648   0.91049
 Alpha virt. eigenvalues --    1.15511   1.19501   1.20475   1.34282   2.53084

 Mulliken charges:
               1
     1  O   -0.758816
     2  H    0.398120
     3  H    0.358557
     4  O   -0.756872
     5  H    0.387262
     6  H    0.371749
 Sum of Mulliken charges =  -0.00000

 Dipole moment (field-independent basis, Debye):
    X=             -3.4760    Y=             -4.0128    Z=              0.0000  Tot=              5.3090
 Quadrupole moment (field-independent basis, Debye-Ang):
   XX=            -10.3337   YY=             -8.0596   ZZ=            -14.9953
   XY=             -3.6572   XZ=              0.0000   YZ=             -0.0000

 866\MP4DQ=-33.8956262\MP4SDQ=-33.8977114\CCSD=-33.8987386\CCSD(T)=-33.
 Normal termination of Gaussian 16 at Sun Dec 10 06:58:12 2023.
