 Gaussian 16, Revision A.03,
 Gaussian 16:  ES64L-G16RevA.03 25-Dec-2016

 ------------------
 #p CCSD(T)/CEP-31G
 ------------------

 ------------
 H2O_H2O_1857
 ------------
 Symbolic Z-matrix:
 Charge =  0 Multiplicity = 1

                         Standard orientation:
 ---------------------------------------------------------------------
 Center     Atomic      Atomic             Coordinates (Angstroms)
 Number     Number       Type             X           Y           Z
 ---------------------------------------------------------------------
      1          8           0        0.073553    1.843332   -0.000000
      2          1           0        0.072617    0.860731   -0.000000
      3          1           0       -0.855635    2.162884   -0.000000
      4          8           0        0.073553   -1.676422    0.000000
      5          1           0        0.507308   -2.558104    0.000000
      6          1           0       -0.901145   -1.800794    0.000000
 ---------------------------------------------------------------------

 SCF Done:  E(RHF) =  -33.6568973676     A.U. after   11 cycles
 E2 =    -0.2287247828D+00 EUMP2 =    -0.33885622150427D+02
 CCSD(T)
 CCSD(T)= -0.33902560712D+02

 The electronic state is 1-A'.
 Alpha  occ. eigenvalues --   -1.37575  -1.33367  -0.73280  -0.68978  -0.57698
 Alpha  occ. eigenvalues --   -0.53131  -0.52202  -0.47979
 Alpha virt. eigenvalues --    0.17628   0.24021   0.28729   0.35536   0.77977
 Alpha virt. eigenvalues --    0.82300   0.82950   0.85305   0.89286   0.94381
 Alpha virt. eigenvalues --    1.15343   1.19425   1.20643   1.35599   2.51676

 Mulliken charges:
               1
     1  O   -0.763753
     2  H    0.404820
     3  H    0.356587
     4  O   -0.762751
     5  H    0.391424
     6  H    0.373673
 Sum of Mulliken charges =   0.00000

 Dipole moment (field-independent basis, Debye):
    X=             -3.3154    Y=             -4.1461    Z=              0.0000  Tot=              5.3087
 Quadrupole moment (field-independent basis, Debye-Ang):
   XX=            -10.1808   YY=             -8.0688   ZZ=            -14.9979
   XY=             -3.7854   XZ=             -0.0000   YZ=             -0.0000

 074\MP4DQ=-33.896808\MP4SDQ=-33.8989045\CCSD=-33.8999271\CCSD(T)=-33.9
 Normal termination of Gaussian 16 at Sun Dec 10 06:53:56 2023.
