 Gaussian 16, Revision A.03,
 Gaussian 16:  ES64L-G16RevA.03 25-Dec-2016

 ------------------
 #p CCSD(T)/CEP-31G
 ------------------

 ------------
 H2O_H2O_1986
 ------------
 Symbolic Z-matrix:
 Charge =  0 Multiplicity = 1

                         Standard orientation:
 ---------------------------------------------------------------------
 Center     Atomic      Atomic             Coordinates (Angstroms)
 Number     Number       Type             X           Y           Z
 ---------------------------------------------------------------------
      1          8           0        0.059669    1.898895    0.000000
      2          1           0        0.058107    0.916295    0.000000
      3          1           0       -0.869316    2.219039   -0.000000
      4          8           0        0.059669   -1.721488    0.000000
      5          1           0        0.706369   -2.461276    0.000000
      6          1           0       -0.849864   -2.093314   -0.000000
 ---------------------------------------------------------------------

 SCF Done:  E(RHF) =  -33.6578880058     A.U. after   11 cycles
 E2 =    -0.2286254303D+00 EUMP2 =    -0.33886513436152D+02
 CCSD(T)
 CCSD(T)= -0.33903402235D+02

 The electronic state is 1-A'.
 Alpha  occ. eigenvalues --   -1.37414  -1.33176  -0.73075  -0.68810  -0.57595
 Alpha  occ. eigenvalues --   -0.52989  -0.52065  -0.47814
 Alpha virt. eigenvalues --    0.18032   0.23924   0.28930   0.35208   0.78244
 Alpha virt. eigenvalues --    0.82864   0.82934   0.85631   0.89275   0.90537
 Alpha virt. eigenvalues --    1.15632   1.20128   1.20317   1.33082   2.51749

 Mulliken charges:
               1
     1  O   -0.767100
     2  H    0.406137
     3  H    0.358735
     4  O   -0.762732
     5  H    0.387904
     6  H    0.377055
 Sum of Mulliken charges =  -0.00000

 Dipole moment (field-independent basis, Debye):
    X=             -2.6900    Y=             -4.3753    Z=             -0.0000  Tot=              5.1361
 Quadrupole moment (field-independent basis, Debye-Ang):
   XX=             -9.6702   YY=             -7.5753   ZZ=            -15.0005
   XY=             -4.5685   XZ=              0.0000   YZ=             -0.0000

 06\MP4DQ=-33.8976824\MP4SDQ=-33.8997607\CCSD=-33.9007842\CCSD(T)=-33.9
 Normal termination of Gaussian 16 at Sun Dec 10 06:56:22 2023.
