 Gaussian 16, Revision A.03,
 Gaussian 16:  ES64L-G16RevA.03 25-Dec-2016

 ------------------
 #p CCSD(T)/CEP-31G
 ------------------

 ------------
 H2O_H2O_1470
 ------------
 Symbolic Z-matrix:
 Charge =  0 Multiplicity = 1

                         Standard orientation:
 ---------------------------------------------------------------------
 Center     Atomic      Atomic             Coordinates (Angstroms)
 Number     Number       Type             X           Y           Z
 ---------------------------------------------------------------------
      1          8           0        0.026747    1.687191    0.000000
      2          1           0        0.023232    0.704596    0.000000
      3          1           0       -0.901600    2.009181   -0.000000
      4          8           0        0.026747   -1.514022    0.000000
      5          1           0        0.974953   -1.771732    0.000000
      6          1           0       -0.524545   -2.327400   -0.000000
 ---------------------------------------------------------------------

 SCF Done:  E(RHF) =  -33.6615345246     A.U. after   11 cycles
 E2 =    -0.2287583905D+00 EUMP2 =    -0.33890292915120D+02
 CCSD(T)
 CCSD(T)= -0.33907068698D+02

 The electronic state is 1-A'.
 Alpha  occ. eigenvalues --   -1.37980  -1.32375  -0.73663  -0.68270  -0.58500
 Alpha  occ. eigenvalues --   -0.52679  -0.52176  -0.47062
 Alpha virt. eigenvalues --    0.17876   0.25291   0.28587   0.39244   0.77026
 Alpha virt. eigenvalues --    0.80251   0.84357   0.86455   0.89993   1.00831
 Alpha virt. eigenvalues --    1.15381   1.18710   1.21681   1.35393   2.50255

 Mulliken charges:
               1
     1  O   -0.782031
     2  H    0.419145
     3  H    0.360385
     4  O   -0.784546
     5  H    0.390181
     6  H    0.396865
 Sum of Mulliken charges =   0.00000

 Dipole moment (field-independent basis, Debye):
    X=             -1.1974    Y=             -4.3860    Z=             -0.0000  Tot=              4.5465
 Quadrupole moment (field-independent basis, Debye-Ang):
   XX=             -9.4973   YY=             -8.2305   ZZ=            -15.0094
   XY=             -5.3721   XZ=              0.0000   YZ=             -0.0000

 5663\MP4DQ=-33.9012898\MP4SDQ=-33.9033878\CCSD=-33.9043895\CCSD(T)=-33
 Normal termination of Gaussian 16 at Sun Dec 10 06:46:29 2023.
