 Gaussian 16, Revision A.03,
 Gaussian 16:  ES64L-G16RevA.03 25-Dec-2016

 ------------------
 #p CCSD(T)/CEP-31G
 ------------------

 -----------
 H2O_H2O_221
 -----------
 Symbolic Z-matrix:
 Charge =  0 Multiplicity = 1

                         Standard orientation:
 ---------------------------------------------------------------------
 Center     Atomic      Atomic             Coordinates (Angstroms)
 Number     Number       Type             X           Y           Z
 ---------------------------------------------------------------------
      1          8           0       -0.023448    1.187021    0.000000
      2          1           0       -0.018077    0.204435    0.000000
      3          1           0        0.904289    1.510764    0.000000
      4          8           0       -0.023448   -1.016766    0.000000
      5          1           0       -0.986107   -1.213727    0.000000
      6          1           0        0.475067   -1.863517    0.000000
 ---------------------------------------------------------------------

 SCF Done:  E(RHF) =  -33.6240702659     A.U. after   11 cycles
 E2 =    -0.2275435548D+00 EUMP2 =    -0.33851613820707D+02
 CCSD(T)
 CCSD(T)= -0.33866573320D+02

 The electronic state is 1-A'.
 Alpha  occ. eigenvalues --   -1.43976  -1.27712  -0.80326  -0.73706  -0.57658
 Alpha  occ. eigenvalues --   -0.56638  -0.45406  -0.41953
 Alpha virt. eigenvalues --    0.16865   0.25366   0.29669   0.60418   0.73453
 Alpha virt. eigenvalues --    0.74389   0.88552   0.90985   0.93265   1.01924
 Alpha virt. eigenvalues --    1.14164   1.20139   1.29272   1.38195   2.88540

 Mulliken charges:
               1
     1  O   -0.753380
     2  H    0.333486
     3  H    0.328634
     4  O   -0.818341
     5  H    0.433552
     6  H    0.476049
 Sum of Mulliken charges =   0.00000

 Dipole moment (field-independent basis, Debye):
    X=              1.0113    Y=             -5.2922    Z=              0.0000  Tot=              5.3879
 Quadrupole moment (field-independent basis, Debye-Ang):
   XX=             -9.4607   YY=            -10.2602   ZZ=            -14.9627
   XY=              3.7120   XZ=              0.0000   YZ=              0.0000

 7\MP4DQ=-33.8604834\MP4SDQ=-33.8627578\CCSD=-33.8634426\CCSD(T)=-33.86
 Normal termination of Gaussian 16 at Sun Dec 10 06:22:24 2023.
