 Gaussian 16, Revision A.03,
 Gaussian 16:  ES64L-G16RevA.03 25-Dec-2016

 ------------------
 #p CCSD(T)/CEP-31G
 ------------------

 ------------
 H2O_H2O_4113
 ------------
 Symbolic Z-matrix:
 Charge =  0 Multiplicity = 1

                         Standard orientation:
 ---------------------------------------------------------------------
 Center     Atomic      Atomic             Coordinates (Angstroms)
 Number     Number       Type             X           Y           Z
 ---------------------------------------------------------------------
      1          8           0        0.052278    2.747869   -0.000000
      2          1           0        0.050979    1.765269   -0.000000
      3          1           0       -0.876793    3.067763   -0.000000
      4          8           0        0.052278   -2.567954    0.000000
      5          1           0        0.790180   -3.216804    0.000000
      6          1           0       -0.800811   -3.055546    0.000000
 ---------------------------------------------------------------------

 SCF Done:  E(RHF) =  -33.6535484003     A.U. after   11 cycles
 E2 =    -0.2282964383D+00 EUMP2 =    -0.33881844838663D+02
 CCSD(T)
 CCSD(T)= -0.33898795017D+02

 The electronic state is 1-A'.
 Alpha  occ. eigenvalues --   -1.36342  -1.34544  -0.71983  -0.70170  -0.56180
 Alpha  occ. eigenvalues --   -0.54331  -0.50940  -0.49142
 Alpha virt. eigenvalues --    0.19481   0.21402   0.29773   0.31675   0.79617
 Alpha virt. eigenvalues --    0.81369   0.82420   0.84374   0.85640   0.87498
 Alpha virt. eigenvalues --    1.16635   1.18446   1.21074   1.23022   2.56595

 Mulliken charges:
               1
     1  O   -0.747994
     2  H    0.380546
     3  H    0.367402
     4  O   -0.747349
     5  H    0.375246
     6  H    0.372150
 Sum of Mulliken charges =  -0.00000

 Dipole moment (field-independent basis, Debye):
    X=             -2.3980    Y=             -4.2324    Z=             -0.0000  Tot=              4.8645
 Quadrupole moment (field-independent basis, Debye-Ang):
   XX=             -9.5145   YY=             -5.4991   ZZ=            -14.9922
   XY=             -6.5119   XZ=              0.0000   YZ=             -0.0000

 143\MP4DQ=-33.8931625\MP4SDQ=-33.8951866\CCSD=-33.8962375\CCSD(T)=-33.
 Normal termination of Gaussian 16 at Sun Dec 10 06:47:01 2023.
