 Gaussian 16, Revision A.03,
 Gaussian 16:  ES64L-G16RevA.03 25-Dec-2016

 ------------------
 #p CCSD(T)/CEP-31G
 ------------------

 ------------
 H2O_H2O_4101
 ------------
 Symbolic Z-matrix:
 Charge =  0 Multiplicity = 1

                         Standard orientation:
 ---------------------------------------------------------------------
 Center     Atomic      Atomic             Coordinates (Angstroms)
 Number     Number       Type             X           Y           Z
 ---------------------------------------------------------------------
      1          8           0        0.090684   -2.725486    0.000000
      2          1           0        0.090611   -1.742884    0.000000
      3          1           0       -0.838786   -3.044221    0.000000
      4          8           0        0.090684    2.586775    0.000000
      5          1           0        0.154877    3.567278    0.000000
      6          1           0       -0.857642    2.329513    0.000000
 ---------------------------------------------------------------------

 SCF Done:  E(RHF) =  -33.6521622922     A.U. after   11 cycles
 E2 =    -0.2283579064D+00 EUMP2 =    -0.33880520198611D+02
 CCSD(T)
 CCSD(T)= -0.33897512141D+02

 The electronic state is 1-A'.
 Alpha  occ. eigenvalues --   -1.36394  -1.35068  -0.72046  -0.70682  -0.56158
 Alpha  occ. eigenvalues --   -0.54804  -0.50969  -0.49640
 Alpha virt. eigenvalues --    0.19182   0.20922   0.29642   0.31039   0.79599
 Alpha virt. eigenvalues --    0.80899   0.82527   0.83915   0.85585   0.87151
 Alpha virt. eigenvalues --    1.16473   1.17902   1.20975   1.22488   2.56203

 Mulliken charges:
               1
     1  O   -0.742664
     2  H    0.375910
     3  H    0.366732
     4  O   -0.743076
     5  H    0.375306
     6  H    0.367792
 Sum of Mulliken charges =  -0.00000

 Dipole moment (field-independent basis, Debye):
    X=             -4.1671    Y=              3.2658    Z=              0.0000  Tot=              5.2944
 Quadrupole moment (field-independent basis, Debye-Ang):
   XX=            -11.1285   YY=             -9.0720   ZZ=            -14.9887
   XY=              2.6289   XZ=              0.0000   YZ=              0.0000

 1268\MP4DQ=-33.8918683\MP4SDQ=-33.8938959\CCSD=-33.8949498\CCSD(T)=-33
 Normal termination of Gaussian 16 at Sun Dec 10 06:46:48 2023.
