 Gaussian 16, Revision A.03,
 Gaussian 16:  ES64L-G16RevA.03 25-Dec-2016

 ------------------
 #p CCSD(T)/CEP-31G
 ------------------

 -----------
 H2O_H2O_247
 -----------
 Symbolic Z-matrix:
 Charge =  0 Multiplicity = 1

                         Standard orientation:
 ---------------------------------------------------------------------
 Center     Atomic      Atomic             Coordinates (Angstroms)
 Number     Number       Type             X           Y           Z
 ---------------------------------------------------------------------
      1          8           0        0.020102   -1.195219    0.000000
      2          1           0        0.014524   -0.212634    0.000000
      3          1           0       -0.907566   -1.519158    0.000000
      4          8           0        0.020102    1.028231    0.000000
      5          1           0        0.993555    1.162015    0.000000
      6          1           0       -0.422150    1.905681    0.000000
 ---------------------------------------------------------------------

 SCF Done:  E(RHF) =  -33.6266268599     A.U. after   11 cycles
 E2 =    -0.2275178131D+00 EUMP2 =    -0.33854144673024D+02
 CCSD(T)
 CCSD(T)= -0.33869234389D+02

 The electronic state is 1-A'.
 Alpha  occ. eigenvalues --   -1.43701  -1.28009  -0.80363  -0.72802  -0.57412
 Alpha  occ. eigenvalues --   -0.57102  -0.45851  -0.42304
 Alpha virt. eigenvalues --    0.16970   0.25388   0.29521   0.59835   0.73484
 Alpha virt. eigenvalues --    0.74738   0.88826   0.90734   0.93491   1.02480
 Alpha virt. eigenvalues --    1.14251   1.20511   1.29325   1.39312   2.87803

 Mulliken charges:
               1
     1  O   -0.751406
     2  H    0.332545
     3  H    0.333137
     4  O   -0.823665
     5  H    0.430258
     6  H    0.479131
 Sum of Mulliken charges =  -0.00000

 Dipole moment (field-independent basis, Debye):
    X=             -0.8758    Y=              5.1711    Z=              0.0000  Tot=              5.2448
 Quadrupole moment (field-independent basis, Debye-Ang):
   XX=             -9.5499   YY=            -10.1647   ZZ=            -14.9665
   XY=              3.8328   XZ=              0.0000   YZ=              0.0000

 146\MP4DQ=-33.8631491\MP4SDQ=-33.8654241\CCSD=-33.866131\CCSD(T)=-33.8
 Normal termination of Gaussian 16 at Sun Dec 10 06:22:55 2023.
