 Gaussian 16, Revision A.03,
 Gaussian 16:  ES64L-G16RevA.03 25-Dec-2016

 ------------------
 #p CCSD(T)/CEP-31G
 ------------------

 ------------
 H2O_H2O_3928
 ------------
 Symbolic Z-matrix:
 Charge =  0 Multiplicity = 1

                         Standard orientation:
 ---------------------------------------------------------------------
 Center     Atomic      Atomic             Coordinates (Angstroms)
 Number     Number       Type             X           Y           Z
 ---------------------------------------------------------------------
      1          8           0        0.085598   -2.661599    0.000000
      2          1           0        0.085357   -1.678997    0.000000
      3          1           0       -0.843817   -2.980493    0.000000
      4          8           0        0.085598    2.511996    0.000000
      5          1           0        0.277059    3.475765    0.000000
      6          1           0       -0.888171    2.380549    0.000000
 ---------------------------------------------------------------------

 SCF Done:  E(RHF) =  -33.6525272975     A.U. after   11 cycles
 E2 =    -0.2283446775D+00 EUMP2 =    -0.33880871974990D+02
 CCSD(T)
 CCSD(T)= -0.33897852865D+02

 The electronic state is 1-A'.
 Alpha  occ. eigenvalues --   -1.36429  -1.34895  -0.72081  -0.70509  -0.56212
 Alpha  occ. eigenvalues --   -0.54642  -0.51009  -0.49473
 Alpha virt. eigenvalues --    0.19169   0.21114   0.29626   0.31250   0.79558
 Alpha virt. eigenvalues --    0.81058   0.82441   0.84072   0.85532   0.87321
 Alpha virt. eigenvalues --    1.16469   1.18098   1.20946   1.22776   2.56324

 Mulliken charges:
               1
     1  O   -0.744084
     2  H    0.377737
     3  H    0.366299
     4  O   -0.744395
     5  H    0.375852
     6  H    0.368592
 Sum of Mulliken charges =  -0.00000

 Dipole moment (field-independent basis, Debye):
    X=             -3.9299    Y=              3.5275    Z=              0.0000  Tot=              5.2808
 Quadrupole moment (field-independent basis, Debye-Ang):
   XX=            -10.8048   YY=             -8.1282   ZZ=            -14.9895
   XY=              3.2612   XZ=              0.0000   YZ=              0.0000

 81\MP4DQ=-33.8922112\MP4SDQ=-33.8942384\CCSD=-33.8952911\CCSD(T)=-33.8
 Normal termination of Gaussian 16 at Sun Dec 10 06:43:41 2023.
