 Gaussian 16, Revision A.03,
 Gaussian 16:  ES64L-G16RevA.03 25-Dec-2016

 ------------------
 #p CCSD(T)/CEP-31G
 ------------------

 ----------
 H2O_H2O_57
 ----------
 Symbolic Z-matrix:
 Charge =  0 Multiplicity = 1

                         Standard orientation:
 ---------------------------------------------------------------------
 Center     Atomic      Atomic             Coordinates (Angstroms)
 Number     Number       Type             X           Y           Z
 ---------------------------------------------------------------------
      1          8           0        0.073608   -1.125305    0.000000
      2          1           0        0.072027   -0.142705    0.000000
      3          1           0       -0.855371   -1.445467    0.000000
      4          8           0        0.073608    0.958491    0.000000
      5          1           0        0.506783    1.840458    0.000000
      6          1           0       -0.901173    1.082223    0.000000
 ---------------------------------------------------------------------

 SCF Done:  E(RHF) =  -33.5855913902     A.U. after   11 cycles
 E2 =    -0.2277635270D+00 EUMP2 =    -0.33813354917230D+02
 CCSD(T)
 CCSD(T)= -0.33828153365D+02

 The electronic state is 1-A'.
 Alpha  occ. eigenvalues --   -1.46736  -1.27491  -0.83535  -0.75570  -0.59259
 Alpha  occ. eigenvalues --   -0.54643  -0.44556  -0.41386
 Alpha virt. eigenvalues --    0.15901   0.23722   0.30423   0.61778   0.73113
 Alpha virt. eigenvalues --    0.74132   0.89339   0.91490   0.94698   1.08160
 Alpha virt. eigenvalues --    1.10109   1.20578   1.28800   1.39511   3.07699

 Mulliken charges:
               1
     1  O   -0.708113
     2  H    0.263757
     3  H    0.296126
     4  O   -0.765056
     5  H    0.498687
     6  H    0.414600
 Sum of Mulliken charges =   0.00000

 Dipole moment (field-independent basis, Debye):
    X=             -2.9461    Y=              5.4775    Z=              0.0000  Tot=              6.2195
 Quadrupole moment (field-independent basis, Debye-Ang):
   XX=            -10.1104   YY=            -10.6228   ZZ=            -14.9005
   XY=              2.9948   XZ=              0.0000   YZ=              0.0000

 6\MP4DQ=-33.821798\MP4SDQ=-33.8242884\CCSD=-33.8248976\CCSD(T)=-33.828
 Normal termination of Gaussian 16 at Sun Dec 10 06:19:09 2023.
