 Gaussian 16, Revision A.03,
 Gaussian 16:  ES64L-G16RevA.03 25-Dec-2016

 ------------------
 #p CCSD(T)/CEP-31G
 ------------------

 ------------
 H2O_H2O_4383
 ------------
 Symbolic Z-matrix:
 Charge =  0 Multiplicity = 1

                         Standard orientation:
 ---------------------------------------------------------------------
 Center     Atomic      Atomic             Coordinates (Angstroms)
 Number     Number       Type             X           Y           Z
 ---------------------------------------------------------------------
      1          8           0        0.070185    2.852318    0.000000
      2          1           0        0.069487    1.869717    0.000000
      3          1           0       -0.859081    3.171645   -0.000000
      4          8           0        0.070185   -2.682051    0.000000
      5          1           0        0.560882   -3.533358    0.000000
      6          1           0       -0.894247   -2.870138   -0.000000
 ---------------------------------------------------------------------

 SCF Done:  E(RHF) =  -33.6529249952     A.U. after   11 cycles
 E2 =    -0.2283192881D+00 EUMP2 =    -0.33881244283295D+02
 CCSD(T)
 CCSD(T)= -0.33898212463D+02

 The electronic state is 1-A'.
 Alpha  occ. eigenvalues --   -1.36297  -1.34754  -0.71941  -0.70376  -0.56099
 Alpha  occ. eigenvalues --   -0.54520  -0.50885  -0.49341
 Alpha virt. eigenvalues --    0.19505   0.21143   0.29779   0.31412   0.79673
 Alpha virt. eigenvalues --    0.81183   0.82551   0.84187   0.85699   0.87339
 Alpha virt. eigenvalues --    1.16654   1.18199   1.21091   1.22739   2.56628

 Mulliken charges:
               1
     1  O   -0.745592
     2  H    0.378373
     3  H    0.367204
     4  O   -0.745422
     5  H    0.374909
     6  H    0.370529
 Sum of Mulliken charges =  -0.00000

 Dipole moment (field-independent basis, Debye):
    X=             -3.2246    Y=             -3.9986    Z=             -0.0000  Tot=              5.1368
 Quadrupole moment (field-independent basis, Debye-Ang):
   XX=            -10.0242   YY=             -6.0955   ZZ=            -14.9908
   XY=             -5.0450   XZ=              0.0000   YZ=             -0.0000

 305\MP4DQ=-33.8925759\MP4SDQ=-33.8946009\CCSD=-33.8956537\CCSD(T)=-33.
 Normal termination of Gaussian 16 at Sun Dec 10 06:51:53 2023.
