 Gaussian 16, Revision A.03,
 Gaussian 16:  ES64L-G16RevA.03 25-Dec-2016

 ------------------
 #p CCSD(T)/CEP-31G
 ------------------

 ------------
 H2O_H2O_1869
 ------------
 Symbolic Z-matrix:
 Charge =  0 Multiplicity = 1

                         Standard orientation:
 ---------------------------------------------------------------------
 Center     Atomic      Atomic             Coordinates (Angstroms)
 Number     Number       Type             X           Y           Z
 ---------------------------------------------------------------------
      1          8           0        0.030249    1.848042   -0.000000
      2          1           0        0.027223    0.865445   -0.000000
      3          1           0       -0.898258    2.169569   -0.000000
      4          8           0        0.030249   -1.672476    0.000000
      5          1           0        0.959727   -1.991187    0.000000
      6          1           0       -0.572675   -2.448356    0.000000
 ---------------------------------------------------------------------

 SCF Done:  E(RHF) =  -33.6594820007     A.U. after   11 cycles
 E2 =    -0.2286089098D+00 EUMP2 =    -0.33888090910452D+02
 CCSD(T)
 CCSD(T)= -0.33904944779D+02

 The electronic state is 1-A'.
 Alpha  occ. eigenvalues --   -1.37485  -1.32970  -0.73144  -0.68670  -0.57788
 Alpha  occ. eigenvalues --   -0.52827  -0.52160  -0.47643
 Alpha virt. eigenvalues --    0.18059   0.24313   0.28956   0.35999   0.78033
 Alpha virt. eigenvalues --    0.82099   0.83205   0.86354   0.88551   0.93166
 Alpha virt. eigenvalues --    1.15637   1.19763   1.20855   1.33943   2.51349

 Mulliken charges:
               1
     1  O   -0.773821
     2  H    0.408768
     3  H    0.362653
     4  O   -0.768857
     5  H    0.385361
     6  H    0.385897
 Sum of Mulliken charges =  -0.00000

 Dipole moment (field-independent basis, Debye):
    X=             -1.3599    Y=             -4.3467    Z=              0.0000  Tot=              4.5544
 Quadrupole moment (field-independent basis, Debye-Ang):
   XX=             -9.4542   YY=             -7.7480   ZZ=            -15.0039
   XY=             -5.7259   XZ=              0.0000   YZ=             -0.0000

 59\MP4DQ=-33.8992185\MP4SDQ=-33.9012988\CCSD=-33.902318\CCSD(T)=-33.90
 Normal termination of Gaussian 16 at Sun Dec 10 06:54:10 2023.
