 Gaussian 16, Revision A.03,
 Gaussian 16:  ES64L-G16RevA.03 25-Dec-2016

 ------------------
 #p CCSD(T)/CEP-31G
 ------------------

 ------------
 H2O_H2O_4679
 ------------
 Symbolic Z-matrix:
 Charge =  0 Multiplicity = 1

                         Standard orientation:
 ---------------------------------------------------------------------
 Center     Atomic      Atomic             Coordinates (Angstroms)
 Number     Number       Type             X           Y           Z
 ---------------------------------------------------------------------
      1          8           0        0.082797    2.963433   -0.000000
      2          1           0        0.082499    1.980832   -0.000000
      3          1           0       -0.846599    3.282382   -0.000000
      4          8           0        0.082797   -2.808902    0.000000
      5          1           0        0.336825   -3.758099    0.000000
      6          1           0       -0.897481   -2.741366    0.000000
 ---------------------------------------------------------------------

 SCF Done:  E(RHF) =  -33.6523922742     A.U. after   11 cycles
 E2 =    -0.2283414937D+00 EUMP2 =    -0.33880733767866D+02
 CCSD(T)
 CCSD(T)= -0.33897717712D+02

 The electronic state is 1-A'.
 Alpha  occ. eigenvalues --   -1.36254  -1.34993  -0.71898  -0.70614  -0.56026
 Alpha  occ. eigenvalues --   -0.54741  -0.50833  -0.49571
 Alpha virt. eigenvalues --    0.19523   0.20862   0.29796   0.31111   0.79726
 Alpha virt. eigenvalues --    0.80964   0.82669   0.83974   0.85763   0.87132
 Alpha virt. eigenvalues --    1.16674   1.17935   1.21124   1.22435   2.56653

 Mulliken charges:
               1
     1  O   -0.743527
     2  H    0.376035
     3  H    0.367488
     4  O   -0.743648
     5  H    0.374349
     6  H    0.369303
 Sum of Mulliken charges =   0.00000

 Dipole moment (field-independent basis, Debye):
    X=             -3.8091    Y=             -3.6232    Z=              0.0000  Tot=              5.2570
 Quadrupole moment (field-independent basis, Debye-Ang):
   XX=            -10.6362   YY=             -7.4062   ZZ=            -14.9895
   XY=             -3.7266   XZ=              0.0000   YZ=             -0.0000

 342\MP4DQ=-33.8920772\MP4SDQ=-33.8941034\CCSD=-33.8951576\CCSD(T)=-33.
 Normal termination of Gaussian 16 at Sun Dec 10 06:57:13 2023.
