 Gaussian 16, Revision A.03,
 Gaussian 16:  ES64L-G16RevA.03 25-Dec-2016

 ------------------
 #p CCSD(T)/CEP-31G
 ------------------

 -----------
 H2O_H2O_410
 -----------
 Symbolic Z-matrix:
 Charge =  0 Multiplicity = 1

                         Standard orientation:
 ---------------------------------------------------------------------
 Center     Atomic      Atomic             Coordinates (Angstroms)
 Number     Number       Type             X           Y           Z
 ---------------------------------------------------------------------
      1          8           0        0.063327    1.269565   -0.000000
      2          1           0        0.061193    0.286966   -0.000000
      3          1           0       -0.865472    1.590249   -0.000000
      4          8           0        0.063327   -1.094188    0.000000
      5          1           0        0.659803   -1.875036    0.000000
      6          1           0       -0.868759   -1.405190    0.000000
 ---------------------------------------------------------------------

 SCF Done:  E(RHF) =  -33.6447359229     A.U. after   11 cycles
 E2 =    -0.2287819003D+00 EUMP2 =    -0.33873517823244D+02
 CCSD(T)
 CCSD(T)= -0.33888994826D+02

 The electronic state is 1-A'.
 Alpha  occ. eigenvalues --   -1.42005  -1.29074  -0.77553  -0.72381  -0.57586
 Alpha  occ. eigenvalues --   -0.56315  -0.47585  -0.43406
 Alpha virt. eigenvalues --    0.16702   0.26020   0.28676   0.56499   0.73682
 Alpha virt. eigenvalues --    0.74405   0.85939   0.89721   0.95837   1.05377
 Alpha virt. eigenvalues --    1.14066   1.18691   1.24520   1.35348   2.77385

 Mulliken charges:
               1
     1  O   -0.756324
     2  H    0.401539
     3  H    0.321186
     4  O   -0.834691
     5  H    0.459102
     6  H    0.409187
 Sum of Mulliken charges =  -0.00000

 Dipole moment (field-independent basis, Debye):
    X=             -2.6296    Y=             -5.1157    Z=              0.0000  Tot=              5.7520
 Quadrupole moment (field-independent basis, Debye-Ang):
   XX=             -9.7232   YY=             -9.8983   ZZ=            -14.9916
   XY=             -3.4822   XZ=              0.0000   YZ=             -0.0000

 22\MP4DQ=-33.8829254\MP4SDQ=-33.8851821\CCSD=-33.8859383\CCSD(T)=-33.8
 Normal termination of Gaussian 16 at Sun Dec 10 06:26:08 2023.
