 Gaussian 16, Revision A.03,
 Gaussian 16:  ES64L-G16RevA.03 25-Dec-2016

 ------------------
 #p CCSD(T)/CEP-31G
 ------------------

 ------------
 H2O_H2O_1171
 ------------
 Symbolic Z-matrix:
 Charge =  0 Multiplicity = 1

                         Standard orientation:
 ---------------------------------------------------------------------
 Center     Atomic      Atomic             Coordinates (Angstroms)
 Number     Number       Type             X           Y           Z
 ---------------------------------------------------------------------
      1          8           0       -0.023329    1.565984    0.000000
      2          1           0       -0.019332    0.583390    0.000000
      3          1           0        0.904860    1.888428    0.000000
      4          8           0       -0.023329   -1.395662    0.000000
      5          1           0       -0.986262   -1.591277    0.000000
      6          1           0        0.474002   -2.243111    0.000000
 ---------------------------------------------------------------------

 SCF Done:  E(RHF) =  -33.6624964408     A.U. after   11 cycles
 E2 =    -0.2287890866D+00 EUMP2 =    -0.33891285527368D+02
 CCSD(T)
 CCSD(T)= -0.33907931607D+02

 The electronic state is 1-A'.
 Alpha  occ. eigenvalues --   -1.38537  -1.31797  -0.74286  -0.68104  -0.59105
 Alpha  occ. eigenvalues --   -0.53242  -0.51478  -0.46481
 Alpha virt. eigenvalues --    0.17720   0.26086   0.28176   0.42678   0.76039
 Alpha virt. eigenvalues --    0.78674   0.85558   0.86400   0.91287   1.06208
 Alpha virt. eigenvalues --    1.16099   1.17719   1.22585   1.36134   2.51478

 Mulliken charges:
               1
     1  O   -0.784934
     2  H    0.422659
     3  H    0.358182
     4  O   -0.801582
     5  H    0.395077
     6  H    0.410598
 Sum of Mulliken charges =   0.00000

 Dipole moment (field-independent basis, Debye):
    X=              1.0431    Y=             -4.4260    Z=              0.0000  Tot=              4.5473
 Quadrupole moment (field-independent basis, Debye-Ang):
   XX=             -9.5567   YY=             -8.6209   ZZ=            -15.0139
   XY=              5.0972   XZ=              0.0000   YZ=              0.0000

 4\MP4DQ=-33.9021037\MP4SDQ=-33.9042222\CCSD=-33.9051963\CCSD(T)=-33.90
 Normal termination of Gaussian 16 at Sun Dec 10 06:40:34 2023.
