 Gaussian 16, Revision A.03,
 Gaussian 16:  ES64L-G16RevA.03 25-Dec-2016

 ------------------
 #p CCSD(T)/CEP-31G
 ------------------

 ------------
 H2O_H2O_1535
 ------------
 Symbolic Z-matrix:
 Charge =  0 Multiplicity = 1

                         Standard orientation:
 ---------------------------------------------------------------------
 Center     Atomic      Atomic             Coordinates (Angstroms)
 Number     Number       Type             X           Y           Z
 ---------------------------------------------------------------------
      1          8           0        0.063275    1.718339    0.000000
      2          1           0        0.061728    0.735739    0.000000
      3          1           0       -0.865715    2.038468    0.000000
      4          8           0        0.063275   -1.542887   -0.000000
      5          1           0        0.660217   -2.323378   -0.000000
      6          1           0       -0.868626   -1.854445   -0.000000
 ---------------------------------------------------------------------

 SCF Done:  E(RHF) =  -33.6596263487     A.U. after   11 cycles
 E2 =    -0.2288653948D+00 EUMP2 =    -0.33888491743568D+02
 CCSD(T)
 CCSD(T)= -0.33905322732D+02

 The electronic state is 1-A'.
 Alpha  occ. eigenvalues --   -1.37944  -1.32594  -0.73623  -0.68375  -0.58312
 Alpha  occ. eigenvalues --   -0.52614  -0.52343  -0.47230
 Alpha virt. eigenvalues --    0.17752   0.24925   0.28516   0.38463   0.77212
 Alpha virt. eigenvalues --    0.80877   0.84079   0.85617   0.91038   0.98460
 Alpha virt. eigenvalues --    1.15094   1.19414   1.20968   1.35072   2.49913

 Mulliken charges:
               1
     1  O   -0.774161
     2  H    0.418915
     3  H    0.353488
     4  O   -0.776950
     5  H    0.398740
     6  H    0.379969
 Sum of Mulliken charges =   0.00000

 Dipole moment (field-independent basis, Debye):
    X=             -2.8225    Y=             -4.4295    Z=             -0.0000  Tot=              5.2523
 Quadrupole moment (field-independent basis, Debye-Ang):
   XX=             -9.7728   YY=             -8.1157   ZZ=            -15.0049
   XY=             -4.1498   XZ=             -0.0000   YZ=              0.0000

 202\MP4DQ=-33.8995399\MP4SDQ=-33.901641\CCSD=-33.9026484\CCSD(T)=-33.9
 Normal termination of Gaussian 16 at Sun Dec 10 06:47:47 2023.
