 Gaussian 16, Revision A.03,
 Gaussian 16:  ES64L-G16RevA.03 25-Dec-2016

 ------------------
 #p CCSD(T)/CEP-31G
 ------------------

 ------------
 H2O_H2O_1711
 ------------
 Symbolic Z-matrix:
 Charge =  0 Multiplicity = 1

                         Standard orientation:
 ---------------------------------------------------------------------
 Center     Atomic      Atomic             Coordinates (Angstroms)
 Number     Number       Type             X           Y           Z
 ---------------------------------------------------------------------
      1          8           0        0.059678    1.789198   -0.000000
      2          1           0        0.058016    0.806598   -0.000000
      3          1           0       -0.869274    2.109437   -0.000000
      4          8           0        0.059678   -1.611804    0.000000
      5          1           0        0.706301   -2.351658    0.000000
      6          1           0       -0.849894   -1.983536    0.000000
 ---------------------------------------------------------------------

 SCF Done:  E(RHF) =  -33.6591631098     A.U. after   11 cycles
 E2 =    -0.2287639218D+00 EUMP2 =    -0.33887927031581D+02
 CCSD(T)
 CCSD(T)= -0.33904781283D+02

 The electronic state is 1-A'.
 Alpha  occ. eigenvalues --   -1.37704  -1.32801  -0.73368  -0.68503  -0.58019
 Alpha  occ. eigenvalues --   -0.52591  -0.52371  -0.47444
 Alpha virt. eigenvalues --    0.17902   0.24549   0.28717   0.37049   0.77680
 Alpha virt. eigenvalues --    0.81738   0.83589   0.85723   0.90272   0.94776
 Alpha virt. eigenvalues --    1.15337   1.19852   1.20662   1.34273   2.50366

 Mulliken charges:
               1
     1  O   -0.772431
     2  H    0.414395
     3  H    0.356050
     4  O   -0.770644
     5  H    0.393250
     6  H    0.379380
 Sum of Mulliken charges =   0.00000

 Dipole moment (field-independent basis, Debye):
    X=             -2.6742    Y=             -4.4311    Z=             -0.0000  Tot=              5.1755
 Quadrupole moment (field-independent basis, Debye-Ang):
   XX=             -9.6669   YY=             -7.8695   ZZ=            -15.0035
   XY=             -4.3996   XZ=              0.0000   YZ=             -0.0000

 77\MP4DQ=-33.8990281\MP4SDQ=-33.9011173\CCSD=-33.9021327\CCSD(T)=-33.9
 Normal termination of Gaussian 16 at Sun Dec 10 06:51:12 2023.
