 Gaussian 16, Revision A.03,
 Gaussian 16:  ES64L-G16RevA.03 25-Dec-2016

 ------------------
 #p CCSD(T)/CEP-31G
 ------------------

 ------------
 H2O_H2O_1184
 ------------
 Symbolic Z-matrix:
 Charge =  0 Multiplicity = 1

                         Standard orientation:
 ---------------------------------------------------------------------
 Center     Atomic      Atomic             Coordinates (Angstroms)
 Number     Number       Type             X           Y           Z
 ---------------------------------------------------------------------
      1          8           0        0.066805    1.577419   -0.000000
      2          1           0        0.065314    0.594819   -0.000000
      3          1           0       -0.862203    1.897496   -0.000000
      4          8           0        0.066805   -1.404384    0.000000
      5          1           0        0.611470   -2.222216    0.000000
      6          1           0       -0.883462   -1.654380    0.000000
 ---------------------------------------------------------------------

 SCF Done:  E(RHF) =  -33.6603288002     A.U. after   11 cycles
 E2 =    -0.2290312944D+00 EUMP2 =    -0.33889360094639D+02
 CCSD(T)
 CCSD(T)= -0.33906063628D+02

 The electronic state is 1-A'.
 Alpha  occ. eigenvalues --   -1.38588  -1.31996  -0.74311  -0.68221  -0.58939
 Alpha  occ. eigenvalues --   -0.53262  -0.51611  -0.46607
 Alpha virt. eigenvalues --    0.17473   0.25763   0.28024   0.42280   0.76077
 Alpha virt. eigenvalues --    0.78916   0.85394   0.85409   0.93017   1.05104
 Alpha virt. eigenvalues --    1.15117   1.18350   1.21691   1.35907   2.50780

 Mulliken charges:
               1
     1  O   -0.775595
     2  H    0.426387
     3  H    0.347312
     4  O   -0.794876
     5  H    0.413573
     6  H    0.383199
 Sum of Mulliken charges =   0.00000

 Dipole moment (field-independent basis, Debye):
    X=             -2.9413    Y=             -4.4919    Z=              0.0000  Tot=              5.3692
 Quadrupole moment (field-independent basis, Debye-Ang):
   XX=             -9.8926   YY=             -8.5758   ZZ=            -15.0088
   XY=             -3.8347   XZ=              0.0000   YZ=             -0.0000

 207\MP4DQ=-33.9002141\MP4SDQ=-33.9023445\CCSD=-33.903321\CCSD(T)=-33.9
 Normal termination of Gaussian 16 at Sun Dec 10 06:40:49 2023.
