 Gaussian 16, Revision A.03,
 Gaussian 16:  ES64L-G16RevA.03 25-Dec-2016

 ------------------
 #p CCSD(T)/CEP-31G
 ------------------

 ------------
 H2O_H2O_3358
 ------------
 Symbolic Z-matrix:
 Charge =  0 Multiplicity = 1

                         Standard orientation:
 ---------------------------------------------------------------------
 Center     Atomic      Atomic             Coordinates (Angstroms)
 Number     Number       Type             X           Y           Z
 ---------------------------------------------------------------------
      1          8           0        0.070195    2.443460   -0.000000
      2          1           0        0.069377    1.460859   -0.000000
      3          1           0       -0.859032    2.762901   -0.000000
      4          8           0        0.070195   -2.273211    0.000000
      5          1           0        0.560787   -3.124578    0.000000
      6          1           0       -0.894259   -2.461180    0.000000
 ---------------------------------------------------------------------

 SCF Done:  E(RHF) =  -33.6538178055     A.U. after   11 cycles
 E2 =    -0.2283302573D+00 EUMP2 =    -0.33882148062749D+02
 CCSD(T)
 CCSD(T)= -0.33899092250D+02

 The electronic state is 1-A'.
 Alpha  occ. eigenvalues --   -1.36591  -1.34397  -0.72242  -0.70008  -0.56446
 Alpha  occ. eigenvalues --   -0.54179  -0.51189  -0.48994
 Alpha virt. eigenvalues --    0.18965   0.21754   0.29492   0.31919   0.79381
 Alpha virt. eigenvalues --    0.81510   0.82275   0.84559   0.85340   0.87798
 Alpha virt. eigenvalues --    1.16382   1.18739   1.20772   1.24217   2.56375

 Mulliken charges:
               1
     1  O   -0.749093
     2  H    0.383691
     3  H    0.365065
     4  O   -0.748486
     5  H    0.377734
     6  H    0.371089
 Sum of Mulliken charges =   0.00000

 Dipole moment (field-independent basis, Debye):
    X=             -3.2115    Y=             -4.0430    Z=              0.0000  Tot=              5.1633
 Quadrupole moment (field-independent basis, Debye-Ang):
   XX=            -10.0273   YY=             -6.8181   ZZ=            -14.9924
   XY=             -4.6104   XZ=              0.0000   YZ=             -0.0000

 7042\MP4DQ=-33.8934528\MP4SDQ=-33.8954833\CCSD=-33.8965294\CCSD(T)=-33
 Normal termination of Gaussian 16 at Sun Dec 10 06:33:30 2023.
