 Gaussian 16, Revision A.03,
 Gaussian 16:  ES64L-G16RevA.03 25-Dec-2016

 ------------------
 #p CCSD(T)/CEP-31G
 ------------------

 ------------
 H2O_H2O_3088
 ------------
 Symbolic Z-matrix:
 Charge =  0 Multiplicity = 1

                         Standard orientation:
 ---------------------------------------------------------------------
 Center     Atomic      Atomic             Coordinates (Angstroms)
 Number     Number       Type             X           Y           Z
 ---------------------------------------------------------------------
      1          8           0        0.052299    2.339008    0.000000
      2          1           0        0.050765    1.356408    0.000000
      3          1           0       -0.876695    2.659125   -0.000000
      4          8           0        0.052299   -2.159118    0.000000
      5          1           0        0.790046   -2.808145    0.000000
      6          1           0       -0.800906   -2.646505   -0.000000
 ---------------------------------------------------------------------

 SCF Done:  E(RHF) =  -33.6549729671     A.U. after   11 cycles
 E2 =    -0.2283263210D+00 EUMP2 =    -0.33883299288114D+02
 CCSD(T)
 CCSD(T)= -0.33900213453D+02

 The electronic state is 1-A'.
 Alpha  occ. eigenvalues --   -1.36684  -1.34067  -0.72331  -0.69685  -0.56607
 Alpha  occ. eigenvalues --   -0.53883  -0.51301  -0.48683
 Alpha virt. eigenvalues --    0.18901   0.22183   0.29503   0.32313   0.79269
 Alpha virt. eigenvalues --    0.81802   0.82478   0.84789   0.85264   0.88001
 Alpha virt. eigenvalues --    1.16349   1.19189   1.20771   1.25209   2.56086

 Mulliken charges:
               1
     1  O   -0.753631
     2  H    0.387746
     3  H    0.365179
     4  O   -0.751585
     5  H    0.378458
     6  H    0.373833
 Sum of Mulliken charges =  -0.00000

 Dipole moment (field-independent basis, Debye):
    X=             -2.3860    Y=             -4.2918    Z=             -0.0000  Tot=              4.9104
 Quadrupole moment (field-independent basis, Debye-Ang):
   XX=             -9.5127   YY=             -6.4176   ZZ=            -14.9950
   XY=             -5.7377   XZ=              0.0000   YZ=             -0.0000

 04\MP4DQ=-33.8945735\MP4SDQ=-33.8966084\CCSD=-33.8976491\CCSD(T)=-33.9
 Normal termination of Gaussian 16 at Sun Dec 10 06:28:38 2023.
