 Gaussian 16, Revision A.03,
 Gaussian 16:  ES64L-G16RevA.03 25-Dec-2016

 ------------------
 #p CCSD(T)/CEP-31G
 ------------------

 ------------
 H2O_H2O_2200
 ------------
 Symbolic Z-matrix:
 Charge =  0 Multiplicity = 1

                         Standard orientation:
 ---------------------------------------------------------------------
 Center     Atomic      Atomic             Coordinates (Angstroms)
 Number     Number       Type             X           Y           Z
 ---------------------------------------------------------------------
      1          8           0        0.092949   -1.964402    0.000000
      2          1           0        0.092949   -0.981800    0.000000
      3          1           0       -0.836544   -2.283068    0.000000
      4          8           0        0.092949    1.831615    0.000000
      5          1           0        0.092949    2.814216    0.000000
      6          1           0       -0.836544    1.512948    0.000000
 ---------------------------------------------------------------------

 SCF Done:  E(RHF) =  -33.6527284272     A.U. after   11 cycles
 E2 =    -0.2287130373D+00 EUMP2 =    -0.33881441464538D+02
 CCSD(T)
 CCSD(T)= -0.33898475398D+02

 The electronic state is 1-A'.
 Alpha  occ. eigenvalues --   -1.37319  -1.34641  -0.73073  -0.70176  -0.57141
 Alpha  occ. eigenvalues --   -0.54345  -0.51885  -0.49199
 Alpha virt. eigenvalues --    0.16595   0.23176   0.28807   0.33126   0.78504
 Alpha virt. eigenvalues --    0.81591   0.82713   0.84346   0.87707   0.90440
 Alpha virt. eigenvalues --    1.15378   1.18500   1.20634   1.34381   2.55428

 Mulliken charges:
               1
     1  O   -0.746990
     2  H    0.385044
     3  H    0.360401
     4  O   -0.746734
     5  H    0.384282
     6  H    0.363997
 Sum of Mulliken charges =  -0.00000

 Dipole moment (field-independent basis, Debye):
    X=             -4.2249    Y=              3.2453    Z=              0.0000  Tot=              5.3275
 Quadrupole moment (field-independent basis, Debye-Ang):
   XX=            -11.3108   YY=             -9.5629   ZZ=            -14.9874
   XY=              2.2835   XZ=              0.0000   YZ=              0.0000

 133\MP4DQ=-33.8927444\MP4SDQ=-33.8948307\CCSD=-33.8958606\CCSD(T)=-33.
 Normal termination of Gaussian 16 at Sun Dec 10 07:00:46 2023.
