 Gaussian 16, Revision A.03,
 Gaussian 16:  ES64L-G16RevA.03 25-Dec-2016

 ------------------
 #p CCSD(T)/CEP-31G
 ------------------

 ------------
 H2O_H2O_1199
 ------------
 Symbolic Z-matrix:
 Charge =  0 Multiplicity = 1

                         Standard orientation:
 ---------------------------------------------------------------------
 Center     Atomic      Atomic             Coordinates (Angstroms)
 Number     Number       Type             X           Y           Z
 ---------------------------------------------------------------------
      1          8           0        0.013644   -1.569927    0.000000
      2          1           0        0.009122   -0.587336    0.000000
      3          1           0       -0.914372   -1.892868    0.000000
      4          8           0        0.013644    1.410708    0.000000
      5          1           0        0.996235    1.415230    0.000000
      6          1           0       -0.309297    2.338725    0.000000
 ---------------------------------------------------------------------

 SCF Done:  E(RHF) =  -33.6610922330     A.U. after   11 cycles
 E2 =    -0.2286836440D+00 EUMP2 =    -0.33889775877001D+02
 CCSD(T)
 CCSD(T)= -0.33906529474D+02

 The electronic state is 1-A'.
 Alpha  occ. eigenvalues --   -1.38489  -1.32242  -0.74411  -0.68266  -0.59010
 Alpha  occ. eigenvalues --   -0.53150  -0.51944  -0.46929
 Alpha virt. eigenvalues --    0.17624   0.25881   0.28193   0.41820   0.76071
 Alpha virt. eigenvalues --    0.79304   0.85186   0.86328   0.89871   1.10157
 Alpha virt. eigenvalues --    1.16744   1.18067   1.22467   1.37384   2.51947

 Mulliken charges:
               1
     1  O   -0.780540
     2  H    0.410515
     3  H    0.363222
     4  O   -0.797415
     5  H    0.391493
     6  H    0.412726
 Sum of Mulliken charges =  -0.00000

 Dipole moment (field-independent basis, Debye):
    X=             -0.6110    Y=              4.1420    Z=              0.0000  Tot=              4.1868
 Quadrupole moment (field-independent basis, Debye-Ang):
   XX=             -9.8427   YY=             -8.7901   ZZ=            -15.0099
   XY=              5.5742   XZ=              0.0000   YZ=              0.0000

 736\MP4DQ=-33.9006855\MP4SDQ=-33.9028253\CCSD=-33.9038087\CCSD(T)=-33.
 Normal termination of Gaussian 16 at Sun Dec 10 06:41:06 2023.
