 Gaussian 16, Revision A.03,
 Gaussian 16:  ES64L-G16RevA.03 25-Dec-2016

 ------------------
 #p CCSD(T)/CEP-31G
 ------------------

 -----------
 H2O_H2O_109
 -----------
 Symbolic Z-matrix:
 Charge =  0 Multiplicity = 1

                         Standard orientation:
 ---------------------------------------------------------------------
 Center     Atomic      Atomic             Coordinates (Angstroms)
 Number     Number       Type             X           Y           Z
 ---------------------------------------------------------------------
      1          8           0        0.066858    1.148586   -0.000000
      2          1           0        0.064765    0.165987   -0.000000
      3          1           0       -0.861954    1.469231   -0.000000
      4          8           0        0.066858   -0.975633    0.000000
      5          1           0        0.611021   -1.793797    0.000000
      6          1           0       -0.883563   -1.225046   -0.000000
 ---------------------------------------------------------------------

 SCF Done:  E(RHF) =  -33.6023861181     A.U. after   11 cycles
 E2 =    -0.2279713159D+00 EUMP2 =    -0.33830357434072D+02
 CCSD(T)
 CCSD(T)= -0.33845122298D+02

 The electronic state is 1-A'.
 Alpha  occ. eigenvalues --   -1.45637  -1.27427  -0.81675  -0.76035  -0.58756
 Alpha  occ. eigenvalues --   -0.54939  -0.44670  -0.41390
 Alpha virt. eigenvalues --    0.16074   0.24470   0.30173   0.61517   0.73204
 Alpha virt. eigenvalues --    0.73918   0.88076   0.91449   0.93670   1.08041
 Alpha virt. eigenvalues --    1.11065   1.19602   1.28158   1.35593   3.00448

 Mulliken charges:
               1
     1  O   -0.727916
     2  H    0.310095
     3  H    0.300419
     4  O   -0.788509
     5  H    0.485503
     6  H    0.420408
 Sum of Mulliken charges =  -0.00000

 Dipole moment (field-independent basis, Debye):
    X=             -2.6816    Y=             -5.5278    Z=              0.0000  Tot=              6.1439
 Quadrupole moment (field-independent basis, Debye-Ang):
   XX=             -9.8153   YY=            -10.5735   ZZ=            -14.9254
   XY=             -3.1764   XZ=              0.0000   YZ=             -0.0000

 15\MP4DQ=-33.838854\MP4SDQ=-33.8412684\CCSD=-33.8418866\CCSD(T)=-33.84
 Normal termination of Gaussian 16 at Sun Dec 10 06:20:11 2023.
