 Gaussian 16, Revision A.03,
 Gaussian 16:  ES64L-G16RevA.03 25-Dec-2016

 ------------------
 #p CCSD(T)/CEP-31G
 ------------------

 -----------
 H2O_H2O_213
 -----------
 Symbolic Z-matrix:
 Charge =  0 Multiplicity = 1

                         Standard orientation:
 ---------------------------------------------------------------------
 Center     Atomic      Atomic             Coordinates (Angstroms)
 Number     Number       Type             X           Y           Z
 ---------------------------------------------------------------------
      1          8           0        0.052445    1.192153   -0.000000
      2          1           0        0.049315    0.209557   -0.000000
      3          1           0       -0.876028    1.513779   -0.000000
      4          8           0        0.052445   -1.012434    0.000000
      5          1           0        0.789137   -1.662658    0.000000
      6          1           0       -0.801551   -1.498434    0.000000
 ---------------------------------------------------------------------

 SCF Done:  E(RHF) =  -33.6255287873     A.U. after   11 cycles
 E2 =    -0.2282604522D+00 EUMP2 =    -0.33853789239465D+02
 CCSD(T)
 CCSD(T)= -0.33868619649D+02

 The electronic state is 1-A'.
 Alpha  occ. eigenvalues --   -1.43976  -1.27557  -0.78381  -0.76480  -0.57834
 Alpha  occ. eigenvalues --   -0.55770  -0.45219  -0.41680
 Alpha virt. eigenvalues --    0.16443   0.25563   0.29709   0.60627   0.73382
 Alpha virt. eigenvalues --    0.73429   0.86367   0.91150   0.92960   1.06102
 Alpha virt. eigenvalues --    1.12501   1.16642   1.27341   1.34873   2.88105

 Mulliken charges:
               1
     1  O   -0.754325
     2  H    0.363241
     3  H    0.311126
     4  O   -0.811321
     5  H    0.458922
     6  H    0.432356
 Sum of Mulliken charges =  -0.00000

 Dipole moment (field-independent basis, Debye):
    X=             -2.1404    Y=             -5.5111    Z=              0.0000  Tot=              5.9121
 Quadrupole moment (field-independent basis, Debye-Ang):
   XX=             -9.4016   YY=            -10.4357   ZZ=            -14.9629
   XY=             -3.4213   XZ=              0.0000   YZ=             -0.0000

 75\MP4DQ=-33.8624842\MP4SDQ=-33.8647847\CCSD=-33.86543\CCSD(T)=-33.868
 Normal termination of Gaussian 16 at Sun Dec 10 06:22:15 2023.
