 Gaussian 16, Revision A.03,
 Gaussian 16:  ES64L-G16RevA.03 25-Dec-2016

 ------------------
 #p CCSD(T)/CEP-31G
 ------------------

 ------------
 H2O_H2O_2227
 ------------
 Symbolic Z-matrix:
 Charge =  0 Multiplicity = 1

                         Standard orientation:
 ---------------------------------------------------------------------
 Center     Atomic      Atomic             Coordinates (Angstroms)
 Number     Number       Type             X           Y           Z
 ---------------------------------------------------------------------
      1          8           0        0.088234   -1.980635    0.000000
      2          1           0        0.088024   -0.998033    0.000000
      3          1           0       -0.841191   -2.299499    0.000000
      4          8           0        0.088234    1.836321    0.000000
      5          1           0        0.216282    2.810544    0.000000
      6          1           0       -0.874859    1.641498    0.000000
 ---------------------------------------------------------------------

 SCF Done:  E(RHF) =  -33.6536757026     A.U. after   11 cycles
 E2 =    -0.2286491655D+00 EUMP2 =    -0.33882324868148D+02
 CCSD(T)
 CCSD(T)= -0.33899330182D+02

 The electronic state is 1-A'.
 Alpha  occ. eigenvalues --   -1.37276  -1.34352  -0.73001  -0.69908  -0.57150
 Alpha  occ. eigenvalues --   -0.54080  -0.51857  -0.48926
 Alpha virt. eigenvalues --    0.17029   0.23148   0.28881   0.33138   0.78563
 Alpha virt. eigenvalues --    0.81799   0.82816   0.84602   0.87959   0.89969
 Alpha virt. eigenvalues --    1.15429   1.18898   1.20535   1.33863   2.54865

 Mulliken charges:
               1
     1  O   -0.750463
     2  H    0.388762
     3  H    0.360025
     4  O   -0.749812
     5  H    0.384618
     6  H    0.366871
 Sum of Mulliken charges =  -0.00000

 Dipole moment (field-independent basis, Debye):
    X=             -4.0096    Y=              3.5258    Z=              0.0000  Tot=              5.3393
 Quadrupole moment (field-independent basis, Debye-Ang):
   XX=            -10.9909   YY=             -8.9203   ZZ=            -14.9902
   XY=              2.7735   XZ=              0.0000   YZ=              0.0000

 731\MP4DQ=-33.8936093\MP4SDQ=-33.8956909\CCSD=-33.8967215\CCSD(T)=-33.
 Normal termination of Gaussian 16 at Sun Dec 10 07:01:20 2023.
