 Gaussian 16, Revision A.03,
 Gaussian 16:  ES64L-G16RevA.03 25-Dec-2016

 ------------------
 #p CCSD(T)/CEP-31G
 ------------------

 ------------
 H2O_H2O_3281
 ------------
 Symbolic Z-matrix:
 Charge =  0 Multiplicity = 1

                         Standard orientation:
 ---------------------------------------------------------------------
 Center     Atomic      Atomic             Coordinates (Angstroms)
 Number     Number       Type             X           Y           Z
 ---------------------------------------------------------------------
      1          8           0        0.076757    2.409721   -0.000000
      2          1           0        0.076166    1.427120   -0.000000
      3          1           0       -0.852545    2.728946   -0.000000
      4          8           0        0.076757   -2.246510    0.000000
      5          1           0        0.452237   -3.154541    0.000000
      6          1           0       -0.903968   -2.307213    0.000000
 ---------------------------------------------------------------------

 SCF Done:  E(RHF) =  -33.6535466135     A.U. after   11 cycles
 E2 =    -0.2283485459D+00 EUMP2 =    -0.33881895159336D+02
 CCSD(T)
 CCSD(T)= -0.33898848465D+02

 The electronic state is 1-A'.
 Alpha  occ. eigenvalues --   -1.36631  -1.34484  -0.72287  -0.70090  -0.56471
 Alpha  occ. eigenvalues --   -0.54254  -0.51224  -0.49074
 Alpha virt. eigenvalues --    0.18774   0.21749   0.29433   0.31829   0.79349
 Alpha virt. eigenvalues --    0.81436   0.82307   0.84470   0.85331   0.87783
 Alpha virt. eigenvalues --    1.16298   1.18700   1.20721   1.24454   2.56341

 Mulliken charges:
               1
     1  O   -0.748085
     2  H    0.383031
     3  H    0.364693
     4  O   -0.747796
     5  H    0.378049
     6  H    0.370108
 Sum of Mulliken charges =   0.00000

 Dipole moment (field-independent basis, Debye):
    X=             -3.5119    Y=             -3.8810    Z=              0.0000  Tot=              5.2341
 Quadrupole moment (field-independent basis, Debye-Ang):
   XX=            -10.3227   YY=             -7.3491   ZZ=            -14.9917
   XY=             -4.0255   XZ=              0.0000   YZ=             -0.0000

 58\MP4DQ=-33.893205\MP4SDQ=-33.8952374\CCSD=-33.8962835\CCSD(T)=-33.89
 Normal termination of Gaussian 16 at Sun Dec 10 06:32:07 2023.
