 Gaussian 16, Revision A.03,
 Gaussian 16:  ES64L-G16RevA.03 25-Dec-2016

 ------------------
 #p CCSD(T)/CEP-31G
 ------------------

 -----------
 H2O_H2O_646
 -----------
 Symbolic Z-matrix:
 Charge =  0 Multiplicity = 1

                         Standard orientation:
 ---------------------------------------------------------------------
 Center     Atomic      Atomic             Coordinates (Angstroms)
 Number     Number       Type             X           Y           Z
 ---------------------------------------------------------------------
      1          8           0       -0.023386    1.356559    0.000000
      2          1           0       -0.018731    0.373969    0.000000
      3          1           0        0.904587    1.679626    0.000000
      4          8           0       -0.023386   -1.186270    0.000000
      5          1           0       -0.986189   -1.382528    0.000000
      6          1           0        0.474511   -2.033385    0.000000
 ---------------------------------------------------------------------

 SCF Done:  E(RHF) =  -33.6575676538     A.U. after   11 cycles
 E2 =    -0.2285215212D+00 EUMP2 =    -0.33886089175053D+02
 CCSD(T)
 CCSD(T)= -0.33902084799D+02

 The electronic state is 1-A'.
 Alpha  occ. eigenvalues --   -1.40372  -1.30035  -0.76293  -0.69419  -0.59213
 Alpha  occ. eigenvalues --   -0.54955  -0.49112  -0.44611
 Alpha virt. eigenvalues --    0.17379   0.26949   0.27886   0.51695   0.74299
 Alpha virt. eigenvalues --    0.75850   0.86581   0.88390   0.94067   1.03710
 Alpha virt. eigenvalues --    1.15824   1.20811   1.25245   1.37634   2.64174

 Mulliken charges:
               1
     1  O   -0.775768
     2  H    0.409123
     3  H    0.347072
     4  O   -0.834902
     5  H    0.411605
     6  H    0.442869
 Sum of Mulliken charges =   0.00000

 Dipole moment (field-independent basis, Debye):
    X=              1.0385    Y=             -4.7572    Z=              0.0000  Tot=              4.8692
 Quadrupole moment (field-independent basis, Debye-Ang):
   XX=             -9.5243   YY=             -9.3854   ZZ=            -15.0137
   XY=              4.3368   XZ=              0.0000   YZ=              0.0000

 9\MP4DQ=-33.8961485\MP4SDQ=-33.89832\CCSD=-33.8991798\CCSD(T)=-33.9020
 Normal termination of Gaussian 16 at Sun Dec 10 06:30:40 2023.
