 Gaussian 16, Revision A.03,
 Gaussian 16:  ES64L-G16RevA.03 25-Dec-2016

 ------------------
 #p CCSD(T)/CEP-31G
 ------------------

 ----------
 H2O_H2O_87
 ----------
 Symbolic Z-matrix:
 Charge =  0 Multiplicity = 1

                         Standard orientation:
 ---------------------------------------------------------------------
 Center     Atomic      Atomic             Coordinates (Angstroms)
 Number     Number       Type             X           Y           Z
 ---------------------------------------------------------------------
      1          8           0        0.056135    1.141754    0.000000
      2          1           0        0.053154    0.159157    0.000000
      3          1           0       -0.872387    1.463239    0.000000
      4          8           0        0.056135   -0.963028   -0.000000
      5          1           0        0.748828   -1.659936   -0.000000
      6          1           0       -0.827753   -1.392268   -0.000000
 ---------------------------------------------------------------------

 SCF Done:  E(RHF) =  -33.6006745168     A.U. after   11 cycles
 E2 =    -0.2277587318D+00 EUMP2 =    -0.33828433248551D+02
 CCSD(T)
 CCSD(T)= -0.33842988481D+02

 The electronic state is 1-A'.
 Alpha  occ. eigenvalues --   -1.45856  -1.26819  -0.80665  -0.78034  -0.59028
 Alpha  occ. eigenvalues --   -0.54440  -0.43765  -0.40727
 Alpha virt. eigenvalues --    0.16110   0.24839   0.30370   0.62043   0.73211
 Alpha virt. eigenvalues --    0.73554   0.86340   0.91887   0.92224   1.08378
 Alpha virt. eigenvalues --    1.11764   1.16738   1.29415   1.35124   2.97775

 Mulliken charges:
               1
     1  O   -0.740667
     2  H    0.309225
     3  H    0.300369
     4  O   -0.775674
     5  H    0.471606
     6  H    0.435141
 Sum of Mulliken charges =  -0.00000

 Dipole moment (field-independent basis, Debye):
    X=             -2.2479    Y=             -5.7189    Z=             -0.0000  Tot=              6.1448
 Quadrupole moment (field-independent basis, Debye-Ang):
   XX=             -9.4634   YY=            -10.7298   ZZ=            -14.9260
   XY=             -3.2630   XZ=             -0.0000   YZ=              0.0000

 45\MP4DQ=-33.8367551\MP4SDQ=-33.8391407\CCSD=-33.8397259\CCSD(T)=-33.8
 Normal termination of Gaussian 16 at Sun Dec 10 06:19:45 2023.
