 Gaussian 16, Revision A.03,
 Gaussian 16:  ES64L-G16RevA.03 25-Dec-2016

 ------------------
 #p CCSD(T)/CEP-31G
 ------------------

 ------------
 H2O_H2O_2578
 ------------
 Symbolic Z-matrix:
 Charge =  0 Multiplicity = 1

                         Standard orientation:
 ---------------------------------------------------------------------
 Center     Atomic      Atomic             Coordinates (Angstroms)
 Number     Number       Type             X           Y           Z
 ---------------------------------------------------------------------
      1          8           0        0.085603   -2.123109    0.000000
      2          1           0        0.085299   -1.140507    0.000000
      3          1           0       -0.843791   -2.442063    0.000000
      4          8           0        0.085603    1.973517    0.000000
      5          1           0        0.277001    2.937297    0.000000
      6          1           0       -0.888159    1.842007    0.000000
 ---------------------------------------------------------------------

 SCF Done:  E(RHF) =  -33.6536198798     A.U. after   11 cycles
 E2 =    -0.2285011551D+00 EUMP2 =    -0.33882121034926D+02
 CCSD(T)
 CCSD(T)= -0.33899098139D+02

 The electronic state is 1-A'.
 Alpha  occ. eigenvalues --   -1.37011  -1.34420  -0.72698  -0.70000  -0.56867
 Alpha  occ. eigenvalues --   -0.54168  -0.51599  -0.49002
 Alpha virt. eigenvalues --    0.17531   0.22585   0.29111   0.32310   0.78944
 Alpha virt. eigenvalues --    0.81572   0.82925   0.84559   0.86501   0.88022
 Alpha virt. eigenvalues --    1.15701   1.19067   1.20478   1.29628   2.55723

 Mulliken charges:
               1
     1  O   -0.749212
     2  H    0.386163
     3  H    0.361948
     4  O   -0.748592
     5  H    0.381588
     6  H    0.368107
 Sum of Mulliken charges =  -0.00000

 Dipole moment (field-independent basis, Debye):
    X=             -3.9019    Y=              3.6131    Z=              0.0000  Tot=              5.3178
 Quadrupole moment (field-independent basis, Debye-Ang):
   XX=            -10.8186   YY=             -8.5284   ZZ=            -14.9908
   XY=              3.0658   XZ=              0.0000   YZ=              0.0000

 2\MP4DQ=-33.8934165\MP4SDQ=-33.8954744\CCSD=-33.8965111\CCSD(T)=-33.89
 Normal termination of Gaussian 16 at Sun Dec 10 06:19:25 2023.
