 Gaussian 16, Revision A.03,
 Gaussian 16:  ES64L-G16RevA.03 25-Dec-2016

 ------------------
 #p CCSD(T)/CEP-31G
 ------------------

 ------------
 H2O_H2O_3889
 ------------
 Symbolic Z-matrix:
 Charge =  0 Multiplicity = 1

                         Standard orientation:
 ---------------------------------------------------------------------
 Center     Atomic      Atomic             Coordinates (Angstroms)
 Number     Number       Type             X           Y           Z
 ---------------------------------------------------------------------
      1          8           0        0.048565    2.658390   -0.000000
      2          1           0        0.047098    1.675790   -0.000000
      3          1           0       -0.880452    2.978444   -0.000000
      4          8           0        0.048565   -2.477982    0.000000
      5          1           0        0.827222   -3.077315    0.000000
      6          1           0       -0.770900   -3.020185    0.000000
 ---------------------------------------------------------------------

 SCF Done:  E(RHF) =  -33.6538415405     A.U. after   11 cycles
 E2 =    -0.2282908305D+00 EUMP2 =    -0.33882132370972D+02
 CCSD(T)
 CCSD(T)= -0.33899074204D+02

 The electronic state is 1-A'.
 Alpha  occ. eigenvalues --   -1.36397  -1.34450  -0.72038  -0.70077  -0.56251
 Alpha  occ. eigenvalues --   -0.54246  -0.50998  -0.49053
 Alpha virt. eigenvalues --    0.19409   0.21537   0.29735   0.31794   0.79560
 Alpha virt. eigenvalues --    0.81451   0.82327   0.84466   0.85573   0.87586
 Alpha virt. eigenvalues --    1.16593   1.18571   1.21030   1.23227   2.56552

 Mulliken charges:
               1
     1  O   -0.749125
     2  H    0.381791
     3  H    0.367239
     4  O   -0.748283
     5  H    0.375679
     6  H    0.372699
 Sum of Mulliken charges =   0.00000

 Dipole moment (field-independent basis, Debye):
    X=             -2.2254    Y=             -4.2525    Z=              0.0000  Tot=              4.7996
 Quadrupole moment (field-independent basis, Debye-Ang):
   XX=             -9.4616   YY=             -5.6614   ZZ=            -14.9928
   XY=             -6.6364   XZ=              0.0000   YZ=             -0.0000

 6932\MP4DQ=-33.8934426\MP4SDQ=-33.8954671\CCSD=-33.8965167\CCSD(T)=-33
 Normal termination of Gaussian 16 at Sun Dec 10 06:42:59 2023.
