 Gaussian 16, Revision A.03,
 Gaussian 16:  ES64L-G16RevA.03 25-Dec-2016

 ------------------
 #p CCSD(T)/CEP-31G
 ------------------

 ------------
 H2O_H2O_3903
 ------------
 Symbolic Z-matrix:
 Charge =  0 Multiplicity = 1

                         Standard orientation:
 ---------------------------------------------------------------------
 Center     Atomic      Atomic             Coordinates (Angstroms)
 Number     Number       Type             X           Y           Z
 ---------------------------------------------------------------------
      1          8           0        0.085598   -2.651626    0.000000
      2          1           0        0.085356   -1.669025    0.000000
      3          1           0       -0.843816   -2.970522    0.000000
      4          8           0        0.085598    2.502024    0.000000
      5          1           0        0.277057    3.465793    0.000000
      6          1           0       -0.888171    2.370576    0.000000
 ---------------------------------------------------------------------

 SCF Done:  E(RHF) =  -33.6525382374     A.U. after   11 cycles
 E2 =    -0.2283449914D+00 EUMP2 =    -0.33880883228835D+02
 CCSD(T)
 CCSD(T)= -0.33897863841D+02

 The electronic state is 1-A'.
 Alpha  occ. eigenvalues --   -1.36436  -1.34889  -0.72088  -0.70502  -0.56220
 Alpha  occ. eigenvalues --   -0.54637  -0.51016  -0.49467
 Alpha virt. eigenvalues --    0.19151   0.21130   0.29619   0.31258   0.79552
 Alpha virt. eigenvalues --    0.81063   0.82431   0.84077   0.85524   0.87332
 Alpha virt. eigenvalues --    1.16459   1.18109   1.20939   1.22804   2.56313

 Mulliken charges:
               1
     1  O   -0.744128
     2  H    0.377826
     3  H    0.366249
     4  O   -0.744444
     5  H    0.375917
     6  H    0.368579
 Sum of Mulliken charges =   0.00000

 Dipole moment (field-independent basis, Debye):
    X=             -3.9295    Y=              3.5284    Z=              0.0000  Tot=              5.2811
 Quadrupole moment (field-independent basis, Debye-Ang):
   XX=            -10.8050   YY=             -8.1357   ZZ=            -14.9896
   XY=              3.2576   XZ=              0.0000   YZ=              0.0000

 479\MP4DQ=-33.8922221\MP4SDQ=-33.8942494\CCSD=-33.8953019\CCSD(T)=-33.
 Normal termination of Gaussian 16 at Sun Dec 10 06:43:14 2023.
