 Gaussian 16, Revision A.03,
 Gaussian 16:  ES64L-G16RevA.03 25-Dec-2016

 ------------------
 #p CCSD(T)/CEP-31G
 ------------------

 ------------
 H2O_H2O_2223
 ------------
 Symbolic Z-matrix:
 Charge =  0 Multiplicity = 1

                         Standard orientation:
 ---------------------------------------------------------------------
 Center     Atomic      Atomic             Coordinates (Angstroms)
 Number     Number       Type             X           Y           Z
 ---------------------------------------------------------------------
      1          8           0       -0.016672    1.981027    0.000000
      2          1           0       -0.013262    0.998431    0.000000
      3          1           0        0.911709    2.302917    0.000000
      4          8           0       -0.016672   -1.817655    0.000000
      5          1           0       -0.996941   -1.885323    0.000000
      6          1           0        0.365248   -2.722997    0.000000
 ---------------------------------------------------------------------

 SCF Done:  E(RHF) =  -33.6574973202     A.U. after   11 cycles
 E2 =    -0.2284640556D+00 EUMP2 =    -0.33885961375805D+02
 CCSD(T)
 CCSD(T)= -0.33902862049D+02

 The electronic state is 1-A'.
 Alpha  occ. eigenvalues --   -1.37163  -1.33666  -0.72838  -0.69327  -0.57266
 Alpha  occ. eigenvalues --   -0.53536  -0.51808  -0.48325
 Alpha virt. eigenvalues --    0.17919   0.23501   0.29178   0.33875   0.78606
 Alpha virt. eigenvalues --    0.82306   0.82766   0.85396   0.87792   0.89672
 Alpha virt. eigenvalues --    1.15866   1.19845   1.20534   1.32987   2.54008

 Mulliken charges:
               1
     1  O   -0.765428
     2  H    0.395774
     3  H    0.367581
     4  O   -0.761142
     5  H    0.380269
     6  H    0.382947
 Sum of Mulliken charges =   0.00000

 Dipole moment (field-independent basis, Debye):
    X=              0.7516    Y=             -3.9828    Z=              0.0000  Tot=              4.0531
 Quadrupole moment (field-independent basis, Debye-Ang):
   XX=             -9.7587   YY=             -7.9333   ZZ=            -14.9993
   XY=              6.9177   XZ=              0.0000   YZ=              0.0000

 147\MP4DQ=-33.8971669\MP4SDQ=-33.8992373\CCSD=-33.9002637\CCSD(T)=-33.
 Normal termination of Gaussian 16 at Sun Dec 10 07:01:15 2023.
