 Gaussian 16, Revision A.03,
 Gaussian 16:  ES64L-G16RevA.03 25-Dec-2016

 ------------------
 #p CCSD(T)/CEP-31G
 ------------------

 ----------
 H2O_H2O_37
 ----------
 Symbolic Z-matrix:
 Charge =  0 Multiplicity = 1

                         Standard orientation:
 ---------------------------------------------------------------------
 Center     Atomic      Atomic             Coordinates (Angstroms)
 Number     Number       Type             X           Y           Z
 ---------------------------------------------------------------------
      1          8           0        0.056140    1.121807    0.000000
      2          1           0        0.053102    0.139210    0.000000
      3          1           0       -0.872363    1.443346    0.000000
      4          8           0        0.056140   -0.943087   -0.000000
      5          1           0        0.748793   -1.640037   -0.000000
      6          1           0       -0.827774   -1.372276   -0.000000
 ---------------------------------------------------------------------

 SCF Done:  E(RHF) =  -33.5875774074     A.U. after   11 cycles
 E2 =    -0.2274635967D+00 EUMP2 =    -0.33815041004153D+02
 CCSD(T)
 CCSD(T)= -0.33829491219D+02

 The electronic state is 1-A'.
 Alpha  occ. eigenvalues --   -1.46755  -1.26472  -0.81680  -0.78721  -0.59566
 Alpha  occ. eigenvalues --   -0.53851  -0.43054  -0.40276
 Alpha virt. eigenvalues --    0.15979   0.24562   0.30657   0.62397   0.73151
 Alpha virt. eigenvalues --    0.73622   0.85810   0.91969   0.92210   1.08987
 Alpha virt. eigenvalues --    1.11787   1.16678   1.30492   1.35995   3.01406

 Mulliken charges:
               1
     1  O   -0.735554
     2  H    0.279060
     3  H    0.296116
     4  O   -0.752498
     5  H    0.474646
     6  H    0.438229
 Sum of Mulliken charges =  -0.00000

 Dipole moment (field-independent basis, Debye):
    X=             -2.2329    Y=             -5.8224    Z=             -0.0000  Tot=              6.2359
 Quadrupole moment (field-independent basis, Debye-Ang):
   XX=             -9.4555   YY=            -10.8555   ZZ=            -14.9086
   XY=             -3.2067   XZ=             -0.0000   YZ=              0.0000

 \MP4DQ=-33.8232181\MP4SDQ=-33.8256418\CCSD=-33.8262011\CCSD(T)=-33.829
 Normal termination of Gaussian 16 at Sun Dec 10 06:18:45 2023.
