 Gaussian 16, Revision A.03,
 Gaussian 16:  ES64L-G16RevA.03 25-Dec-2016

 ------------------
 #p CCSD(T)/CEP-31G
 ------------------

 ------------
 H2O_H2O_1792
 ------------
 Symbolic Z-matrix:
 Charge =  0 Multiplicity = 1

                         Standard orientation:
 ---------------------------------------------------------------------
 Center     Atomic      Atomic             Coordinates (Angstroms)
 Number     Number       Type             X           Y           Z
 ---------------------------------------------------------------------
      1          8           0        0.037505    1.819944   -0.000000
      2          1           0        0.034782    0.837346   -0.000000
      3          1           0       -0.891102    2.141185   -0.000000
      4          8           0        0.037505   -1.641029    0.000000
      5          1           0        0.917566   -2.078062    0.000000
      6          1           0       -0.661320   -2.331790    0.000000
 ---------------------------------------------------------------------

 SCF Done:  E(RHF) =  -33.6598924223     A.U. after   11 cycles
 E2 =    -0.2286659352D+00 EUMP2 =    -0.33888558357493D+02
 CCSD(T)
 CCSD(T)= -0.33905391968D+02

 The electronic state is 1-A'.
 Alpha  occ. eigenvalues --   -1.37574  -1.32788  -0.73222  -0.68506  -0.57927
 Alpha  occ. eigenvalues --   -0.52631  -0.52256  -0.47459
 Alpha virt. eigenvalues --    0.18077   0.24501   0.28883   0.36623   0.77875
 Alpha virt. eigenvalues --    0.81900   0.83455   0.86333   0.89206   0.93445
 Alpha virt. eigenvalues --    1.15553   1.19804   1.20887   1.33611   2.50700

 Mulliken charges:
               1
     1  O   -0.775336
     2  H    0.412642
     3  H    0.360466
     4  O   -0.770629
     5  H    0.387546
     6  H    0.385312
 Sum of Mulliken charges =  -0.00000

 Dipole moment (field-independent basis, Debye):
    X=             -1.6837    Y=             -4.4452    Z=              0.0000  Tot=              4.7534
 Quadrupole moment (field-independent basis, Debye-Ang):
   XX=             -9.3949   YY=             -7.7316   ZZ=            -15.0051
   XY=             -5.3331   XZ=              0.0000   YZ=             -0.0000

 213\MP4DQ=-33.8996595\MP4SDQ=-33.9017394\CCSD=-33.902756\CCSD(T)=-33.9
 Normal termination of Gaussian 16 at Sun Dec 10 06:52:42 2023.
