 Gaussian 16, Revision A.03,
 Gaussian 16:  ES64L-G16RevA.03 25-Dec-2016

 ------------------
 #p CCSD(T)/CEP-31G
 ------------------

 ------------
 H2O_H2O_3222
 ------------
 Symbolic Z-matrix:
 Charge =  0 Multiplicity = 1

                         Standard orientation:
 ---------------------------------------------------------------------
 Center     Atomic      Atomic             Coordinates (Angstroms)
 Number     Number       Type             X           Y           Z
 ---------------------------------------------------------------------
      1          8           0       -0.019858    2.381929    0.000000
      2          1           0       -0.017159    1.399331    0.000000
      3          1           0        0.908757    2.703147    0.000000
      4          8           0       -0.019858   -2.214823    0.000000
      5          1           0       -0.993697   -2.345754    0.000000
      6          1           0        0.419821   -3.093566    0.000000
 ---------------------------------------------------------------------

 SCF Done:  E(RHF) =  -33.6549543820     A.U. after   11 cycles
 E2 =    -0.2282865878D+00 EUMP2 =    -0.33883240969798D+02
 CCSD(T)
 CCSD(T)= -0.33900157295D+02

 The electronic state is 1-A'.
 Alpha  occ. eigenvalues --   -1.36604  -1.34303  -0.72252  -0.69944  -0.56519
 Alpha  occ. eigenvalues --   -0.54137  -0.51220  -0.48927
 Alpha virt. eigenvalues --    0.18890   0.21979   0.29544   0.32082   0.79344
 Alpha virt. eigenvalues --    0.81563   0.82294   0.84409   0.85521   0.87703
 Alpha virt. eigenvalues --    1.16398   1.18968   1.20800   1.24857   2.56363

 Mulliken charges:
               1
     1  O   -0.753556
     2  H    0.384283
     3  H    0.368813
     4  O   -0.752099
     5  H    0.376091
     6  H    0.376468
 Sum of Mulliken charges =   0.00000

 Dipole moment (field-independent basis, Debye):
    X=              0.9055    Y=             -3.9700    Z=              0.0000  Tot=              4.0720
 Quadrupole moment (field-independent basis, Debye-Ang):
   XX=             -9.6746   YY=             -7.0952   ZZ=            -14.9948
   XY=              8.0734   XZ=              0.0000   YZ=              0.0000

 681\MP4DQ=-33.8945216\MP4SDQ=-33.8965523\CCSD=-33.8975952\CCSD(T)=-33.
 Normal termination of Gaussian 16 at Sun Dec 10 06:31:04 2023.
