 Gaussian 16, Revision A.03,
 Gaussian 16:  ES64L-G16RevA.03 25-Dec-2016

 ------------------
 #p CCSD(T)/CEP-31G
 ------------------

 ------------
 H2O_H2O_1814
 ------------
 Symbolic Z-matrix:
 Charge =  0 Multiplicity = 1

                         Standard orientation:
 ---------------------------------------------------------------------
 Center     Atomic      Atomic             Coordinates (Angstroms)
 Number     Number       Type             X           Y           Z
 ---------------------------------------------------------------------
      1          8           0        0.048629    1.830687    0.000000
      2          1           0        0.046465    0.848088    0.000000
      3          1           0       -0.880160    2.151400    0.000000
      4          8           0        0.048629   -1.650348   -0.000000
      5          1           0        0.826860   -2.250232   -0.000000
      6          1           0       -0.771221   -2.191968   -0.000000
 ---------------------------------------------------------------------

 SCF Done:  E(RHF) =  -33.6594264135     A.U. after   11 cycles
 E2 =    -0.2286855052D+00 EUMP2 =    -0.33888111918702D+02
 CCSD(T)
 CCSD(T)= -0.33904954368D+02

 The electronic state is 1-A'.
 Alpha  occ. eigenvalues --   -1.37566  -1.32822  -0.73213  -0.68517  -0.57886
 Alpha  occ. eigenvalues --   -0.52649  -0.52242  -0.47480
 Alpha virt. eigenvalues --    0.18071   0.24410   0.28862   0.36461   0.77921
 Alpha virt. eigenvalues --    0.82150   0.83407   0.86039   0.89691   0.92472
 Alpha virt. eigenvalues --    1.15535   1.20027   1.20636   1.33293   2.50668

 Mulliken charges:
               1
     1  O   -0.773342
     2  H    0.412599
     3  H    0.358616
     4  O   -0.768766
     5  H    0.389190
     6  H    0.381703
 Sum of Mulliken charges =  -0.00000

 Dipole moment (field-independent basis, Debye):
    X=             -2.1831    Y=             -4.4773    Z=             -0.0000  Tot=              4.9812
 Quadrupole moment (field-independent basis, Debye-Ang):
   XX=             -9.4479   YY=             -7.6685   ZZ=            -15.0041
   XY=             -4.9181   XZ=             -0.0000   YZ=              0.0000

 856\MP4DQ=-33.8992228\MP4SDQ=-33.9013021\CCSD=-33.9023198\CCSD(T)=-33.
 Normal termination of Gaussian 16 at Sun Dec 10 06:53:07 2023.
