 Gaussian 16, Revision A.03,
 Gaussian 16:  ES64L-G16RevA.03 25-Dec-2016

 ------------------
 #p CCSD(T)/CEP-31G
 ------------------

 ------------
 H2O_H2O_2718
 ------------
 Symbolic Z-matrix:
 Charge =  0 Multiplicity = 1

                         Standard orientation:
 ---------------------------------------------------------------------
 Center     Atomic      Atomic             Coordinates (Angstroms)
 Number     Number       Type             X           Y           Z
 ---------------------------------------------------------------------
      1          8           0        0.033806    2.188141    0.000000
      2          1           0        0.031414    1.205542    0.000000
      3          1           0       -0.894908    2.509069   -0.000000
      4          8           0        0.033806   -2.010630    0.000000
      5          1           0        0.940693   -2.388864    0.000000
      6          1           0       -0.618098   -2.745836   -0.000000
 ---------------------------------------------------------------------

 SCF Done:  E(RHF) =  -33.6562041348     A.U. after   11 cycles
 E2 =    -0.2283570259D+00 EUMP2 =    -0.33884561160749D+02
 CCSD(T)
 CCSD(T)= -0.33901454326D+02

 The electronic state is 1-A'.
 Alpha  occ. eigenvalues --   -1.36854  -1.33819  -0.72502  -0.69451  -0.56855
 Alpha  occ. eigenvalues --   -0.53668  -0.51489  -0.48456
 Alpha virt. eigenvalues --    0.18591   0.22682   0.29394   0.32818   0.79066
 Alpha virt. eigenvalues --    0.82031   0.83307   0.84519   0.85711   0.88090
 Alpha virt. eigenvalues --    1.16211   1.19613   1.20635   1.27546   2.55251

 Mulliken charges:
               1
     1  O   -0.758869
     2  H    0.391654
     3  H    0.365903
     4  O   -0.755152
     5  H    0.379265
     6  H    0.377199
 Sum of Mulliken charges =   0.00000

 Dipole moment (field-independent basis, Debye):
    X=             -1.5356    Y=             -4.2684    Z=             -0.0000  Tot=              4.5362
 Quadrupole moment (field-independent basis, Debye-Ang):
   XX=             -9.4287   YY=             -6.8715   ZZ=            -14.9973
   XY=             -6.5156   XZ=              0.0000   YZ=             -0.0000

 046\MP4DQ=-33.8958018\MP4SDQ=-33.8978476\CCSD=-33.8988815\CCSD(T)=-33.
 Normal termination of Gaussian 16 at Sun Dec 10 06:21:55 2023.
