 Gaussian 16, Revision A.03,
 Gaussian 16:  ES64L-G16RevA.03 25-Dec-2016

 ------------------
 #p CCSD(T)/CEP-31G
 ------------------

 -----------
 H2O_H2O_574
 -----------
 Symbolic Z-matrix:
 Charge =  0 Multiplicity = 1

                         Standard orientation:
 ---------------------------------------------------------------------
 Center     Atomic      Atomic             Coordinates (Angstroms)
 Number     Number       Type             X           Y           Z
 ---------------------------------------------------------------------
      1          8           0        0.013718   -1.320620    0.000000
      2          1           0        0.008288   -0.338033    0.000000
      3          1           0       -0.914000   -1.644418    0.000000
      4          8           0        0.013718    1.161426    0.000000
      5          1           0        0.996305    1.166856    0.000000
      6          1           0       -0.310080    2.089144    0.000000
 ---------------------------------------------------------------------

 SCF Done:  E(RHF) =  -33.6519786991     A.U. after   11 cycles
 E2 =    -0.2281366505D+00 EUMP2 =    -0.33880115349644D+02
 CCSD(T)
 CCSD(T)= -0.33896144440D+02

 The electronic state is 1-A'.
 Alpha  occ. eigenvalues --   -1.40868  -1.30153  -0.77496  -0.69010  -0.59444
 Alpha  occ. eigenvalues --   -0.55243  -0.49107  -0.44721
 Alpha virt. eigenvalues --    0.17386   0.26469   0.28144   0.52600   0.74046
 Alpha virt. eigenvalues --    0.76530   0.87154   0.88549   0.92638   1.07440
 Alpha virt. eigenvalues --    1.15050   1.22362   1.29176   1.39097   2.68378

 Mulliken charges:
               1
     1  O   -0.762406
     2  H    0.376649
     3  H    0.352187
     4  O   -0.833848
     5  H    0.410461
     6  H    0.456956
 Sum of Mulliken charges =  -0.00000

 Dipole moment (field-independent basis, Debye):
    X=             -0.6144    Y=              4.5613    Z=              0.0000  Tot=              4.6025
 Quadrupole moment (field-independent basis, Debye-Ang):
   XX=             -9.8063   YY=             -9.5123   ZZ=            -15.0045
   XY=              4.5756   XZ=              0.0000   YZ=              0.0000

 911\MP4DQ=-33.8901565\MP4SDQ=-33.8923773\CCSD=-33.893233\CCSD(T)=-33.8
 Normal termination of Gaussian 16 at Sun Dec 10 06:29:20 2023.
