 Gaussian 16, Revision A.03,
 Gaussian 16:  ES64L-G16RevA.03 25-Dec-2016

 ------------------
 #p CCSD(T)/CEP-31G
 ------------------

 ------------
 H2O_H2O_1196
 ------------
 Symbolic Z-matrix:
 Charge =  0 Multiplicity = 1

                         Standard orientation:
 ---------------------------------------------------------------------
 Center     Atomic      Atomic             Coordinates (Angstroms)
 Number     Number       Type             X           Y           Z
 ---------------------------------------------------------------------
      1          8           0       -0.023327    1.575956    0.000000
      2          1           0       -0.019357    0.593363    0.000000
      3          1           0        0.904871    1.898375    0.000000
      4          8           0       -0.023327   -1.405633    0.000000
      5          1           0       -0.986266   -1.601222    0.000000
      6          1           0        0.473979   -2.253096    0.000000
 ---------------------------------------------------------------------

 SCF Done:  E(RHF) =  -33.6624418513     A.U. after   11 cycles
 E2 =    -0.2287878960D+00 EUMP2 =    -0.33891229747332D+02
 CCSD(T)
 CCSD(T)= -0.33907892487D+02

 The electronic state is 1-A'.
 Alpha  occ. eigenvalues --   -1.38481  -1.31860  -0.74226  -0.68111  -0.59056
 Alpha  occ. eigenvalues --   -0.53186  -0.51554  -0.46545
 Alpha virt. eigenvalues --    0.17732   0.26015   0.28214   0.42341   0.76125
 Alpha virt. eigenvalues --    0.78815   0.85441   0.86407   0.91142   1.06018
 Alpha virt. eigenvalues --    1.16009   1.17732   1.22497   1.36102   2.51281

 Mulliken charges:
               1
     1  O   -0.784824
     2  H    0.422399
     3  H    0.358522
     4  O   -0.800002
     5  H    0.394514
     6  H    0.409390
 Sum of Mulliken charges =   0.00000

 Dipole moment (field-independent basis, Debye):
    X=              1.0432    Y=             -4.4153    Z=              0.0000  Tot=              4.5369
 Quadrupole moment (field-independent basis, Debye-Ang):
   XX=             -9.5577   YY=             -8.5912   ZZ=            -15.0135
   XY=              5.1326   XZ=              0.0000   YZ=              0.0000

 3\MP4DQ=-33.9020686\MP4SDQ=-33.9041856\CCSD=-33.9051628\CCSD(T)=-33.90
 Normal termination of Gaussian 16 at Sun Dec 10 06:41:03 2023.
