 Gaussian 16, Revision A.03,
 Gaussian 16:  ES64L-G16RevA.03 25-Dec-2016

 ------------------
 #p CCSD(T)/CEP-31G
 ------------------

 -----------
 H2O_H2O_237
 -----------
 Symbolic Z-matrix:
 Charge =  0 Multiplicity = 1

                         Standard orientation:
 ---------------------------------------------------------------------
 Center     Atomic      Atomic             Coordinates (Angstroms)
 Number     Number       Type             X           Y           Z
 ---------------------------------------------------------------------
      1          8           0        0.056120    1.201594    0.000000
      2          1           0        0.053300    0.218997    0.000000
      3          1           0       -0.872454    1.522927    0.000000
      4          8           0        0.056120   -1.022850   -0.000000
      5          1           0        0.748928   -1.719646   -0.000000
      6          1           0       -0.827699   -1.452234   -0.000000
 ---------------------------------------------------------------------

 SCF Done:  E(RHF) =  -33.6284546610     A.U. after   11 cycles
 E2 =    -0.2283810234D+00 EUMP2 =    -0.33856835684424D+02
 CCSD(T)
 CCSD(T)= -0.33871762054D+02

 The electronic state is 1-A'.
 Alpha  occ. eigenvalues --   -1.43699  -1.27810  -0.78504  -0.75659  -0.57621
 Alpha  occ. eigenvalues --   -0.56032  -0.45614  -0.41963
 Alpha virt. eigenvalues --    0.16458   0.25578   0.29561   0.60136   0.73407
 Alpha virt. eigenvalues --    0.73569   0.86498   0.90938   0.93465   1.06376
 Alpha virt. eigenvalues --    1.12320   1.17128   1.26764   1.34756   2.87345

 Mulliken charges:
               1
     1  O   -0.752941
     2  H    0.369987
     3  H    0.311767
     4  O   -0.817073
     5  H    0.461926
     6  H    0.426333
 Sum of Mulliken charges =   0.00000

 Dipole moment (field-independent basis, Debye):
    X=             -2.2906    Y=             -5.4451    Z=             -0.0000  Tot=              5.9073
 Quadrupole moment (field-independent basis, Debye-Ang):
   XX=             -9.4856   YY=            -10.3581   ZZ=            -14.9668
   XY=             -3.4200   XZ=              0.0000   YZ=              0.0000

 197\MP4DQ=-33.865628\MP4SDQ=-33.867928\CCSD=-33.8685893\CCSD(T)=-33.87
 Normal termination of Gaussian 16 at Sun Dec 10 06:22:43 2023.
