 Gaussian 16, Revision A.03,
 Gaussian 16:  ES64L-G16RevA.03 25-Dec-2016

 ------------------
 #p CCSD(T)/CEP-31G
 ------------------

 -----------
 H2O_H2O_548
 -----------
 Symbolic Z-matrix:
 Charge =  0 Multiplicity = 1

                         Standard orientation:
 ---------------------------------------------------------------------
 Center     Atomic      Atomic             Coordinates (Angstroms)
 Number     Number       Type             X           Y           Z
 ---------------------------------------------------------------------
      1          8           0        0.016826   -1.312882    0.000000
      2          1           0        0.011566   -0.330295    0.000000
      3          1           0       -0.910948   -1.636519    0.000000
      4          8           0        0.016826    1.149574    0.000000
      5          1           0        0.996966    1.219086    0.000000
      6          1           0       -0.366798    2.054195    0.000000
 ---------------------------------------------------------------------

 SCF Done:  E(RHF) =  -33.6519912719     A.U. after   11 cycles
 E2 =    -0.2281687546D+00 EUMP2 =    -0.33880160026481D+02
 CCSD(T)
 CCSD(T)= -0.33896070208D+02

 The electronic state is 1-A'.
 Alpha  occ. eigenvalues --   -1.40999  -1.29858  -0.77435  -0.69500  -0.59183
 Alpha  occ. eigenvalues --   -0.55396  -0.48740  -0.44405
 Alpha virt. eigenvalues --    0.17341   0.26489   0.28232   0.53370   0.74009
 Alpha virt. eigenvalues --    0.76089   0.87165   0.88806   0.93250   1.05649
 Alpha virt. eigenvalues --    1.15259   1.22169   1.27922   1.38550   2.69516

 Mulliken charges:
               1
     1  O   -0.765040
     2  H    0.383443
     3  H    0.348767
     4  O   -0.837110
     5  H    0.412873
     6  H    0.457067
 Sum of Mulliken charges =  -0.00000

 Dipole moment (field-independent basis, Debye):
    X=             -0.7519    Y=              4.6879    Z=              0.0000  Tot=              4.7479
 Quadrupole moment (field-independent basis, Debye-Ang):
   XX=             -9.6971   YY=             -9.5453   ZZ=            -15.0050
   XY=              4.4051   XZ=              0.0000   YZ=              0.0000

 \MP4DQ=-33.8900876\MP4SDQ=-33.8922984\CCSD=-33.8931394\CCSD(T)=-33.896
 Normal termination of Gaussian 16 at Sun Dec 10 06:28:50 2023.
