 Gaussian 16, Revision A.03,
 Gaussian 16:  ES64L-G16RevA.03 25-Dec-2016

 ------------------
 #p CCSD(T)/CEP-31G
 ------------------

 -----------
 H2O_H2O_995
 -----------
 Symbolic Z-matrix:
 Charge =  0 Multiplicity = 1

                         Standard orientation:
 ---------------------------------------------------------------------
 Center     Atomic      Atomic             Coordinates (Angstroms)
 Number     Number       Type             X           Y           Z
 ---------------------------------------------------------------------
      1          8           0        0.026789    1.497713    0.000000
      2          1           0        0.022802    0.515120    0.000000
      3          1           0       -0.901403    1.820149    0.000000
      4          8           0        0.026789   -1.324570   -0.000000
      5          1           0        0.974870   -1.582735   -0.000000
      6          1           0       -0.524894   -2.137683   -0.000000
 ---------------------------------------------------------------------

 SCF Done:  E(RHF) =  -33.6628103662     A.U. after   11 cycles
 E2 =    -0.2288367145D+00 EUMP2 =    -0.33891647080675D+02
 CCSD(T)
 CCSD(T)= -0.33908114504D+02

 The electronic state is 1-A'.
 Alpha  occ. eigenvalues --   -1.38986  -1.31216  -0.74705  -0.68190  -0.59378
 Alpha  occ. eigenvalues --   -0.53702  -0.50764  -0.45881
 Alpha virt. eigenvalues --    0.17638   0.26632   0.27896   0.45429   0.75438
 Alpha virt. eigenvalues --    0.77489   0.86282   0.86492   0.92849   1.04893
 Alpha virt. eigenvalues --    1.16153   1.18212   1.23201   1.36367   2.53557

 Mulliken charges:
               1
     1  O   -0.785642
     2  H    0.426671
     3  H    0.353756
     4  O   -0.813188
     5  H    0.400901
     6  H    0.417502
 Sum of Mulliken charges =   0.00000

 Dipole moment (field-independent basis, Debye):
    X=             -1.1927    Y=             -4.5782    Z=             -0.0000  Tot=              4.7310
 Quadrupole moment (field-independent basis, Debye-Ang):
   XX=             -9.4771   YY=             -8.8257   ZZ=            -15.0174
   XY=             -4.7330   XZ=             -0.0000   YZ=              0.0000

 48\MP4DQ=-33.9022611\MP4SDQ=-33.9043858\CCSD=-33.9053287\CCSD(T)=-33.9
 Normal termination of Gaussian 16 at Sun Dec 10 06:37:13 2023.
