 Gaussian 16, Revision A.03,
 Gaussian 16:  ES64L-G16RevA.03 25-Dec-2016

 ------------------
 #p CCSD(T)/CEP-31G
 ------------------

 -----------
 H2O_H2O_413
 -----------
 Symbolic Z-matrix:
 Charge =  0 Multiplicity = 1

                         Standard orientation:
 ---------------------------------------------------------------------
 Center     Atomic      Atomic             Coordinates (Angstroms)
 Number     Number       Type             X           Y           Z
 ---------------------------------------------------------------------
      1          8           0        0.052426    1.271940    0.000000
      2          1           0        0.049507    0.289342    0.000000
      3          1           0       -0.876116    1.593366    0.000000
      4          8           0        0.052426   -1.092197   -0.000000
      5          1           0        0.789257   -1.742264   -0.000000
      6          1           0       -0.801466   -1.578382   -0.000000
 ---------------------------------------------------------------------

 SCF Done:  E(RHF) =  -33.6471783198     A.U. after   11 cycles
 E2 =    -0.2287837428D+00 EUMP2 =    -0.33875962062641D+02
 CCSD(T)
 CCSD(T)= -0.33891318568D+02

 The electronic state is 1-A'.
 Alpha  occ. eigenvalues --   -1.41914  -1.28744  -0.76879  -0.73054  -0.57497
 Alpha  occ. eigenvalues --   -0.56321  -0.47220  -0.43099
 Alpha virt. eigenvalues --    0.16827   0.26371   0.28747   0.56959   0.73725
 Alpha virt. eigenvalues --    0.73834   0.85697   0.89906   0.94906   1.03419
 Alpha virt. eigenvalues --    1.13558   1.17467   1.25145   1.35904   2.75652

 Mulliken charges:
               1
     1  O   -0.766632
     2  H    0.408396
     3  H    0.323570
     4  O   -0.832760
     5  H    0.446174
     6  H    0.421252
 Sum of Mulliken charges =  -0.00000

 Dipole moment (field-independent basis, Debye):
    X=             -2.1881    Y=             -5.2143    Z=             -0.0000  Tot=              5.6548
 Quadrupole moment (field-independent basis, Debye-Ang):
   XX=             -9.4271   YY=             -9.9591   ZZ=            -14.9975
   XY=             -3.6235   XZ=             -0.0000   YZ=              0.0000

 04\MP4DQ=-33.8852839\MP4SDQ=-33.8875088\CCSD=-33.8882499\CCSD(T)=-33.8
 Normal termination of Gaussian 16 at Sun Dec 10 06:26:11 2023.
