 Gaussian 16, Revision A.03,
 Gaussian 16:  ES64L-G16RevA.03 25-Dec-2016

 ------------------
 #p CCSD(T)/CEP-31G
 ------------------

 -----------
 H2O_H2O_645
 -----------
 Symbolic Z-matrix:
 Charge =  0 Multiplicity = 1

                         Standard orientation:
 ---------------------------------------------------------------------
 Center     Atomic      Atomic             Coordinates (Angstroms)
 Number     Number       Type             X           Y           Z
 ---------------------------------------------------------------------
      1          8           0        0.026828    1.358096    0.000000
      2          1           0        0.022403    0.375504    0.000000
      3          1           0       -0.901221    1.680945    0.000000
      4          8           0        0.026828   -1.184976   -0.000000
      5          1           0        0.974792   -1.443564   -0.000000
      6          1           0       -0.525218   -1.997842   -0.000000
 ---------------------------------------------------------------------

 SCF Done:  E(RHF) =  -33.6581144391     A.U. after   11 cycles
 E2 =    -0.2286229592D+00 EUMP2 =    -0.33886737398271D+02
 CCSD(T)
 CCSD(T)= -0.33902687289D+02

 The electronic state is 1-A'.
 Alpha  occ. eigenvalues --   -1.40366  -1.29930  -0.76123  -0.69639  -0.59108
 Alpha  occ. eigenvalues --   -0.54978  -0.49000  -0.44499
 Alpha virt. eigenvalues --    0.17360   0.27027   0.27883   0.51884   0.74308
 Alpha virt. eigenvalues --    0.75563   0.86398   0.88457   0.94638   1.02403
 Alpha virt. eigenvalues --    1.15931   1.19835   1.24860   1.37516   2.63986

 Mulliken charges:
               1
     1  O   -0.777796
     2  H    0.414924
     3  H    0.344918
     4  O   -0.834545
     5  H    0.413394
     6  H    0.439105
 Sum of Mulliken charges =   0.00000

 Dipole moment (field-independent basis, Debye):
    X=             -1.1844    Y=             -4.8228    Z=             -0.0000  Tot=              4.9661
 Quadrupole moment (field-independent basis, Debye-Ang):
   XX=             -9.4519   YY=             -9.3997   ZZ=            -15.0149
   XY=             -4.2444   XZ=             -0.0000   YZ=              0.0000

 99\MP4DQ=-33.8967558\MP4SDQ=-33.8989201\CCSD=-33.8997728\CCSD(T)=-33.9
 Normal termination of Gaussian 16 at Sun Dec 10 06:30:39 2023.
