 Gaussian 16, Revision A.03,
 Gaussian 16:  ES64L-G16RevA.03 25-Dec-2016

 ------------------
 #p CCSD(T)/CEP-31G
 ------------------

 -----------
 H2O_H2O_257
 -----------
 Symbolic Z-matrix:
 Charge =  0 Multiplicity = 1

                         Standard orientation:
 ---------------------------------------------------------------------
 Center     Atomic      Atomic             Coordinates (Angstroms)
 Number     Number       Type             X           Y           Z
 ---------------------------------------------------------------------
      1          8           0        0.073599   -1.205089    0.000000
      2          1           0        0.072130   -0.222489    0.000000
      3          1           0       -0.855417   -1.525144    0.000000
      4          8           0        0.073599    1.038258    0.000000
      5          1           0        0.506875    1.920175    0.000000
      6          1           0       -0.901167    1.162102    0.000000
 ---------------------------------------------------------------------

 SCF Done:  E(RHF) =  -33.6247376688     A.U. after   11 cycles
 E2 =    -0.2283867244D+00 EUMP2 =    -0.33853124393214D+02
 CCSD(T)
 CCSD(T)= -0.33868432839D+02

 The electronic state is 1-A'.
 Alpha  occ. eigenvalues --   -1.43700  -1.28780  -0.80246  -0.73001  -0.57384
 Alpha  occ. eigenvalues --   -0.56692  -0.46865  -0.42950
 Alpha virt. eigenvalues --    0.16310   0.24811   0.29315   0.58877   0.73350
 Alpha virt. eigenvalues --    0.74730   0.87374   0.90298   0.96334   1.07189
 Alpha virt. eigenvalues --    1.13129   1.22432   1.25111   1.35967   2.90473

 Mulliken charges:
               1
     1  O   -0.727853
     2  H    0.349535
     3  H    0.311489
     4  O   -0.821000
     5  H    0.483261
     6  H    0.404569
 Sum of Mulliken charges =  -0.00000

 Dipole moment (field-independent basis, Debye):
    X=             -3.0191    Y=              5.1284    Z=              0.0000  Tot=              5.9511
 Quadrupole moment (field-independent basis, Debye-Ang):
   XX=            -10.1456   YY=            -10.1409   ZZ=            -14.9573
   XY=              3.1434   XZ=              0.0000   YZ=              0.0000

 212\MP4DQ=-33.8622315\MP4SDQ=-33.8645949\CCSD=-33.8653077\CCSD(T)=-33.
 Normal termination of Gaussian 16 at Sun Dec 10 06:23:07 2023.
