 Gaussian 16, Revision A.03,
 Gaussian 16:  ES64L-G16RevA.03 25-Dec-2016

 ------------------
 #p CCSD(T)/CEP-31G
 ------------------

 ------------
 H2O_H2O_2771
 ------------
 Symbolic Z-matrix:
 Charge =  0 Multiplicity = 1

                         Standard orientation:
 ---------------------------------------------------------------------
 Center     Atomic      Atomic             Coordinates (Angstroms)
 Number     Number       Type             X           Y           Z
 ---------------------------------------------------------------------
      1          8           0       -0.023225    2.204212    0.000000
      2          1           0       -0.020432    1.221614    0.000000
      3          1           0        0.905359    2.525519    0.000000
      4          8           0       -0.023225   -2.033834    0.000000
      5          1           0       -0.986397   -2.228268    0.000000
      6          1           0        0.473067   -2.881891    0.000000
 ---------------------------------------------------------------------

 SCF Done:  E(RHF) =  -33.6560028837     A.U. after   11 cycles
 E2 =    -0.2283390727D+00 EUMP2 =    -0.33884341956440D+02
 CCSD(T)
 CCSD(T)= -0.33901241225D+02

 The electronic state is 1-A'.
 Alpha  occ. eigenvalues --   -1.36816  -1.33978  -0.72468  -0.69619  -0.56800
 Alpha  occ. eigenvalues --   -0.53830  -0.51447  -0.48615
 Alpha virt. eigenvalues --    0.18505   0.22566   0.29398   0.32636   0.79108
 Alpha virt. eigenvalues --    0.81875   0.82950   0.84498   0.85889   0.87910
 Alpha virt. eigenvalues --    1.16212   1.19485   1.20654   1.27508   2.55614

 Mulliken charges:
               1
     1  O   -0.758072
     2  H    0.389350
     3  H    0.367595
     4  O   -0.755032
     5  H    0.378124
     6  H    0.378035
 Sum of Mulliken charges =   0.00000

 Dipole moment (field-independent basis, Debye):
    X=              1.0547    Y=             -4.0880    Z=              0.0000  Tot=              4.2218
 Quadrupole moment (field-independent basis, Debye-Ang):
   XX=             -9.5890   YY=             -7.2064   ZZ=            -14.9968
   XY=              7.2359   XZ=              0.0000   YZ=              0.0000

 48\MP4DQ=-33.8955904\MP4SDQ=-33.8976343\CCSD=-33.8986695\CCSD(T)=-33.9
 Normal termination of Gaussian 16 at Sun Dec 10 06:22:52 2023.
