 Gaussian 16, Revision A.03,
 Gaussian 16:  ES64L-G16RevA.03 25-Dec-2016

 ------------------
 #p CCSD(T)/CEP-31G
 ------------------

 -----------
 H2O_H2O_909
 -----------
 Symbolic Z-matrix:
 Charge =  0 Multiplicity = 1

                         Standard orientation:
 ---------------------------------------------------------------------
 Center     Atomic      Atomic             Coordinates (Angstroms)
 Number     Number       Type             X           Y           Z
 ---------------------------------------------------------------------
      1          8           0        0.066816    1.467720   -0.000000
      2          1           0        0.065206    0.485120   -0.000000
      3          1           0       -0.862154    1.787908   -0.000000
      4          8           0        0.066816   -1.294701    0.000000
      5          1           0        0.611381   -2.112598    0.000000
      6          1           0       -0.883482   -1.544582   -0.000000
 ---------------------------------------------------------------------

 SCF Done:  E(RHF) =  -33.6597354237     A.U. after   11 cycles
 E2 =    -0.2290894486D+00 EUMP2 =    -0.33888824872271D+02
 CCSD(T)
 CCSD(T)= -0.33905284045D+02

 The electronic state is 1-A'.
 Alpha  occ. eigenvalues --   -1.39342  -1.31259  -0.75088  -0.68538  -0.59224
 Alpha  occ. eigenvalues --   -0.54000  -0.50674  -0.45826
 Alpha virt. eigenvalues --    0.17256   0.26478   0.27606   0.46424   0.75108
 Alpha virt. eigenvalues --    0.77205   0.85240   0.86774   0.94955   1.06268
 Alpha virt. eigenvalues --    1.16078   1.18174   1.22333   1.36383   2.55055

 Mulliken charges:
               1
     1  O   -0.773012
     2  H    0.428180
     3  H    0.340750
     4  O   -0.813313
     5  H    0.428568
     6  H    0.388827
 Sum of Mulliken charges =  -0.00000

 Dipole moment (field-independent basis, Debye):
    X=             -2.8965    Y=             -4.6278    Z=             -0.0000  Tot=              5.4595
 Quadrupole moment (field-independent basis, Debye-Ang):
   XX=             -9.8861   YY=             -8.9560   ZZ=            -15.0115
   XY=             -3.7008   XZ=              0.0000   YZ=             -0.0000

 54\MP4DQ=-33.8993738\MP4SDQ=-33.9015345\CCSD=-33.9024629\CCSD(T)=-33.9
 Normal termination of Gaussian 16 at Sun Dec 10 06:35:37 2023.
