 Gaussian 16, Revision A.03,
 Gaussian 16:  ES64L-G16RevA.03 25-Dec-2016

 ------------------
 #p CCSD(T)/CEP-31G
 ------------------

 ------------
 H2O_H2O_3326
 ------------
 Symbolic Z-matrix:
 Charge =  0 Multiplicity = 1

                         Standard orientation:
 ---------------------------------------------------------------------
 Center     Atomic      Atomic             Coordinates (Angstroms)
 Number     Number       Type             X           Y           Z
 ---------------------------------------------------------------------
      1          8           0        0.090684   -2.416355    0.000000
      2          1           0        0.090602   -1.433754    0.000000
      3          1           0       -0.838782   -2.735099    0.000000
      4          8           0        0.090684    2.277646    0.000000
      5          1           0        0.154868    3.258150    0.000000
      6          1           0       -0.857639    2.020374    0.000000
 ---------------------------------------------------------------------

 SCF Done:  E(RHF) =  -33.6524168167     A.U. after   11 cycles
 E2 =    -0.2283859965D+00 EUMP2 =    -0.33880802813174D+02
 CCSD(T)
 CCSD(T)= -0.33897790550D+02

 The electronic state is 1-A'.
 Alpha  occ. eigenvalues --   -1.36642  -1.34906  -0.72307  -0.70507  -0.56424
 Alpha  occ. eigenvalues --   -0.54641  -0.51218  -0.49478
 Alpha virt. eigenvalues --    0.18282   0.21588   0.29417   0.31331   0.79362
 Alpha virt. eigenvalues --    0.81058   0.82325   0.84043   0.85380   0.87502
 Alpha virt. eigenvalues --    1.16023   1.18355   1.20742   1.24040   2.55808

 Mulliken charges:
               1
     1  O   -0.743727
     2  H    0.378485
     3  H    0.365034
     4  O   -0.744331
     5  H    0.377581
     6  H    0.366958
 Sum of Mulliken charges =  -0.00000

 Dipole moment (field-independent basis, Debye):
    X=             -4.1548    Y=              3.2952    Z=              0.0000  Tot=              5.3029
 Quadrupole moment (field-independent basis, Debye-Ang):
   XX=            -11.1354   YY=             -9.1363   ZZ=            -14.9888
   XY=              2.5904   XZ=              0.0000   YZ=              0.0000

 988\MP4DQ=-33.8921403\MP4SDQ=-33.8941733\CCSD=-33.8952226\CCSD(T)=-33.
 Normal termination of Gaussian 16 at Sun Dec 10 06:32:56 2023.
