 Gaussian 16, Revision A.03,
 Gaussian 16:  ES64L-G16RevA.03 25-Dec-2016

 ------------------
 #p CCSD(T)/CEP-31G
 ------------------

 ------------
 H2O_H2O_2055
 ------------
 Symbolic Z-matrix:
 Charge =  0 Multiplicity = 1

                         Standard orientation:
 ---------------------------------------------------------------------
 Center     Atomic      Atomic             Coordinates (Angstroms)
 Number     Number       Type             X           Y           Z
 ---------------------------------------------------------------------
      1          8           0        0.079861    1.918833   -0.000000
      2          1           0        0.079257    0.936231   -0.000000
      3          1           0       -0.849436    2.238071   -0.000000
      4          8           0        0.079861   -1.759790    0.000000
      5          1           0        0.395136   -2.690439    0.000000
      6          1           0       -0.902734   -1.756206    0.000000
 ---------------------------------------------------------------------

 SCF Done:  E(RHF) =  -33.6553849915     A.U. after   11 cycles
 E2 =    -0.2286660962D+00 EUMP2 =    -0.33884051087664D+02
 CCSD(T)
 CCSD(T)= -0.33901023130D+02

 The electronic state is 1-A'.
 Alpha  occ. eigenvalues --   -1.37397  -1.33815  -0.73109  -0.69392  -0.57392
 Alpha  occ. eigenvalues --   -0.53570  -0.52004  -0.48411
 Alpha virt. eigenvalues --    0.17455   0.23530   0.28827   0.34185   0.78329
 Alpha virt. eigenvalues --    0.82372   0.82740   0.85016   0.88573   0.91779
 Alpha virt. eigenvalues --    1.15441   1.19306   1.20539   1.34933   2.53190

 Mulliken charges:
               1
     1  O   -0.757508
     2  H    0.396998
     3  H    0.358344
     4  O   -0.756143
     5  H    0.387604
     6  H    0.370704
 Sum of Mulliken charges =  -0.00000

 Dipole moment (field-independent basis, Debye):
    X=             -3.6166    Y=             -3.9154    Z=              0.0000  Tot=              5.3301
 Quadrupole moment (field-independent basis, Debye-Ang):
   XX=            -10.4954   YY=             -8.2587   ZZ=            -14.9943
   XY=             -3.4354   XZ=              0.0000   YZ=             -0.0000

 6\MP4DQ=-33.8952893\MP4SDQ=-33.8973786\CCSD=-33.8984056\CCSD(T)=-33.90
 Normal termination of Gaussian 16 at Sun Dec 10 06:57:41 2023.
