 Gaussian 16, Revision A.03,
 Gaussian 16:  ES64L-G16RevA.03 25-Dec-2016

 ------------------
 #p CCSD(T)/CEP-31G
 ------------------

 ------------
 H2O_H2O_3167
 ------------
 Symbolic Z-matrix:
 Charge =  0 Multiplicity = 1

                         Standard orientation:
 ---------------------------------------------------------------------
 Center     Atomic      Atomic             Coordinates (Angstroms)
 Number     Number       Type             X           Y           Z
 ---------------------------------------------------------------------
      1          8           0        0.037445    2.368423   -0.000000
      2          1           0        0.035378    1.385824   -0.000000
      3          1           0       -0.891376    2.689045   -0.000000
      4          8           0        0.037445   -2.189458    0.000000
      5          1           0        0.917797   -2.625905    0.000000
      6          1           0       -0.660919   -2.880685    0.000000
 ---------------------------------------------------------------------

 SCF Done:  E(RHF) =  -33.6551094126     A.U. after   11 cycles
 E2 =    -0.2283029549D+00 EUMP2 =    -0.33883412367437D+02
 CCSD(T)
 CCSD(T)= -0.33900322273D+02

 The electronic state is 1-A'.
 Alpha  occ. eigenvalues --   -1.36637  -1.34106  -0.72281  -0.69734  -0.56565
 Alpha  occ. eigenvalues --   -0.53934  -0.51256  -0.48727
 Alpha virt. eigenvalues --    0.18982   0.22123   0.29556   0.32264   0.79310
 Alpha virt. eigenvalues --    0.81756   0.82365   0.84655   0.85421   0.87896
 Alpha virt. eigenvalues --    1.16401   1.19144   1.20815   1.24922   2.56214

 Mulliken charges:
               1
     1  O   -0.754128
     2  H    0.386852
     3  H    0.366675
     4  O   -0.752058
     5  H    0.377496
     6  H    0.375162
 Sum of Mulliken charges =   0.00000

 Dipole moment (field-independent basis, Debye):
    X=             -1.7080    Y=             -4.2607    Z=              0.0000  Tot=              4.5903
 Quadrupole moment (field-independent basis, Debye-Ang):
   XX=             -9.4114   YY=             -6.3970   ZZ=            -14.9953
   XY=             -6.7667   XZ=              0.0000   YZ=             -0.0000

 9321\MP4DQ=-33.8946862\MP4SDQ=-33.8967185\CCSD=-33.89776\CCSD(T)=-33.9
 Normal termination of Gaussian 16 at Sun Dec 10 06:30:04 2023.
