 Gaussian 16, Revision A.03,
 Gaussian 16:  ES64L-G16RevA.03 25-Dec-2016

 ------------------
 #p CCSD(T)/CEP-31G
 ------------------

 -----------
 H2O_H2O_740
 -----------
 Symbolic Z-matrix:
 Charge =  0 Multiplicity = 1

                         Standard orientation:
 ---------------------------------------------------------------------
 Center     Atomic      Atomic             Coordinates (Angstroms)
 Number     Number       Type             X           Y           Z
 ---------------------------------------------------------------------
      1          8           0        0.044978    1.401867   -0.000000
      2          1           0        0.041866    0.419271   -0.000000
      3          1           0       -0.883501    1.723476    0.000000
      4          8           0        0.044978   -1.221587   -0.000000
      5          1           0        0.860249   -1.770076   -0.000000
      6          1           0       -0.738265   -1.814913    0.000000
 ---------------------------------------------------------------------

 SCF Done:  E(RHF) =  -33.6609652868     A.U. after   11 cycles
 E2 =    -0.2290720036D+00 EUMP2 =    -0.33890037290431D+02
 CCSD(T)
 CCSD(T)= -0.33906078571D+02

 The electronic state is 1-A'.
 Alpha  occ. eigenvalues --   -1.39911  -1.30166  -0.75311  -0.69467  -0.59091
 Alpha  occ. eigenvalues --   -0.54623  -0.49385  -0.44737
 Alpha virt. eigenvalues --    0.17348   0.27361   0.27532   0.50334   0.74605
 Alpha virt. eigenvalues --    0.75361   0.85417   0.88005   0.97802   0.98387
 Alpha virt. eigenvalues --    1.14920   1.18397   1.23607   1.36894   2.59886

 Mulliken charges:
               1
     1  O   -0.782495
     2  H    0.434336
     3  H    0.339938
     4  O   -0.826295
     5  H    0.421091
     6  H    0.413426
 Sum of Mulliken charges =   0.00000

 Dipole moment (field-independent basis, Debye):
    X=             -1.9425    Y=             -4.9031    Z=              0.0000  Tot=              5.2739
 Quadrupole moment (field-independent basis, Debye-Ang):
   XX=             -9.3592   YY=             -9.2700   ZZ=            -15.0186
   XY=             -4.0349   XZ=             -0.0000   YZ=              0.0000

 68\MP4DQ=-33.9001688\MP4SDQ=-33.9023132\CCSD=-33.9031778\CCSD(T)=-33.9
 Normal termination of Gaussian 16 at Sun Dec 10 06:32:26 2023.
