 Gaussian 16, Revision A.03,
 Gaussian 16:  ES64L-G16RevA.03 25-Dec-2016

 ------------------
 #p CCSD(T)/CEP-31G
 ------------------

 ------------
 H2O_H2O_4774
 ------------
 Symbolic Z-matrix:
 Charge =  0 Multiplicity = 1

                         Standard orientation:
 ---------------------------------------------------------------------
 Center     Atomic      Atomic             Coordinates (Angstroms)
 Number     Number       Type             X           Y           Z
 ---------------------------------------------------------------------
      1          8           0       -0.013465    2.995936    0.000000
      2          1           0       -0.011154    2.013338    0.000000
      3          1           0        0.915276    3.316788    0.000000
      4          8           0       -0.013465   -2.836656    0.000000
      5          1           0       -0.996064   -2.838968    0.000000
      6          1           0        0.307386   -3.765397    0.000000
 ---------------------------------------------------------------------

 SCF Done:  E(RHF) =  -33.6531857977     A.U. after   10 cycles
 E2 =    -0.2282971964D+00 EUMP2 =    -0.33881482994095D+02
 CCSD(T)
 CCSD(T)= -0.33898445330D+02

 The electronic state is 1-A'.
 Alpha  occ. eigenvalues --   -1.36201  -1.34911  -0.71842  -0.70551  -0.56012
 Alpha  occ. eigenvalues --   -0.54698  -0.50793  -0.49508
 Alpha virt. eigenvalues --    0.19638   0.20967   0.29900   0.31236   0.79757
 Alpha virt. eigenvalues --    0.81016   0.82643   0.84001   0.85788   0.87091
 Alpha virt. eigenvalues --    1.16762   1.18056   1.21207   1.22533   2.56729

 Mulliken charges:
               1
     1  O   -0.746547
     2  H    0.376227
     3  H    0.370317
     4  O   -0.746276
     5  H    0.372822
     6  H    0.373457
 Sum of Mulliken charges =  -0.00000

 Dipole moment (field-independent basis, Debye):
    X=              0.6189    Y=             -3.7265    Z=              0.0000  Tot=              3.7776
 Quadrupole moment (field-independent basis, Debye-Ang):
   XX=             -9.8775   YY=             -6.8547   ZZ=            -14.9913
   XY=             10.8686   XZ=              0.0000   YZ=              0.0000

 639\MP4DQ=-33.8928107\MP4SDQ=-33.8948348\CCSD=-33.8958878\CCSD(T)=-33.
 Normal termination of Gaussian 16 at Sun Dec 10 06:58:56 2023.
