 Gaussian 16, Revision A.03,
 Gaussian 16:  ES64L-G16RevA.03 25-Dec-2016

 ------------------
 #p CCSD(T)/CEP-31G
 ------------------

 ------------
 H2O_H2O_1702
 ------------
 Symbolic Z-matrix:
 Charge =  0 Multiplicity = 1

                         Standard orientation:
 ---------------------------------------------------------------------
 Center     Atomic      Atomic             Coordinates (Angstroms)
 Number     Number       Type             X           Y           Z
 ---------------------------------------------------------------------
      1          8           0        0.088236   -1.771222    0.000000
      2          1           0        0.088000   -0.788621    0.000000
      3          1           0       -0.841181   -2.090111    0.000000
      4          8           0        0.088236    1.626913    0.000000
      5          1           0        0.216257    2.601139    0.000000
      6          1           0       -0.874853    1.432064    0.000000
 ---------------------------------------------------------------------

 SCF Done:  E(RHF) =  -33.6543368494     A.U. after   11 cycles
 E2 =    -0.2289218940D+00 EUMP2 =    -0.33883258743395D+02
 CCSD(T)
 CCSD(T)= -0.33900293804D+02

 The electronic state is 1-A'.
 Alpha  occ. eigenvalues --   -1.37822  -1.33949  -0.73664  -0.69466  -0.57780
 Alpha  occ. eigenvalues --   -0.53637  -0.52395  -0.48512
 Alpha virt. eigenvalues --    0.16860   0.24098   0.28422   0.35842   0.77531
 Alpha virt. eigenvalues --    0.81871   0.82789   0.84785   0.88739   0.99889
 Alpha virt. eigenvalues --    1.15243   1.18001   1.21215   1.38992   2.52118

 Mulliken charges:
               1
     1  O   -0.754720
     2  H    0.395868
     3  H    0.355445
     4  O   -0.757311
     5  H    0.393853
     6  H    0.366865
 Sum of Mulliken charges =   0.00000

 Dipole moment (field-independent basis, Debye):
    X=             -3.9795    Y=              3.6195    Z=              0.0000  Tot=              5.3794
 Quadrupole moment (field-independent basis, Debye-Ang):
   XX=            -11.0055   YY=             -9.0466   ZZ=            -14.9910
   XY=              2.7170   XZ=              0.0000   YZ=              0.0000

 665\MP4DQ=-33.8944868\MP4SDQ=-33.8966175\CCSD=-33.8976346\CCSD(T)=-33.
 Normal termination of Gaussian 16 at Sun Dec 10 06:51:01 2023.
