 Gaussian 16, Revision A.03,
 Gaussian 16:  ES64L-G16RevA.03 25-Dec-2016

 ------------------
 #p CCSD(T)/CEP-31G
 ------------------

 ------------
 H2O_H2O_1616
 ------------
 Symbolic Z-matrix:
 Charge =  0 Multiplicity = 1

                         Standard orientation:
 ---------------------------------------------------------------------
 Center     Atomic      Atomic             Coordinates (Angstroms)
 Number     Number       Type             X           Y           Z
 ---------------------------------------------------------------------
      1          8           0        0.041205    1.750656   -0.000000
      2          1           0        0.038557    0.768058   -0.000000
      3          1           0       -0.887426    2.071826   -0.000000
      4          8           0        0.041205   -1.570791    0.000000
      5          1           0        0.890836   -2.064384    0.000000
      6          1           0       -0.701252   -2.214424    0.000000
 ---------------------------------------------------------------------

 SCF Done:  E(RHF) =  -33.6608142899     A.U. after   11 cycles
 E2 =    -0.2287712450D+00 EUMP2 =    -0.33889585534902D+02
 CCSD(T)
 CCSD(T)= -0.33906377780D+02

 The electronic state is 1-A'.
 Alpha  occ. eigenvalues --   -1.37789  -1.32490  -0.73429  -0.68288  -0.58242
 Alpha  occ. eigenvalues --   -0.52485  -0.52305  -0.47162
 Alpha virt. eigenvalues --    0.18004   0.24927   0.28724   0.38071   0.77453
 Alpha virt. eigenvalues --    0.81083   0.83975   0.86245   0.90318   0.95670
 Alpha virt. eigenvalues --    1.15354   1.19681   1.21108   1.33824   2.49932

 Mulliken charges:
               1
     1  O   -0.778873
     2  H    0.418966
     3  H    0.358030
     4  O   -0.776644
     5  H    0.391165
     6  H    0.387357
 Sum of Mulliken charges =   0.00000

 Dipole moment (field-independent basis, Debye):
    X=             -1.8431    Y=             -4.5090    Z=              0.0000  Tot=              4.8711
 Quadrupole moment (field-independent basis, Debye-Ang):
   XX=             -9.3882   YY=             -7.9172   ZZ=            -15.0075
   XY=             -5.0118   XZ=              0.0000   YZ=             -0.0000

 965\MP4DQ=-33.9006246\MP4SDQ=-33.9027089\CCSD=-33.9037175\CCSD(T)=-33.
 Normal termination of Gaussian 16 at Sun Dec 10 06:49:24 2023.
