 Gaussian 16, Revision A.03,
 Gaussian 16:  ES64L-G16RevA.03 25-Dec-2016

 ------------------
 #p CCSD(T)/CEP-31G
 ------------------

 ------------
 H2O_H2O_3682
 ------------
 Symbolic Z-matrix:
 Charge =  0 Multiplicity = 1

                         Standard orientation:
 ---------------------------------------------------------------------
 Center     Atomic      Atomic             Coordinates (Angstroms)
 Number     Number       Type             X           Y           Z
 ---------------------------------------------------------------------
      1          8           0        0.073530    2.571303    0.000000
      2          1           0        0.072868    1.588702    0.000000
      3          1           0       -0.855748    2.890596    0.000000
      4          8           0        0.073530   -2.404352   -0.000000
      5          1           0        0.507530   -3.285913   -0.000000
      6          1           0       -0.901133   -2.528996   -0.000000
 ---------------------------------------------------------------------

 SCF Done:  E(RHF) =  -33.6533089355     A.U. after   11 cycles
 E2 =    -0.2283228613D+00 EUMP2 =    -0.33881631796753D+02
 CCSD(T)
 CCSD(T)= -0.33898589408D+02

 The electronic state is 1-A'.
 Alpha  occ. eigenvalues --   -1.36482  -1.34581  -0.72131  -0.70195  -0.56307
 Alpha  occ. eigenvalues --   -0.54352  -0.51074  -0.49171
 Alpha virt. eigenvalues --    0.19175   0.21457   0.29589   0.31664   0.79493
 Alpha virt. eigenvalues --    0.81343   0.82309   0.84370   0.85464   0.87594
 Alpha virt. eigenvalues --    1.16475   1.18454   1.20878   1.23382   2.56454

 Mulliken charges:
               1
     1  O   -0.747099
     2  H    0.381141
     3  H    0.365820
     4  O   -0.746901
     5  H    0.376642
     6  H    0.370397
 Sum of Mulliken charges =  -0.00000

 Dipole moment (field-independent basis, Debye):
    X=             -3.3700    Y=             -3.9466    Z=             -0.0000  Tot=              5.1897
 Quadrupole moment (field-independent basis, Debye-Ang):
   XX=            -10.1688   YY=             -6.8388   ZZ=            -14.9914
   XY=             -4.4497   XZ=             -0.0000   YZ=              0.0000

 2051\MP4DQ=-33.8929518\MP4SDQ=-33.8949789\CCSD=-33.8960287\CCSD(T)=-33
 Normal termination of Gaussian 16 at Sun Dec 10 06:39:15 2023.
