 Gaussian 16, Revision A.03,
 Gaussian 16:  ES64L-G16RevA.03 25-Dec-2016

 ------------------
 #p CCSD(T)/CEP-31G
 ------------------

 ------------
 H2O_H2O_2534
 ------------
 Symbolic Z-matrix:
 Charge =  0 Multiplicity = 1

                         Standard orientation:
 ---------------------------------------------------------------------
 Center     Atomic      Atomic             Coordinates (Angstroms)
 Number     Number       Type             X           Y           Z
 ---------------------------------------------------------------------
      1          8           0        0.066770    2.115930    0.000000
      2          1           0        0.065675    1.133329    0.000000
      3          1           0       -0.862367    2.435632   -0.000000
      4          8           0        0.066770   -1.942841    0.000000
      5          1           0        0.611763   -2.760453    0.000000
      6          1           0       -0.883397   -2.193219   -0.000000
 ---------------------------------------------------------------------

 SCF Done:  E(RHF) =  -33.6555288568     A.U. after   11 cycles
 E2 =    -0.2284499960D+00 EUMP2 =    -0.33883978852817D+02
 CCSD(T)
 CCSD(T)= -0.33900900658D+02

 The electronic state is 1-A'.
 Alpha  occ. eigenvalues --   -1.37002  -1.33842  -0.72664  -0.69443  -0.56974
 Alpha  occ. eigenvalues --   -0.53645  -0.51623  -0.48456
 Alpha virt. eigenvalues --    0.18245   0.22807   0.29185   0.33006   0.78916
 Alpha virt. eigenvalues --    0.82072   0.83567   0.85008   0.85795   0.88354
 Alpha virt. eigenvalues --    1.15995   1.19599   1.20476   1.29193   2.54700

 Mulliken charges:
               1
     1  O   -0.756590
     2  H    0.393104
     3  H    0.361941
     4  O   -0.753600
     5  H    0.382066
     6  H    0.373079
 Sum of Mulliken charges =  -0.00000

 Dipole moment (field-independent basis, Debye):
    X=             -3.0357    Y=             -4.1884    Z=             -0.0000  Tot=              5.1728
 Quadrupole moment (field-independent basis, Debye-Ang):
   XX=             -9.8979   YY=             -7.2636   ZZ=            -14.9956
   XY=             -4.4804   XZ=              0.0000   YZ=             -0.0000

 81\MP4DQ=-33.895228\MP4SDQ=-33.8972844\CCSD=-33.8983173\CCSD(T)=-33.90
 Normal termination of Gaussian 16 at Sun Dec 10 06:18:37 2023.
