 Gaussian 16, Revision A.03,
 Gaussian 16:  ES64L-G16RevA.03 25-Dec-2016

 ------------------
 #p CCSD(T)/CEP-31G
 ------------------

 ------------
 H2O_H2O_3793
 ------------
 Symbolic Z-matrix:
 Charge =  0 Multiplicity = 1

                         Standard orientation:
 ---------------------------------------------------------------------
 Center     Atomic      Atomic             Coordinates (Angstroms)
 Number     Number       Type             X           Y           Z
 ---------------------------------------------------------------------
      1          8           0        0.033769    2.616947    0.000000
      2          1           0        0.031783    1.634347    0.000000
      3          1           0       -0.895078    2.937491   -0.000000
      4          8           0        0.033769   -2.439408    0.000000
      5          1           0        0.940813   -2.817267    0.000000
      6          1           0       -0.617829   -3.174884   -0.000000
 ---------------------------------------------------------------------

 SCF Done:  E(RHF) =  -33.6541236226     A.U. after   11 cycles
 E2 =    -0.2282796921D+00 EUMP2 =    -0.33882403314656D+02
 CCSD(T)
 CCSD(T)= -0.33899337892D+02

 The electronic state is 1-A'.
 Alpha  occ. eigenvalues --   -1.36415  -1.34432  -0.72057  -0.70064  -0.56285
 Alpha  occ. eigenvalues --   -0.54240  -0.51021  -0.49040
 Alpha virt. eigenvalues --    0.19378   0.21584   0.29725   0.31836   0.79537
 Alpha virt. eigenvalues --    0.81460   0.82286   0.84457   0.85552   0.87576
 Alpha virt. eigenvalues --    1.16586   1.18618   1.21006   1.23354   2.56541

 Mulliken charges:
               1
     1  O   -0.750216
     2  H    0.382001
     3  H    0.368093
     4  O   -0.749222
     5  H    0.375402
     6  H    0.373943
 Sum of Mulliken charges =  -0.00000

 Dipole moment (field-independent basis, Debye):
    X=             -1.5461    Y=             -4.1873    Z=             -0.0000  Tot=              4.4636
 Quadrupole moment (field-independent basis, Debye-Ang):
   XX=             -9.4350   YY=             -5.9518   ZZ=            -14.9933
   XY=             -7.6961   XZ=              0.0000   YZ=             -0.0000

 68\MP4DQ=-33.8937074\MP4SDQ=-33.8957318\CCSD=-33.8967805\CCSD(T)=-33.8
 Normal termination of Gaussian 16 at Sun Dec 10 06:41:16 2023.
