 Gaussian 16, Revision A.03,
 Gaussian 16:  ES64L-G16RevA.03 25-Dec-2016

 ------------------
 #p CCSD(T)/CEP-31G
 ------------------

 ------------
 H2O_H2O_4480
 ------------
 Symbolic Z-matrix:
 Charge =  0 Multiplicity = 1

                         Standard orientation:
 ---------------------------------------------------------------------
 Center     Atomic      Atomic             Coordinates (Angstroms)
 Number     Number       Type             X           Y           Z
 ---------------------------------------------------------------------
      1          8           0        0.079844    2.886127    0.000000
      2          1           0        0.079448    1.903526    0.000000
      3          1           0       -0.849520    3.205168   -0.000000
      4          8           0        0.079844   -2.727050    0.000000
      5          1           0        0.395315   -3.657633    0.000000
      6          1           0       -0.902752   -2.723675   -0.000000
 ---------------------------------------------------------------------

 SCF Done:  E(RHF) =  -33.6525653737     A.U. after   11 cycles
 E2 =    -0.2283344498D+00 EUMP2 =    -0.33880899823440D+02
 CCSD(T)
 CCSD(T)= -0.33897878704D+02

 The electronic state is 1-A'.
 Alpha  occ. eigenvalues --   -1.36289  -1.34905  -0.71934  -0.70525  -0.56071
 Alpha  occ. eigenvalues --   -0.54658  -0.50870  -0.49486
 Alpha virt. eigenvalues --    0.19488   0.20972   0.29769   0.31223   0.79689
 Alpha virt. eigenvalues --    0.81045   0.82607   0.84054   0.85714   0.87218
 Alpha virt. eigenvalues --    1.16646   1.18032   1.21091   1.22555   2.56616

 Mulliken charges:
               1
     1  O   -0.744205
     2  H    0.376977
     3  H    0.367220
     4  O   -0.744277
     5  H    0.374714
     6  H    0.369571
 Sum of Mulliken charges =   0.00000

 Dipole moment (field-independent basis, Debye):
    X=             -3.6709    Y=             -3.7340    Z=             -0.0000  Tot=              5.2362
 Quadrupole moment (field-independent basis, Debye-Ang):
   XX=            -10.4748   YY=             -7.0564   ZZ=            -14.9899
   XY=             -4.0392   XZ=              0.0000   YZ=             -0.0000

 956\MP4DQ=-33.8922394\MP4SDQ=-33.8942652\CCSD=-33.8953188\CCSD(T)=-33.
 Normal termination of Gaussian 16 at Sun Dec 10 06:53:38 2023.
