 Gaussian 16, Revision A.03,
 Gaussian 16:  ES64L-G16RevA.03 25-Dec-2016

 ------------------
 #p CCSD(T)/CEP-31G
 ------------------

 ------------
 H2O_H2O_3274
 ------------
 Symbolic Z-matrix:
 Charge =  0 Multiplicity = 1

                         Standard orientation:
 ---------------------------------------------------------------------
 Center     Atomic      Atomic             Coordinates (Angstroms)
 Number     Number       Type             X           Y           Z
 ---------------------------------------------------------------------
      1          8           0       -0.013514    2.397614    0.000000
      2          1           0       -0.010606    1.415017    0.000000
      3          1           0        0.915032    2.719030    0.000000
      4          8           0       -0.013514   -2.238351    0.000000
      5          1           0       -0.996111   -2.241258    0.000000
      6          1           0        0.307903   -3.166897    0.000000
 ---------------------------------------------------------------------

 SCF Done:  E(RHF) =  -33.6547213860     A.U. after   11 cycles
 E2 =    -0.2282812880D+00 EUMP2 =    -0.33883002673978D+02
 CCSD(T)
 CCSD(T)= -0.33899926255D+02

 The electronic state is 1-A'.
 Alpha  occ. eigenvalues --   -1.36582  -1.34446  -0.72233  -0.70091  -0.56481
 Alpha  occ. eigenvalues --   -0.54276  -0.51194  -0.49067
 Alpha virt. eigenvalues --    0.18817   0.21884   0.29567   0.31906   0.79369
 Alpha virt. eigenvalues --    0.81428   0.82265   0.84287   0.85500   0.87593
 Alpha virt. eigenvalues --    1.16376   1.18841   1.20828   1.24622   2.56402

 Mulliken charges:
               1
     1  O   -0.752647
     2  H    0.382520
     3  H    0.369761
     4  O   -0.751658
     5  H    0.375278
     6  H    0.376746
 Sum of Mulliken charges =   0.00000

 Dipole moment (field-independent basis, Debye):
    X=              0.6166    Y=             -3.7779    Z=              0.0000  Tot=              3.8279
 Quadrupole moment (field-independent basis, Debye-Ang):
   XX=             -9.8714   YY=             -7.5913   ZZ=            -14.9942
   XY=              8.6671   XZ=              0.0000   YZ=              0.0000

 5379\MP4DQ=-33.8942904\MP4SDQ=-33.89632\CCSD=-33.8973643\CCSD(T)=-33.8
 Normal termination of Gaussian 16 at Sun Dec 10 06:32:00 2023.
