 Gaussian 16, Revision A.03,
 Gaussian 16:  ES64L-G16RevA.03 25-Dec-2016

 ------------------
 #p CCSD(T)/CEP-31G
 ------------------

 ------------
 H2O_H2O_3193
 ------------
 Symbolic Z-matrix:
 Charge =  0 Multiplicity = 1

                         Standard orientation:
 ---------------------------------------------------------------------
 Center     Atomic      Atomic             Coordinates (Angstroms)
 Number     Number       Type             X           Y           Z
 ---------------------------------------------------------------------
      1          8           0        0.033788    2.377614    0.000000
      2          1           0        0.031594    1.395015    0.000000
      3          1           0       -0.894991    2.698355   -0.000000
      4          8           0        0.033788   -2.200089    0.000000
      5          1           0        0.940751   -2.578140    0.000000
      6          1           0       -0.617967   -2.935427   -0.000000
 ---------------------------------------------------------------------

 SCF Done:  E(RHF) =  -33.6550844048     A.U. after   11 cycles
 E2 =    -0.2282977720D+00 EUMP2 =    -0.33883382176762D+02
 CCSD(T)
 CCSD(T)= -0.33900292847D+02

 The electronic state is 1-A'.
 Alpha  occ. eigenvalues --   -1.36623  -1.34139  -0.72268  -0.69769  -0.56549
 Alpha  occ. eigenvalues --   -0.53968  -0.51242  -0.48760
 Alpha virt. eigenvalues --    0.18992   0.22085   0.29560   0.32233   0.79324
 Alpha virt. eigenvalues --    0.81723   0.82335   0.84613   0.85451   0.87857
 Alpha virt. eigenvalues --    1.16412   1.19105   1.20817   1.24853   2.56257

 Mulliken charges:
               1
     1  O   -0.754027
     2  H    0.386363
     3  H    0.367105
     4  O   -0.752057
     5  H    0.377198
     6  H    0.375418
 Sum of Mulliken charges =  -0.00000

 Dipole moment (field-independent basis, Debye):
    X=             -1.5412    Y=             -4.2236    Z=             -0.0000  Tot=              4.4960
 Quadrupole moment (field-independent basis, Debye-Ang):
   XX=             -9.4320   YY=             -6.4610   ZZ=            -14.9952
   XY=             -7.0377   XZ=              0.0000   YZ=             -0.0000

 033\MP4DQ=-33.8946574\MP4SDQ=-33.8966891\CCSD=-33.8977309\CCSD(T)=-33.
 Normal termination of Gaussian 16 at Sun Dec 10 06:30:32 2023.
