 Gaussian 16, Revision A.03,
 Gaussian 16:  ES64L-G16RevA.03 25-Dec-2016

 ------------------
 #p CCSD(T)/CEP-31G
 ------------------

 ------------
 H2O_H2O_3965
 ------------
 Symbolic Z-matrix:
 Charge =  0 Multiplicity = 1

                         Standard orientation:
 ---------------------------------------------------------------------
 Center     Atomic      Atomic             Coordinates (Angstroms)
 Number     Number       Type             X           Y           Z
 ---------------------------------------------------------------------
      1          8           0        0.044837    2.688314   -0.000000
      2          1           0        0.043265    1.705714   -0.000000
      3          1           0       -0.884145    3.008466   -0.000000
      4          8           0        0.044837   -2.507893    0.000000
      5          1           0        0.860967   -3.055102    0.000000
      6          1           0       -0.737475   -3.102446    0.000000
 ---------------------------------------------------------------------

 SCF Done:  E(RHF) =  -33.6538159510     A.U. after   11 cycles
 E2 =    -0.2282884501D+00 EUMP2 =    -0.33882104401077D+02
 CCSD(T)
 CCSD(T)= -0.33899047089D+02

 The electronic state is 1-A'.
 Alpha  occ. eigenvalues --   -1.36374  -1.34476  -0.72015  -0.70104  -0.56227
 Alpha  occ. eigenvalues --   -0.54272  -0.50976  -0.49079
 Alpha virt. eigenvalues --    0.19444   0.21499   0.29757   0.31763   0.79581
 Alpha virt. eigenvalues --    0.81427   0.82354   0.84434   0.85600   0.87549
 Alpha virt. eigenvalues --    1.16614   1.18538   1.21052   1.23157   2.56571

 Mulliken charges:
               1
     1  O   -0.749025
     2  H    0.381376
     3  H    0.367574
     4  O   -0.748192
     5  H    0.375394
     6  H    0.372874
 Sum of Mulliken charges =  -0.00000

 Dipole moment (field-independent basis, Debye):
    X=             -2.0550    Y=             -4.2492    Z=              0.0000  Tot=              4.7200
 Quadrupole moment (field-independent basis, Debye-Ang):
   XX=             -9.4276   YY=             -5.5902   ZZ=            -14.9927
   XY=             -6.9963   XZ=              0.0000   YZ=             -0.0000

 64\MP4DQ=-33.8934158\MP4SDQ=-33.8954399\CCSD=-33.8964898\CCSD(T)=-33.8
 Normal termination of Gaussian 16 at Sun Dec 10 06:44:22 2023.
