 Gaussian 16, Revision A.03,
 Gaussian 16:  ES64L-G16RevA.03 25-Dec-2016

 ------------------
 #p CCSD(T)/CEP-31G
 ------------------

 ------------
 H2O_H2O_3922
 ------------
 Symbolic Z-matrix:
 Charge =  0 Multiplicity = 1

                         Standard orientation:
 ---------------------------------------------------------------------
 Center     Atomic      Atomic             Coordinates (Angstroms)
 Number     Number       Type             X           Y           Z
 ---------------------------------------------------------------------
      1          8           0       -0.019833    2.661148    0.000000
      2          1           0       -0.017426    1.678549    0.000000
      3          1           0        0.908877    2.982089    0.000000
      4          8           0       -0.019833   -2.494031    0.000000
      5          1           0       -0.993712   -2.624671    0.000000
      6          1           0        0.419584   -3.372904    0.000000
 ---------------------------------------------------------------------

 SCF Done:  E(RHF) =  -33.6539415030     A.U. after   11 cycles
 E2 =    -0.2282752789D+00 EUMP2 =    -0.33882216781871D+02
 CCSD(T)
 CCSD(T)= -0.33899157806D+02

 The electronic state is 1-A'.
 Alpha  occ. eigenvalues --   -1.36376  -1.34599  -0.72019  -0.70238  -0.56233
 Alpha  occ. eigenvalues --   -0.54407  -0.50979  -0.49207
 Alpha virt. eigenvalues --    0.19403   0.21401   0.29747   0.31649   0.79577
 Alpha virt. eigenvalues --    0.81299   0.82347   0.84277   0.85574   0.87405
 Alpha virt. eigenvalues --    1.16613   1.18437   1.21024   1.23126   2.56551

 Mulliken charges:
               1
     1  O   -0.749516
     2  H    0.380007
     3  H    0.369437
     4  O   -0.748857
     5  H    0.374370
     6  H    0.374559
 Sum of Mulliken charges =   0.00000

 Dipole moment (field-independent basis, Debye):
    X=              0.9085    Y=             -3.9339    Z=              0.0000  Tot=              4.0374
 Quadrupole moment (field-independent basis, Debye-Ang):
   XX=             -9.6784   YY=             -6.6459   ZZ=            -14.9928
   XY=              9.0201   XZ=              0.0000   YZ=              0.0000

 767\MP4DQ=-33.8935266\MP4SDQ=-33.8955505\CCSD=-33.8966005\CCSD(T)=-33.
 Normal termination of Gaussian 16 at Sun Dec 10 06:43:35 2023.
