 Gaussian 16, Revision A.03,
 Gaussian 16:  ES64L-G16RevA.03 25-Dec-2016

 ------------------
 #p CCSD(T)/CEP-31G
 ------------------

 -----------
 H2O_H2O_904
 -----------
 Symbolic Z-matrix:
 Charge =  0 Multiplicity = 1

                         Standard orientation:
 ---------------------------------------------------------------------
 Center     Atomic      Atomic             Coordinates (Angstroms)
 Number     Number       Type             X           Y           Z
 ---------------------------------------------------------------------
      1          8           0        0.082823   -1.457644    0.000000
      2          1           0        0.082199   -0.475043    0.000000
      3          1           0       -0.846468   -1.776901    0.000000
      4          8           0        0.082823    1.303167    0.000000
      5          1           0        0.336537    2.252450    0.000000
      6          1           0       -0.897433    1.235308    0.000000
 ---------------------------------------------------------------------

 SCF Done:  E(RHF) =  -33.6540543054     A.U. after   11 cycles
 E2 =    -0.2290341457D+00 EUMP2 =    -0.33883088451079D+02
 CCSD(T)
 CCSD(T)= -0.33899824255D+02

 The electronic state is 1-A'.
 Alpha  occ. eigenvalues --   -1.39506  -1.32186  -0.75769  -0.68518  -0.59183
 Alpha  occ. eigenvalues --   -0.54003  -0.51594  -0.46687
 Alpha virt. eigenvalues --    0.16841   0.25743   0.27537   0.45281   0.74929
 Alpha virt. eigenvalues --    0.78340   0.85082   0.86243   0.93159   1.11066
 Alpha virt. eigenvalues --    1.15658   1.22703   1.25600   1.36893   2.53983

 Mulliken charges:
               1
     1  O   -0.751562
     2  H    0.398203
     3  H    0.340748
     4  O   -0.796579
     5  H    0.432964
     6  H    0.376226
 Sum of Mulliken charges =   0.00000

 Dipole moment (field-independent basis, Debye):
    X=             -3.6275    Y=              4.1878    Z=              0.0000  Tot=              5.5404
 Quadrupole moment (field-independent basis, Debye-Ang):
   XX=            -10.6922   YY=             -9.1622   ZZ=            -14.9983
   XY=              2.9817   XZ=              0.0000   YZ=              0.0000

 9\MP4DQ=-33.8938446\MP4SDQ=-33.8960696\CCSD=-33.8970161\CCSD(T)=-33.89
 Normal termination of Gaussian 16 at Sun Dec 10 06:35:31 2023.
