 Gaussian 16, Revision A.03,
 Gaussian 16:  ES64L-G16RevA.03 25-Dec-2016

 ------------------
 #p CCSD(T)/CEP-31G
 ------------------

 ------------
 H2O_H2O_1189
 ------------
 Symbolic Z-matrix:
 Charge =  0 Multiplicity = 1

                         Standard orientation:
 ---------------------------------------------------------------------
 Center     Atomic      Atomic             Coordinates (Angstroms)
 Number     Number       Type             X           Y           Z
 ---------------------------------------------------------------------
      1          8           0        0.048662    1.581371   -0.000000
      2          1           0        0.046136    0.598773   -0.000000
      3          1           0       -0.880009    1.902426   -0.000000
      4          8           0        0.048662   -1.401068    0.000000
      5          1           0        0.826672   -2.001240    0.000000
      6          1           0       -0.771387   -1.942387    0.000000
 ---------------------------------------------------------------------

 SCF Done:  E(RHF) =  -33.6626471289     A.U. after   11 cycles
 E2 =    -0.2290404070D+00 EUMP2 =    -0.33891687535825D+02
 CCSD(T)
 CCSD(T)= -0.33908278687D+02

 The electronic state is 1-A'.
 Alpha  occ. eigenvalues --   -1.38522  -1.31619  -0.74123  -0.68044  -0.59048
 Alpha  occ. eigenvalues --   -0.53252  -0.51275  -0.46272
 Alpha virt. eigenvalues --    0.17724   0.26023   0.28212   0.42825   0.76138
 Alpha virt. eigenvalues --    0.78474   0.85629   0.85761   0.93835   0.99742
 Alpha virt. eigenvalues --    1.14933   1.19363   1.21863   1.34605   2.50615

 Mulliken charges:
               1
     1  O   -0.784546
     2  H    0.433224
     3  H    0.350281
     4  O   -0.797725
     5  H    0.404894
     6  H    0.393872
 Sum of Mulliken charges =  -0.00000

 Dipole moment (field-independent basis, Debye):
    X=             -2.1448    Y=             -4.6550    Z=              0.0000  Tot=              5.1253
 Quadrupole moment (field-independent basis, Debye-Ang):
   XX=             -9.4257   YY=             -8.4954   ZZ=            -15.0145
   XY=             -4.3844   XZ=              0.0000   YZ=             -0.0000

 7669\MP4DQ=-33.9024608\MP4SDQ=-33.904564\CCSD=-33.9055306\CCSD(T)=-33.
 Normal termination of Gaussian 16 at Sun Dec 10 06:40:55 2023.
