 Gaussian 16, Revision A.03,
 Gaussian 16:  ES64L-G16RevA.03 25-Dec-2016

 ------------------
 #p CCSD(T)/CEP-31G
 ------------------

 -----------
 H2O_H2O_565
 -----------
 Symbolic Z-matrix:
 Charge =  0 Multiplicity = 1

                         Standard orientation:
 ---------------------------------------------------------------------
 Center     Atomic      Atomic             Coordinates (Angstroms)
 Number     Number       Type             X           Y           Z
 ---------------------------------------------------------------------
      1          8           0        0.044994    1.332056    0.000000
      2          1           0        0.041707    0.349460    0.000000
      3          1           0       -0.883428    1.653830    0.000000
      4          8           0        0.044994   -1.151792    0.000000
      5          1           0        0.860168   -1.700426    0.000000
      6          1           0       -0.738355   -1.744978    0.000000
 ---------------------------------------------------------------------

 SCF Done:  E(RHF) =  -33.6561655213     A.U. after   11 cycles
 E2 =    -0.2289347141D+00 EUMP2 =    -0.33885100235389D+02
 CCSD(T)
 CCSD(T)= -0.33900791468D+02

 The electronic state is 1-A'.
 Alpha  occ. eigenvalues --   -1.40816  -1.29409  -0.76008  -0.71093  -0.58450
 Alpha  occ. eigenvalues --   -0.55432  -0.48291  -0.43894
 Alpha virt. eigenvalues --    0.17131   0.26948   0.28150   0.53920   0.74097
 Alpha virt. eigenvalues --    0.74372   0.85472   0.89040   0.96174   1.00309
 Alpha virt. eigenvalues --    1.14628   1.17894   1.24478   1.36899   2.67144

 Mulliken charges:
               1
     1  O   -0.776911
     2  H    0.424736
     3  H    0.333315
     4  O   -0.833186
     5  H    0.429991
     6  H    0.422055
 Sum of Mulliken charges =   0.00000

 Dipole moment (field-independent basis, Debye):
    X=             -1.9193    Y=             -5.0561    Z=              0.0000  Tot=              5.4082
 Quadrupole moment (field-independent basis, Debye-Ang):
   XX=             -9.3436   YY=             -9.6293   ZZ=            -15.0125
   XY=             -3.8524   XZ=              0.0000   YZ=              0.0000

 925\MP4DQ=-33.8948295\MP4SDQ=-33.8970044\CCSD=-33.8978073\CCSD(T)=-33.
 Normal termination of Gaussian 16 at Sun Dec 10 06:29:09 2023.
