 Gaussian 16, Revision A.03,
 Gaussian 16:  ES64L-G16RevA.03 25-Dec-2016

 ------------------
 #p CCSD(T)/CEP-31G
 ------------------

 ------------
 H2O_H2O_2508
 ------------
 Symbolic Z-matrix:
 Charge =  0 Multiplicity = 1

                         Standard orientation:
 ---------------------------------------------------------------------
 Center     Atomic      Atomic             Coordinates (Angstroms)
 Number     Number       Type             X           Y           Z
 ---------------------------------------------------------------------
      1          8           0        0.070207    2.104405    0.000000
      2          1           0        0.069251    1.121804    0.000000
      3          1           0       -0.858975    2.423976    0.000000
      4          8           0        0.070207   -1.934175   -0.000000
      5          1           0        0.560680   -2.785610   -0.000000
      6          1           0       -0.894274   -2.122010   -0.000000
 ---------------------------------------------------------------------

 SCF Done:  E(RHF) =  -33.6553314111     A.U. after   11 cycles
 E2 =    -0.2284659029D+00 EUMP2 =    -0.33883797314051D+02
 CCSD(T)
 CCSD(T)= -0.33900727330D+02

 The electronic state is 1-A'.
 Alpha  occ. eigenvalues --   -1.37025  -1.33893  -0.72691  -0.69489  -0.56985
 Alpha  occ. eigenvalues --   -0.53687  -0.51641  -0.48502
 Alpha virt. eigenvalues --    0.18137   0.22813   0.29150   0.32989   0.78892
 Alpha virt. eigenvalues --    0.82038   0.83456   0.84996   0.86099   0.88348
 Alpha virt. eigenvalues --    1.15942   1.19566   1.20454   1.29594   2.54705

 Mulliken charges:
               1
     1  O   -0.755905
     2  H    0.392723
     3  H    0.361638
     4  O   -0.753230
     5  H    0.382339
     6  H    0.372434
 Sum of Mulliken charges =   0.00000

 Dipole moment (field-independent basis, Debye):
    X=             -3.1924    Y=             -4.1225    Z=             -0.0000  Tot=              5.2141
 Quadrupole moment (field-independent basis, Debye-Ang):
   XX=            -10.0312   YY=             -7.4281   ZZ=            -14.9951
   XY=             -4.2471   XZ=             -0.0000   YZ=              0.0000

 3019\MP4DQ=-33.8950506\MP4SDQ=-33.897109\CCSD=-33.8981419\CCSD(T)=-33.
 Normal termination of Gaussian 16 at Sun Dec 10 06:18:09 2023.
