 Gaussian 16, Revision A.03,
 Gaussian 16:  ES64L-G16RevA.03 25-Dec-2016

 ------------------
 #p CCSD(T)/CEP-31G
 ------------------

 ------------
 H2O_H2O_1341
 ------------
 Symbolic Z-matrix:
 Charge =  0 Multiplicity = 1

                         Standard orientation:
 ---------------------------------------------------------------------
 Center     Atomic      Atomic             Coordinates (Angstroms)
 Number     Number       Type             X           Y           Z
 ---------------------------------------------------------------------
      1          8           0        0.041222    1.640957    0.000000
      2          1           0        0.038387    0.658360    0.000000
      3          1           0       -0.887347    1.962305    0.000000
      4          8           0        0.041222   -1.461108   -0.000000
      5          1           0        0.890760   -1.954862   -0.000000
      6          1           0       -0.701358   -2.104600   -0.000000
 ---------------------------------------------------------------------

 SCF Done:  E(RHF) =  -33.6623533575     A.U. after   11 cycles
 E2 =    -0.2289232073D+00 EUMP2 =    -0.33891276564861D+02
 CCSD(T)
 CCSD(T)= -0.33907957945D+02

 The electronic state is 1-A'.
 Alpha  occ. eigenvalues --   -1.38208  -1.31951  -0.73832  -0.68047  -0.58786
 Alpha  occ. eigenvalues --   -0.52930  -0.51691  -0.46623
 Alpha virt. eigenvalues --    0.17860   0.25646   0.28435   0.40920   0.76646
 Alpha virt. eigenvalues --    0.79445   0.84977   0.86111   0.92127   0.99111
 Alpha virt. eigenvalues --    1.15095   1.19304   1.21711   1.34229   2.49840

 Mulliken charges:
               1
     1  O   -0.784188
     2  H    0.428218
     3  H    0.354599
     4  O   -0.789808
     5  H    0.397212
     6  H    0.393967
 Sum of Mulliken charges =  -0.00000

 Dipole moment (field-independent basis, Debye):
    X=             -1.8316    Y=             -4.5877    Z=             -0.0000  Tot=              4.9398
 Quadrupole moment (field-independent basis, Debye-Ang):
   XX=             -9.3775   YY=             -8.2783   ZZ=            -15.0124
   XY=             -4.7320   XZ=             -0.0000   YZ=              0.0000

 4591\MP4DQ=-33.9021679\MP4SDQ=-33.9042614\CCSD=-33.9052477\CCSD(T)=-33
 Normal termination of Gaussian 16 at Sun Dec 10 06:43:55 2023.
