 Gaussian 16, Revision A.03,
 Gaussian 16:  ES64L-G16RevA.03 25-Dec-2016

 ------------------
 #p CCSD(T)/CEP-31G
 ------------------

 ------------
 H2O_H2O_4761
 ------------
 Symbolic Z-matrix:
 Charge =  0 Multiplicity = 1

                         Standard orientation:
 ---------------------------------------------------------------------
 Center     Atomic      Atomic             Coordinates (Angstroms)
 Number     Number       Type             X           Y           Z
 ---------------------------------------------------------------------
      1          8           0        0.059616    3.005815   -0.000000
      2          1           0        0.058646    2.023214   -0.000000
      3          1           0       -0.869563    3.325398   -0.000000
      4          8           0        0.059616   -2.828336    0.000000
      5          1           0        0.706761   -3.567734    0.000000
      6          1           0       -0.849694   -3.200710    0.000000
 ---------------------------------------------------------------------

 SCF Done:  E(RHF) =  -33.6529596310     A.U. after   11 cycles
 E2 =    -0.2283153462D+00 EUMP2 =    -0.33881274977206D+02
 CCSD(T)
 CCSD(T)= -0.33898242026D+02

 The electronic state is 1-A'.
 Alpha  occ. eigenvalues --   -1.36217  -1.34768  -0.71857  -0.70395  -0.56019
 Alpha  occ. eigenvalues --   -0.54539  -0.50806  -0.49357
 Alpha virt. eigenvalues --    0.19611   0.21110   0.29866   0.31384   0.79748
 Alpha virt. eigenvalues --    0.81167   0.82643   0.84163   0.85799   0.87292
 Alpha virt. eigenvalues --    1.16736   1.18183   1.21182   1.22679   2.56719

 Mulliken charges:
               1
     1  O   -0.745697
     2  H    0.377723
     3  H    0.367970
     4  O   -0.745383
     5  H    0.374189
     6  H    0.371197
 Sum of Mulliken charges =  -0.00000

 Dipole moment (field-independent basis, Debye):
    X=             -2.7410    Y=             -4.1575    Z=             -0.0000  Tot=              4.9797
 Quadrupole moment (field-independent basis, Debye-Ang):
   XX=             -9.6719   YY=             -5.1464   ZZ=            -14.9909
   XY=             -6.2882   XZ=              0.0000   YZ=             -0.0000

 605\MP4DQ=-33.8926063\MP4SDQ=-33.8946309\CCSD=-33.895684\CCSD(T)=-33.8
 Normal termination of Gaussian 16 at Sun Dec 10 06:58:42 2023.
