 Gaussian 16, Revision A.03,
 Gaussian 16:  ES64L-G16RevA.03 25-Dec-2016

 ------------------
 #p CCSD(T)/CEP-31G
 ------------------

 ------------
 H2O_H2O_1065
 ------------
 Symbolic Z-matrix:
 Charge =  0 Multiplicity = 1

                         Standard orientation:
 ---------------------------------------------------------------------
 Center     Atomic      Atomic             Coordinates (Angstroms)
 Number     Number       Type             X           Y           Z
 ---------------------------------------------------------------------
      1          8           0        0.044953    1.531515    0.000000
      2          1           0        0.042120    0.548917    0.000000
      3          1           0       -0.883618    1.852859    0.000000
      4          8           0        0.044953   -1.351209    0.000000
      5          1           0        0.860378   -1.899465    0.000000
      6          1           0       -0.738122   -1.944757    0.000000
 ---------------------------------------------------------------------

 SCF Done:  E(RHF) =  -33.6631250960     A.U. after   11 cycles
 E2 =    -0.2290726382D+00 EUMP2 =    -0.33892197734262D+02
 CCSD(T)
 CCSD(T)= -0.33908675403D+02

 The electronic state is 1-A'.
 Alpha  occ. eigenvalues --   -1.38810  -1.31261  -0.74380  -0.68145  -0.59235
 Alpha  occ. eigenvalues --   -0.53552  -0.50844  -0.45909
 Alpha virt. eigenvalues --    0.17655   0.26416   0.28044   0.44653   0.75709
 Alpha virt. eigenvalues --    0.77570   0.85734   0.86241   0.94816   0.99847
 Alpha virt. eigenvalues --    1.14978   1.19071   1.22391   1.35213   2.52020

 Mulliken charges:
               1
     1  O   -0.786118
     2  H    0.435754
     3  H    0.348701
     4  O   -0.806016
     5  H    0.407394
     6  H    0.400286
 Sum of Mulliken charges =   0.00000

 Dipole moment (field-independent basis, Debye):
    X=             -1.9746    Y=             -4.7083    Z=              0.0000  Tot=              5.1057
 Quadrupole moment (field-independent basis, Debye-Ang):
   XX=             -9.3812   YY=             -8.6900   ZZ=            -15.0173
   XY=             -4.3593   XZ=              0.0000   YZ=              0.0000

 1552\MP4DQ=-33.9028383\MP4SDQ=-33.9049477\CCSD=-33.9058932\CCSD(T)=-33
 Normal termination of Gaussian 16 at Sun Dec 10 06:38:32 2023.
