 Gaussian 16, Revision A.03,
 Gaussian 16:  ES64L-G16RevA.03 25-Dec-2016

 ------------------
 #p CCSD(T)/CEP-31G
 ------------------

 ------------
 H2O_H2O_1092
 ------------
 Symbolic Z-matrix:
 Charge =  0 Multiplicity = 1

                         Standard orientation:
 ---------------------------------------------------------------------
 Center     Atomic      Atomic             Coordinates (Angstroms)
 Number     Number       Type             X           Y           Z
 ---------------------------------------------------------------------
      1          8           0        0.037552    1.540711   -0.000000
      2          1           0        0.034306    0.558115   -0.000000
      3          1           0       -0.890883    1.862447   -0.000000
      4          8           0        0.037552   -1.361836    0.000000
      5          1           0        0.917380   -1.799339    0.000000
      6          1           0       -0.661640   -2.052224    0.000000
 ---------------------------------------------------------------------

 SCF Done:  E(RHF) =  -33.6632919078     A.U. after   11 cycles
 E2 =    -0.2289956547D+00 EUMP2 =    -0.33892287562522D+02
 CCSD(T)
 CCSD(T)= -0.33908795288D+02

 The electronic state is 1-A'.
 Alpha  occ. eigenvalues --   -1.38730  -1.31344  -0.74331  -0.68091  -0.59228
 Alpha  occ. eigenvalues --   -0.53470  -0.50957  -0.46007
 Alpha virt. eigenvalues --    0.17705   0.26367   0.28095   0.44213   0.75800
 Alpha virt. eigenvalues --    0.77791   0.86008   0.86099   0.93720   1.01078
 Alpha virt. eigenvalues --    1.15207   1.18714   1.22580   1.35300   2.51751

 Mulliken charges:
               1
     1  O   -0.787025
     2  H    0.433394
     3  H    0.351458
     4  O   -0.805322
     5  H    0.402727
     6  H    0.404768
 Sum of Mulliken charges =  -0.00000

 Dipole moment (field-independent basis, Debye):
    X=             -1.6598    Y=             -4.6625    Z=              0.0000  Tot=              4.9491
 Quadrupole moment (field-independent basis, Debye-Ang):
   XX=             -9.3665   YY=             -8.6520   ZZ=            -15.0172
   XY=             -4.5617   XZ=              0.0000   YZ=             -0.0000

 773\MP4DQ=-33.9029657\MP4SDQ=-33.9050729\CCSD=-33.9060251\CCSD(T)=-33.
 Normal termination of Gaussian 16 at Sun Dec 10 06:39:03 2023.
