 Gaussian 16, Revision A.03,
 Gaussian 16:  ES64L-G16RevA.03 25-Dec-2016

 ------------------
 #p CCSD(T)/CEP-31G
 ------------------

 -----------
 H2O_H2O_833
 -----------
 Symbolic Z-matrix:
 Charge =  0 Multiplicity = 1

                         Standard orientation:
 ---------------------------------------------------------------------
 Center     Atomic      Atomic             Coordinates (Angstroms)
 Number     Number       Type             X           Y           Z
 ---------------------------------------------------------------------
      1          8           0        0.070248    1.436252    0.000000
      2          1           0        0.068819    0.453652    0.000000
      3          1           0       -0.858780    1.756270   -0.000000
      4          8           0        0.070248   -1.266089    0.000000
      5          1           0        0.560311   -2.117761    0.000000
      6          1           0       -0.894324   -1.453460   -0.000000
 ---------------------------------------------------------------------

 SCF Done:  E(RHF) =  -33.6580641562     A.U. after   11 cycles
 E2 =    -0.2290517255D+00 EUMP2 =    -0.33887115881735D+02
 CCSD(T)
 CCSD(T)= -0.33903532542D+02

 The electronic state is 1-A'.
 Alpha  occ. eigenvalues --   -1.39637  -1.31170  -0.75488  -0.68738  -0.59204
 Alpha  occ. eigenvalues --   -0.54250  -0.50506  -0.45706
 Alpha virt. eigenvalues --    0.17118   0.26478   0.27519   0.47516   0.74825
 Alpha virt. eigenvalues --    0.76978   0.85223   0.87093   0.95127   1.07568
 Alpha virt. eigenvalues --    1.16575   1.18895   1.22566   1.36529   2.57063

 Mulliken charges:
               1
     1  O   -0.767388
     2  H    0.422483
     3  H    0.338277
     4  O   -0.816969
     5  H    0.435506
     6  H    0.388091
 Sum of Mulliken charges =   0.00000

 Dipole moment (field-independent basis, Debye):
    X=             -3.0339    Y=             -4.6098    Z=             -0.0000  Tot=              5.5186
 Quadrupole moment (field-independent basis, Debye-Ang):
   XX=            -10.0275   YY=             -9.0801   ZZ=            -15.0090
   XY=             -3.5501   XZ=              0.0000   YZ=             -0.0000

 5\MP4DQ=-33.8975907\MP4SDQ=-33.8997738\CCSD=-33.9006899\CCSD(T)=-33.90
 Normal termination of Gaussian 16 at Sun Dec 10 06:34:11 2023.
