 Gaussian 16, Revision A.03,
 Gaussian 16:  ES64L-G16RevA.03 25-Dec-2016

 ------------------
 #p CCSD(T)/CEP-31G
 ------------------

 ------------
 H2O_H2O_4062
 ------------
 Symbolic Z-matrix:
 Charge =  0 Multiplicity = 1

                         Standard orientation:
 ---------------------------------------------------------------------
 Center     Atomic      Atomic             Coordinates (Angstroms)
 Number     Number       Type             X           Y           Z
 ---------------------------------------------------------------------
      1          8           0        0.055972    2.727391   -0.000000
      2          1           0        0.054782    1.744790   -0.000000
      3          1           0       -0.873135    3.047182   -0.000000
      4          8           0        0.055972   -2.548460    0.000000
      5          1           0        0.749934   -3.244104    0.000000
      6          1           0       -0.827132   -2.979311    0.000000
 ---------------------------------------------------------------------

 SCF Done:  E(RHF) =  -33.6535212980     A.U. after   11 cycles
 E2 =    -0.2282990269D+00 EUMP2 =    -0.33881820324862D+02
 CCSD(T)
 CCSD(T)= -0.33898771225D+02

 The electronic state is 1-A'.
 Alpha  occ. eigenvalues --   -1.36358  -1.34542  -0.71999  -0.70166  -0.56194
 Alpha  occ. eigenvalues --   -0.54327  -0.50954  -0.49139
 Alpha virt. eigenvalues --    0.19456   0.21410   0.29754   0.31679   0.79603
 Alpha virt. eigenvalues --    0.81372   0.82405   0.84381   0.85621   0.87513
 Alpha virt. eigenvalues --    1.16619   1.18450   1.21054   1.23048   2.56581

 Mulliken charges:
               1
     1  O   -0.747892
     2  H    0.380683
     3  H    0.367155
     4  O   -0.747292
     5  H    0.375431
     6  H    0.371915
 Sum of Mulliken charges =  -0.00000

 Dipole moment (field-independent basis, Debye):
    X=             -2.5673    Y=             -4.2114    Z=              0.0000  Tot=              4.9323
 Quadrupole moment (field-independent basis, Debye-Ang):
   XX=             -9.5848   YY=             -5.6233   ZZ=            -14.9921
   XY=             -6.1660   XZ=              0.0000   YZ=             -0.0000

 902\MP4DQ=-33.8931383\MP4SDQ=-33.8951626\CCSD=-33.8962135\CCSD(T)=-33.
 Normal termination of Gaussian 16 at Sun Dec 10 06:46:06 2023.
