 Gaussian 16, Revision A.03,
 Gaussian 16:  ES64L-G16RevA.03 25-Dec-2016

 ------------------
 #p CCSD(T)/CEP-31G
 ------------------

 ----------
 H2O_H2O_24
 ----------
 Symbolic Z-matrix:
 Charge =  0 Multiplicity = 1

                         Standard orientation:
 ---------------------------------------------------------------------
 Center     Atomic      Atomic             Coordinates (Angstroms)
 Number     Number       Type             X           Y           Z
 ---------------------------------------------------------------------
      1          8           0       -0.013812   -1.101225   -0.000000
      2          1           0       -0.007216   -0.118645   -0.000000
      3          1           0        0.913520   -1.426124    0.000000
      4          8           0       -0.013812    0.942064   -0.000000
      5          1           0       -0.996393    0.948660   -0.000000
      6          1           0        0.311087    1.869397    0.000000
 ---------------------------------------------------------------------

 SCF Done:  E(RHF) =  -33.5723640176     A.U. after   11 cycles
 E2 =    -0.2263211696D+00 EUMP2 =    -0.33798685187242D+02
 CCSD(T)
 CCSD(T)= -0.33813312566D+02

 The electronic state is 1-A'.
 Alpha  occ. eigenvalues --   -1.47568  -1.26748  -0.85119  -0.74254  -0.59502
 Alpha  occ. eigenvalues --   -0.55440  -0.43301  -0.40793
 Alpha virt. eigenvalues --    0.16799   0.23901   0.30595   0.62459   0.73279
 Alpha virt. eigenvalues --    0.74312   0.91704   0.91892   0.92685   1.05797
 Alpha virt. eigenvalues --    1.10349   1.19762   1.31187   1.50185   3.06346

 Mulliken charges:
               1
     1  O   -0.724500
     2  H    0.190206
     3  H    0.326833
     4  O   -0.741181
     5  H    0.442779
     6  H    0.505862
 Sum of Mulliken charges =  -0.00000

 Dipole moment (field-independent basis, Debye):
    X=              0.5774    Y=              5.3891    Z=              0.0000  Tot=              5.4199
 Quadrupole moment (field-independent basis, Debye-Ang):
   XX=             -9.6777   YY=            -10.6387   ZZ=            -14.8929
   XY=             -3.6917   XZ=              0.0000   YZ=             -0.0000

 MP4DQ=-33.8070623\MP4SDQ=-33.8094851\CCSD=-33.8100944\CCSD(T)=-33.8133
 Normal termination of Gaussian 16 at Sun Dec 10 06:18:29 2023.
