 Gaussian 16, Revision A.03,
 Gaussian 16:  ES64L-G16RevA.03 25-Dec-2016

 ------------------
 #p CCSD(T)/CEP-31G
 ------------------

 ------------
 H2O_H2O_2405
 ------------
 Symbolic Z-matrix:
 Charge =  0 Multiplicity = 1

                         Standard orientation:
 ---------------------------------------------------------------------
 Center     Atomic      Atomic             Coordinates (Angstroms)
 Number     Number       Type             X           Y           Z
 ---------------------------------------------------------------------
      1          8           0        0.079858    2.058443   -0.000000
      2          1           0        0.079296    1.075842   -0.000000
      3          1           0       -0.849453    2.377641   -0.000000
      4          8           0        0.079858   -1.899394    0.000000
      5          1           0        0.395173   -2.830029    0.000000
      6          1           0       -0.902737   -1.895852    0.000000
 ---------------------------------------------------------------------

 SCF Done:  E(RHF) =  -33.6546096969     A.U. after   11 cycles
 E2 =    -0.2285298481D+00 EUMP2 =    -0.33883139545015D+02
 CCSD(T)
 CCSD(T)= -0.33900100693D+02

 The electronic state is 1-A'.
 Alpha  occ. eigenvalues --   -1.37114  -1.34092  -0.72799  -0.69674  -0.57034
 Alpha  occ. eigenvalues --   -0.53858  -0.51715  -0.48686
 Alpha virt. eigenvalues --    0.17687   0.22893   0.29044   0.32932   0.78790
 Alpha virt. eigenvalues --    0.81909   0.83136   0.84841   0.87351   0.88341
 Alpha virt. eigenvalues --    1.15716   1.19378   1.20428   1.31211   2.54793

 Mulliken charges:
               1
     1  O   -0.753440
     2  H    0.391043
     3  H    0.360847
     4  O   -0.751805
     5  H    0.383225
     6  H    0.370130
 Sum of Mulliken charges =  -0.00000

 Dipole moment (field-independent basis, Debye):
    X=             -3.6318    Y=             -3.8637    Z=              0.0000  Tot=              5.3026
 Quadrupole moment (field-independent basis, Debye-Ang):
   XX=            -10.4903   YY=             -8.0706   ZZ=            -14.9931
   XY=             -3.5230   XZ=              0.0000   YZ=             -0.0000

 64\MP4DQ=-33.8944079\MP4SDQ=-33.8964743\CCSD=-33.8975071\CCSD(T)=-33.9
 Normal termination of Gaussian 16 at Sun Dec 10 07:05:42 2023.
