 Gaussian 16, Revision A.03,
 Gaussian 16:  ES64L-G16RevA.03 25-Dec-2016

 ------------------
 #p CCSD(T)/CEP-31G
 ------------------

 -----------
 H2O_H2O_562
 -----------
 Symbolic Z-matrix:
 Charge =  0 Multiplicity = 1

                         Standard orientation:
 ---------------------------------------------------------------------
 Center     Atomic      Atomic             Coordinates (Angstroms)
 Number     Number       Type             X           Y           Z
 ---------------------------------------------------------------------
      1          8           0        0.056094    1.331246   -0.000000
      2          1           0        0.053567    0.348648   -0.000000
      3          1           0       -0.872577    1.652301   -0.000000
      4          8           0        0.056094   -1.152468    0.000000
      5          1           0        0.749109   -1.849056    0.000000
      6          1           0       -0.827596   -1.582117    0.000000
 ---------------------------------------------------------------------

 SCF Done:  E(RHF) =  -33.6548717207     A.U. after   11 cycles
 E2 =    -0.2290058695D+00 EUMP2 =    -0.33883877590274D+02
 CCSD(T)
 CCSD(T)= -0.33899622107D+02

 The electronic state is 1-A'.
 Alpha  occ. eigenvalues --   -1.40867  -1.29580  -0.76195  -0.70999  -0.58413
 Alpha  occ. eigenvalues --   -0.55446  -0.48464  -0.44038
 Alpha virt. eigenvalues --    0.17017   0.26760   0.28102   0.53686   0.74067
 Alpha virt. eigenvalues --    0.74604   0.85320   0.88953   0.96362   1.02489
 Alpha virt. eigenvalues --    1.14379   1.18081   1.23940   1.36499   2.67893

 Mulliken charges:
               1
     1  O   -0.771244
     2  H    0.423952
     3  H    0.329980
     4  O   -0.833529
     5  H    0.440836
     6  H    0.410005
 Sum of Mulliken charges =   0.00000

 Dipole moment (field-independent basis, Debye):
    X=             -2.3685    Y=             -5.0237    Z=              0.0000  Tot=              5.5540
 Quadrupole moment (field-independent basis, Debye-Ang):
   XX=             -9.5219   YY=             -9.6152   ZZ=            -15.0091
   XY=             -3.7137   XZ=              0.0000   YZ=             -0.0000

 02\MP4DQ=-33.893637\MP4SDQ=-33.8958313\CCSD=-33.8966387\CCSD(T)=-33.89
 Normal termination of Gaussian 16 at Sun Dec 10 06:29:06 2023.
