 Gaussian 16, Revision A.03,
 Gaussian 16:  ES64L-G16RevA.03 25-Dec-2016

 ------------------
 #p CCSD(T)/CEP-31G
 ------------------

 -----------
 H2O_H2O_560
 -----------
 Symbolic Z-matrix:
 Charge =  0 Multiplicity = 1

                         Standard orientation:
 ---------------------------------------------------------------------
 Center     Atomic      Atomic             Coordinates (Angstroms)
 Number     Number       Type             X           Y           Z
 ---------------------------------------------------------------------
      1          8           0        0.063318    1.329403    0.000000
      2          1           0        0.061287    0.346804    0.000000
      3          1           0       -0.865514    1.649990   -0.000000
      4          8           0        0.063318   -1.154014    0.000000
      5          1           0        0.659875   -1.934798    0.000000
      6          1           0       -0.868736   -1.465112   -0.000000
 ---------------------------------------------------------------------

 SCF Done:  E(RHF) =  -33.6532622558     A.U. after   11 cycles
 E2 =    -0.2289739965D+00 EUMP2 =    -0.33882236252286D+02
 CCSD(T)
 CCSD(T)= -0.33898065467D+02

 The electronic state is 1-A'.
 Alpha  occ. eigenvalues --   -1.40920  -1.29808  -0.76521  -0.70708  -0.58462
 Alpha  occ. eigenvalues --   -0.55441  -0.48703  -0.44248
 Alpha virt. eigenvalues --    0.16925   0.26508   0.28066   0.53340   0.74035
 Alpha virt. eigenvalues --    0.75022   0.85417   0.88827   0.96479   1.04535
 Alpha virt. eigenvalues --    1.15048   1.18621   1.23627   1.36204   2.68541

 Mulliken charges:
               1
     1  O   -0.764496
     2  H    0.418433
     3  H    0.328655
     4  O   -0.833949
     5  H    0.448514
     6  H    0.402843
 Sum of Mulliken charges =   0.00000

 Dipole moment (field-independent basis, Debye):
    X=             -2.6685    Y=             -4.9491    Z=             -0.0000  Tot=              5.6227
 Quadrupole moment (field-independent basis, Debye-Ang):
   XX=             -9.7367   YY=             -9.5807   ZZ=            -15.0052
   XY=             -3.5891   XZ=              0.0000   YZ=             -0.0000

 233\MP4DQ=-33.892059\MP4SDQ=-33.8942733\CCSD=-33.8950914\CCSD(T)=-33.8
 Normal termination of Gaussian 16 at Sun Dec 10 06:29:04 2023.
