 Gaussian 16, Revision A.03,
 Gaussian 16:  ES64L-G16RevA.03 25-Dec-2016

 ------------------
 #p CCSD(T)/CEP-31G
 ------------------

 ------------
 H2O_H2O_2202
 ------------
 Symbolic Z-matrix:
 Charge =  0 Multiplicity = 1

                         Standard orientation:
 ---------------------------------------------------------------------
 Center     Atomic      Atomic             Coordinates (Angstroms)
 Number     Number       Type             X           Y           Z
 ---------------------------------------------------------------------
      1          8           0        0.088234   -1.970662    0.000000
      2          1           0        0.088023   -0.988061    0.000000
      3          1           0       -0.841190   -2.289528    0.000000
      4          8           0        0.088234    1.826349    0.000000
      5          1           0        0.216281    2.800572    0.000000
      6          1           0       -0.874860    1.631525    0.000000
 ---------------------------------------------------------------------

 SCF Done:  E(RHF) =  -33.6537079937     A.U. after   11 cycles
 E2 =    -0.2286606077D+00 EUMP2 =    -0.33882368601428D+02
 CCSD(T)
 CCSD(T)= -0.33899375495D+02

 The electronic state is 1-A'.
 Alpha  occ. eigenvalues --   -1.37296  -1.34337  -0.73025  -0.69891  -0.57174
 Alpha  occ. eigenvalues --   -0.54064  -0.51878  -0.48910
 Alpha virt. eigenvalues --    0.17014   0.23191   0.28863   0.33226   0.78529
 Alpha virt. eigenvalues --    0.81831   0.82794   0.84612   0.87985   0.90290
 Alpha virt. eigenvalues --    1.15416   1.18880   1.20550   1.34164   2.54763

 Mulliken charges:
               1
     1  O   -0.750675
     2  H    0.389090
     3  H    0.359853
     4  O   -0.750037
     5  H    0.384910
     6  H    0.366858
 Sum of Mulliken charges =  -0.00000

 Dipole moment (field-independent basis, Debye):
    X=             -4.0085    Y=              3.5293    Z=              0.0000  Tot=              5.3408
 Quadrupole moment (field-independent basis, Debye-Ang):
   XX=            -10.9914   YY=             -8.9259   ZZ=            -14.9902
   XY=              2.7709   XZ=              0.0000   YZ=              0.0000

 56\MP4DQ=-33.8936513\MP4SDQ=-33.8957349\CCSD=-33.896765\CCSD(T)=-33.89
 Normal termination of Gaussian 16 at Sun Dec 10 07:00:49 2023.
