 Gaussian 16, Revision A.03,
 Gaussian 16:  ES64L-G16RevA.03 25-Dec-2016

 ------------------
 #p CCSD(T)/CEP-31G
 ------------------

 ------------
 H2O_H2O_4627
 ------------
 Symbolic Z-matrix:
 Charge =  0 Multiplicity = 1

                         Standard orientation:
 ---------------------------------------------------------------------
 Center     Atomic      Atomic             Coordinates (Angstroms)
 Number     Number       Type             X           Y           Z
 ---------------------------------------------------------------------
      1          8           0        0.088229   -2.937946    0.000000
      2          1           0        0.088089   -1.955345    0.000000
      3          1           0       -0.841219   -3.256745    0.000000
      4          8           0        0.088229    2.793620    0.000000
      5          1           0        0.216346    3.767834    0.000000
      6          1           0       -0.874879    2.598866    0.000000
 ---------------------------------------------------------------------

 SCF Done:  E(RHF) =  -33.6521864796     A.U. after   11 cycles
 E2 =    -0.2283516968D+00 EUMP2 =    -0.33880538176408D+02
 CCSD(T)
 CCSD(T)= -0.33897528511D+02

 The electronic state is 1-A'.
 Alpha  occ. eigenvalues --   -1.36272  -1.35090  -0.71918  -0.70710  -0.56034
 Alpha  occ. eigenvalues --   -0.54830  -0.50848  -0.49664
 Alpha virt. eigenvalues --    0.19473   0.20766   0.29766   0.30994   0.79713
 Alpha virt. eigenvalues --    0.80875   0.82672   0.83891   0.85747   0.87058
 Alpha virt. eigenvalues --    1.16643   1.17833   1.21100   1.22331   2.56590

 Mulliken charges:
               1
     1  O   -0.742735
     2  H    0.375268
     3  H    0.367463
     4  O   -0.742967
     5  H    0.374354
     6  H    0.368617
 Sum of Mulliken charges =  -0.00000

 Dipole moment (field-independent basis, Debye):
    X=             -4.0595    Y=              3.3853    Z=              0.0000  Tot=              5.2858
 Quadrupole moment (field-independent basis, Debye-Ang):
   XX=            -10.9645   YY=             -8.4466   ZZ=            -14.9889
   XY=              3.0044   XZ=              0.0000   YZ=              0.0000

 1442\MP4DQ=-33.8918862\MP4SDQ=-33.893913\CCSD=-33.8949675\CCSD(T)=-33.
 Normal termination of Gaussian 16 at Sun Dec 10 06:56:17 2023.
