 Gaussian 16, Revision A.03,
 Gaussian 16:  ES64L-G16RevA.03 25-Dec-2016

 ------------------
 #p CCSD(T)/CEP-31G
 ------------------

 -----------
 H2O_H2O_305
 -----------
 Symbolic Z-matrix:
 Charge =  0 Multiplicity = 1

                         Standard orientation:
 ---------------------------------------------------------------------
 Center     Atomic      Atomic             Coordinates (Angstroms)
 Number     Number       Type             X           Y           Z
 ---------------------------------------------------------------------
      1          8           0        0.079891   -1.220768    0.000000
      2          1           0        0.078917   -0.238167    0.000000
      3          1           0       -0.849286   -1.540355    0.000000
      4          8           0        0.079891    1.061785    0.000000
      5          1           0        0.394815    1.992553    0.000000
      6          1           0       -0.902703    1.057832    0.000000
 ---------------------------------------------------------------------

 SCF Done:  E(RHF) =  -33.6262855197     A.U. after   11 cycles
 E2 =    -0.2284329520D+00 EUMP2 =    -0.33854718471645D+02
 CCSD(T)
 CCSD(T)= -0.33870345089D+02

 The electronic state is 1-A'.
 Alpha  occ. eigenvalues --   -1.43323  -1.29546  -0.80388  -0.71506  -0.57413
 Alpha  occ. eigenvalues --   -0.56986  -0.47906  -0.43758
 Alpha virt. eigenvalues --    0.16304   0.24601   0.29030   0.57445   0.73354
 Alpha virt. eigenvalues --    0.75459   0.87136   0.89724   0.96889   1.08161
 Alpha virt. eigenvalues --    1.13666   1.23867   1.25275   1.38875   2.86651

 Mulliken charges:
               1
     1  O   -0.716167
     2  H    0.337903
     3  H    0.315322
     4  O   -0.815508
     5  H    0.483905
     6  H    0.394545
 Sum of Mulliken charges =  -0.00000

 Dipole moment (field-independent basis, Debye):
    X=             -3.3205    Y=              4.8710    Z=              0.0000  Tot=              5.8951
 Quadrupole moment (field-independent basis, Debye-Ang):
   XX=            -10.4965   YY=             -9.9953   ZZ=            -14.9588
   XY=              2.9414   XZ=              0.0000   YZ=              0.0000

 155\MP4DQ=-33.8641288\MP4SDQ=-33.8665104\CCSD=-33.8672622\CCSD(T)=-33.
 Normal termination of Gaussian 16 at Sun Dec 10 06:24:04 2023.
