 Gaussian 16, Revision A.03,
 Gaussian 16:  ES64L-G16RevA.03 25-Dec-2016

 ------------------
 #p CCSD(T)/CEP-31G
 ------------------

 -----------
 H2O_H2O_595
 -----------
 Symbolic Z-matrix:
 Charge =  0 Multiplicity = 1

                         Standard orientation:
 ---------------------------------------------------------------------
 Center     Atomic      Atomic             Coordinates (Angstroms)
 Number     Number       Type             X           Y           Z
 ---------------------------------------------------------------------
      1          8           0        0.026834    1.338150    0.000000
      2          1           0        0.022339    0.355559    0.000000
      3          1           0       -0.901192    1.661065    0.000000
      4          8           0        0.026834   -1.165034   -0.000000
      5          1           0        0.974781   -1.423689   -0.000000
      6          1           0       -0.525269   -1.977861   -0.000000
 ---------------------------------------------------------------------

 SCF Done:  E(RHF) =  -33.6564557248     A.U. after   11 cycles
 E2 =    -0.2285590099D+00 EUMP2 =    -0.33885014734716D+02
 CCSD(T)
 CCSD(T)= -0.33900863179D+02

 The electronic state is 1-A'.
 Alpha  occ. eigenvalues --   -1.40644  -1.29705  -0.76409  -0.70029  -0.58936
 Alpha  occ. eigenvalues --   -0.55217  -0.48670  -0.44250
 Alpha virt. eigenvalues --    0.17310   0.26890   0.28064   0.52926   0.74171
 Alpha virt. eigenvalues --    0.75334   0.86491   0.88755   0.94745   1.02014
 Alpha virt. eigenvalues --    1.15851   1.19976   1.25166   1.37505   2.66230

 Mulliken charges:
               1
     1  O   -0.775850
     2  H    0.410945
     3  H    0.343229
     4  O   -0.836480
     5  H    0.415578
     6  H    0.442577
 Sum of Mulliken charges =  -0.00000

 Dipole moment (field-independent basis, Debye):
    X=             -1.1823    Y=             -4.8694    Z=             -0.0000  Tot=              5.0109
 Quadrupole moment (field-independent basis, Debye-Ang):
   XX=             -9.4469   YY=             -9.4939   ZZ=            -15.0127
   XY=             -4.1738   XZ=             -0.0000   YZ=              0.0000

 658\MP4DQ=-33.8949177\MP4SDQ=-33.8970901\CCSD=-33.8979257\CCSD(T)=-33.
 Normal termination of Gaussian 16 at Sun Dec 10 06:29:43 2023.
