 Gaussian 16, Revision A.03,
 Gaussian 16:  ES64L-G16RevA.03 25-Dec-2016

 ------------------
 #p CCSD(T)/CEP-31G
 ------------------

 ------------
 H2O_H2O_1607
 ------------
 Symbolic Z-matrix:
 Charge =  0 Multiplicity = 1

                         Standard orientation:
 ---------------------------------------------------------------------
 Center     Atomic      Atomic             Coordinates (Angstroms)
 Number     Number       Type             X           Y           Z
 ---------------------------------------------------------------------
      1          8           0        0.073558    1.743609   -0.000000
      2          1           0        0.072566    0.761008   -0.000000
      3          1           0       -0.855612    2.063214   -0.000000
      4          8           0        0.073558   -1.576707    0.000000
      5          1           0        0.507262   -2.458414    0.000000
      6          1           0       -0.901148   -1.701023    0.000000
 ---------------------------------------------------------------------

 SCF Done:  E(RHF) =  -33.6577878064     A.U. after   11 cycles
 E2 =    -0.2288437525D+00 EUMP2 =    -0.33886631558879D+02
 CCSD(T)
 CCSD(T)= -0.33903547388D+02

 The electronic state is 1-A'.
 Alpha  occ. eigenvalues --   -1.37877  -1.33038  -0.73609  -0.68708  -0.58095
 Alpha  occ. eigenvalues --   -0.52769  -0.52511  -0.47649
 Alpha virt. eigenvalues --    0.17524   0.24580   0.28486   0.37372   0.77377
 Alpha virt. eigenvalues --    0.81345   0.83619   0.85362   0.90161   0.99525
 Alpha virt. eigenvalues --    1.15083   1.18908   1.21012   1.36733   2.50526

 Mulliken charges:
               1
     1  O   -0.767423
     2  H    0.411237
     3  H    0.353741
     4  O   -0.770716
     5  H    0.398059
     6  H    0.375103
 Sum of Mulliken charges =  -0.00000

 Dipole moment (field-independent basis, Debye):
    X=             -3.2964    Y=             -4.2046    Z=             -0.0000  Tot=              5.3427
 Quadrupole moment (field-independent basis, Debye-Ang):
   XX=            -10.1827   YY=             -8.2714   ZZ=            -15.0001
   XY=             -3.6978   XZ=              0.0000   YZ=             -0.0000

 338\MP4DQ=-33.8977565\MP4SDQ=-33.8998694\CCSD=-33.9008839\CCSD(T)=-33.
 Normal termination of Gaussian 16 at Sun Dec 10 06:49:13 2023.
