 Gaussian 16, Revision A.03,
 Gaussian 16:  ES64L-G16RevA.03 25-Dec-2016

 ------------------
 #p CCSD(T)/CEP-31G
 ------------------

 -----------
 H2O_H2O_590
 -----------
 Symbolic Z-matrix:
 Charge =  0 Multiplicity = 1

                         Standard orientation:
 ---------------------------------------------------------------------
 Center     Atomic      Atomic             Coordinates (Angstroms)
 Number     Number       Type             X           Y           Z
 ---------------------------------------------------------------------
      1          8           0        0.044992    1.342029    0.000000
      2          1           0        0.041731    0.359433    0.000000
      3          1           0       -0.883439    1.663779    0.000000
      4          8           0        0.044992   -1.161763   -0.000000
      5          1           0        0.860179   -1.710375   -0.000000
      6          1           0       -0.738342   -1.754969   -0.000000
 ---------------------------------------------------------------------

 SCF Done:  E(RHF) =  -33.6571063950     A.U. after   11 cycles
 E2 =    -0.2289622623D+00 EUMP2 =    -0.33886068657310D+02
 CCSD(T)
 CCSD(T)= -0.33901815034D+02

 The electronic state is 1-A'.
 Alpha  occ. eigenvalues --   -1.40668  -1.29526  -0.75898  -0.70814  -0.58569
 Alpha  occ. eigenvalues --   -0.55304  -0.48464  -0.44025
 Alpha virt. eigenvalues --    0.17165   0.27019   0.28052   0.53393   0.74164
 Alpha virt. eigenvalues --    0.74499   0.85445   0.88890   0.96428   1.00023
 Alpha virt. eigenvalues --    1.14686   1.17973   1.24337   1.36957   2.65978

 Mulliken charges:
               1
     1  O   -0.777862
     2  H    0.426670
     3  H    0.334363
     4  O   -0.832585
     5  H    0.428657
     6  H    0.420757
 Sum of Mulliken charges =  -0.00000

 Dipole moment (field-independent basis, Debye):
    X=             -1.9230    Y=             -5.0315    Z=             -0.0000  Tot=              5.3865
 Quadrupole moment (field-independent basis, Debye-Ang):
   XX=             -9.3460   YY=             -9.5759   ZZ=            -15.0139
   XY=             -3.8789   XZ=              0.0000   YZ=              0.0000

 22\MP4DQ=-33.8958613\MP4SDQ=-33.8980311\CCSD=-33.8988437\CCSD(T)=-33.9
 Normal termination of Gaussian 16 at Sun Dec 10 06:29:38 2023.
