 Gaussian 16, Revision A.03,
 Gaussian 16:  ES64L-G16RevA.03 25-Dec-2016

 ------------------
 #p CCSD(T)/CEP-31G
 ------------------

 -----------
 H2O_H2O_768
 -----------
 Symbolic Z-matrix:
 Charge =  0 Multiplicity = 1

                         Standard orientation:
 ---------------------------------------------------------------------
 Center     Atomic      Atomic             Coordinates (Angstroms)
 Number     Number       Type             X           Y           Z
 ---------------------------------------------------------------------
      1          8           0        0.033933    1.410285   -0.000000
      2          1           0        0.030134    0.427691   -0.000000
      3          1           0       -0.894321    1.732543   -0.000000
      4          8           0        0.033933   -1.232871    0.000000
      5          1           0        0.940278   -1.612404    0.000000
      6          1           0       -0.619022   -1.967143    0.000000
 ---------------------------------------------------------------------

 SCF Done:  E(RHF) =  -33.6614624056     A.U. after   11 cycles
 E2 =    -0.2289083702D+00 EUMP2 =    -0.33890370775715D+02
 CCSD(T)
 CCSD(T)= -0.33906483461D+02

 The electronic state is 1-A'.
 Alpha  occ. eigenvalues --   -1.39779  -1.30307  -0.75330  -0.69103  -0.59261
 Alpha  occ. eigenvalues --   -0.54486  -0.49579  -0.44909
 Alpha virt. eigenvalues --    0.17445   0.27373   0.27502   0.49681   0.74692
 Alpha virt. eigenvalues --    0.75788   0.85927   0.87821   0.95425   1.00921
 Alpha virt. eigenvalues --    1.15764   1.18415   1.23921   1.37110   2.59021

 Mulliken charges:
               1
     1  O   -0.783746
     2  H    0.429500
     3  H    0.345069
     4  O   -0.826703
     5  H    0.412332
     6  H    0.423549
 Sum of Mulliken charges =   0.00000

 Dipole moment (field-independent basis, Debye):
    X=             -1.4884    Y=             -4.8190    Z=              0.0000  Tot=              5.0436
 Quadrupole moment (field-independent basis, Debye-Ang):
   XX=             -9.3660   YY=             -9.1972   ZZ=            -15.0192
   XY=             -4.2540   XZ=              0.0000   YZ=             -0.0000

 269\MP4DQ=-33.9005871\MP4SDQ=-33.9027263\CCSD=-33.9036065\CCSD(T)=-33.
 Normal termination of Gaussian 16 at Sun Dec 10 06:32:58 2023.
