 Gaussian 16, Revision A.03,
 Gaussian 16:  ES64L-G16RevA.03 25-Dec-2016

 ------------------
 #p CCSD(T)/CEP-31G
 ------------------

 ------------
 H2O_H2O_2145
 ------------
 Symbolic Z-matrix:
 Charge =  0 Multiplicity = 1

                         Standard orientation:
 ---------------------------------------------------------------------
 Center     Atomic      Atomic             Coordinates (Angstroms)
 Number     Number       Type             X           Y           Z
 ---------------------------------------------------------------------
      1          8           0        0.026703    1.956446   -0.000000
      2          1           0        0.023694    0.973849   -0.000000
      3          1           0       -0.901810    2.277957    0.000000
      4          8           0        0.026703   -1.783249   -0.000000
      5          1           0        0.975040   -2.040471   -0.000000
      6          1           0       -0.524171   -2.596911    0.000000
 ---------------------------------------------------------------------

 SCF Done:  E(RHF) =  -33.6581418634     A.U. after   11 cycles
 E2 =    -0.2284971395D+00 EUMP2 =    -0.33886639002932D+02
 CCSD(T)
 CCSD(T)= -0.33903519673D+02

 The electronic state is 1-A'.
 Alpha  occ. eigenvalues --   -1.37232  -1.33366  -0.72891  -0.69026  -0.57396
 Alpha  occ. eigenvalues --   -0.53234  -0.51889  -0.48028
 Alpha virt. eigenvalues --    0.18125   0.23690   0.29136   0.34429   0.78502
 Alpha virt. eigenvalues --    0.82615   0.82874   0.85908   0.87811   0.89820
 Alpha virt. eigenvalues --    1.15851   1.19993   1.20547   1.32586   2.52959

 Mulliken charges:
               1
     1  O   -0.767966
     2  H    0.400744
     3  H    0.364969
     4  O   -0.762514
     5  H    0.382250
     6  H    0.382517
 Sum of Mulliken charges =  -0.00000

 Dipole moment (field-independent basis, Debye):
    X=             -1.2042    Y=             -4.2384    Z=              0.0000  Tot=              4.4062
 Quadrupole moment (field-independent basis, Debye-Ang):
   XX=             -9.5132   YY=             -7.5720   ZZ=            -15.0009
   XY=             -6.2362   XZ=             -0.0000   YZ=              0.0000

 706\MP4DQ=-33.8978215\MP4SDQ=-33.8998921\CCSD=-33.9009171\CCSD(T)=-33.
 Normal termination of Gaussian 16 at Sun Dec 10 06:59:27 2023.
