 Gaussian 16, Revision A.03,
 Gaussian 16:  ES64L-G16RevA.03 25-Dec-2016

 ------------------
 #p CCSD(T)/CEP-31G
 ------------------

 ------------
 H2O_H2O_1071
 ------------
 Symbolic Z-matrix:
 Charge =  0 Multiplicity = 1

                         Standard orientation:
 ---------------------------------------------------------------------
 Center     Atomic      Atomic             Coordinates (Angstroms)
 Number     Number       Type             X           Y           Z
 ---------------------------------------------------------------------
      1          8           0       -0.023339    1.526093    0.000000
      2          1           0       -0.019231    0.543501    0.000000
      3          1           0        0.904814    1.848643    0.000000
      4          8           0       -0.023339   -1.355778    0.000000
      5          1           0       -0.986250   -1.551500    0.000000
      6          1           0        0.474087   -2.203170    0.000000
 ---------------------------------------------------------------------

 SCF Done:  E(RHF) =  -33.6625787103     A.U. after   11 cycles
 E2 =    -0.2287851851D+00 EUMP2 =    -0.33891363895330D+02
 CCSD(T)
 CCSD(T)= -0.33907933093D+02

 The electronic state is 1-A'.
 Alpha  occ. eigenvalues --   -1.38779  -1.31531  -0.74550  -0.68112  -0.59286
 Alpha  occ. eigenvalues --   -0.53484  -0.51144  -0.46207
 Alpha virt. eigenvalues --    0.17671   0.26374   0.28013   0.44106   0.75690
 Alpha virt. eigenvalues --    0.78103   0.86044   0.86375   0.91877   1.06566
 Alpha virt. eigenvalues --    1.16337   1.17982   1.22966   1.36327   2.52547

 Mulliken charges:
               1
     1  O   -0.784946
     2  H    0.423135
     3  H    0.356690
     4  O   -0.808122
     5  H    0.397504
     6  H    0.415740
 Sum of Mulliken charges =  -0.00000

 Dipole moment (field-independent basis, Debye):
    X=              1.0428    Y=             -4.4723    Z=              0.0000  Tot=              4.5923
 Quadrupole moment (field-independent basis, Debye-Ang):
   XX=             -9.5524   YY=             -8.7446   ZZ=            -15.0155
   XY=              4.9549   XZ=              0.0000   YZ=              0.0000

 3928\MP4DQ=-33.9020883\MP4SDQ=-33.9042136\CCSD=-33.9051734\CCSD(T)=-33
 Normal termination of Gaussian 16 at Sun Dec 10 06:38:39 2023.
