 Gaussian 16, Revision A.03,
 Gaussian 16:  ES64L-G16RevA.03 25-Dec-2016

 ------------------
 #p CCSD(T)/CEP-31G
 ------------------

 ------------
 H2O_H2O_3112
 ------------
 Symbolic Z-matrix:
 Charge =  0 Multiplicity = 1

                         Standard orientation:
 ---------------------------------------------------------------------
 Center     Atomic      Atomic             Coordinates (Angstroms)
 Number     Number       Type             X           Y           Z
 ---------------------------------------------------------------------
      1          8           0        0.055990    2.348446   -0.000000
      2          1           0        0.054601    1.365845   -0.000000
      3          1           0       -0.873052    2.668425   -0.000000
      4          8           0        0.055990   -2.169538    0.000000
      5          1           0        0.749812   -2.865324    0.000000
      6          1           0       -0.827201   -2.600209    0.000000
 ---------------------------------------------------------------------

 SCF Done:  E(RHF) =  -33.6548060811     A.U. after   11 cycles
 E2 =    -0.2283287253D+00 EUMP2 =    -0.33883134806411D+02
 CCSD(T)
 CCSD(T)= -0.33900053268D+02

 The electronic state is 1-A'.
 Alpha  occ. eigenvalues --   -1.36677  -1.34105  -0.72325  -0.69721  -0.56590
 Alpha  occ. eigenvalues --   -0.53915  -0.51291  -0.48718
 Alpha virt. eigenvalues --    0.18899   0.22134   0.29492   0.32271   0.79279
 Alpha virt. eigenvalues --    0.81770   0.82444   0.84798   0.85241   0.87990
 Alpha virt. eigenvalues --    1.16348   1.19135   1.20764   1.25118   2.56126

 Mulliken charges:
               1
     1  O   -0.752975
     2  H    0.387315
     3  H    0.364998
     4  O   -0.751147
     5  H    0.378471
     6  H    0.373339
 Sum of Mulliken charges =  -0.00000

 Dipole moment (field-independent basis, Debye):
    X=             -2.5554    Y=             -4.2667    Z=              0.0000  Tot=              4.9734
 Quadrupole moment (field-independent basis, Debye-Ang):
   XX=             -9.5840   YY=             -6.4557   ZZ=            -14.9946
   XY=             -5.5133   XZ=              0.0000   YZ=             -0.0000

 606\MP4DQ=-33.8944131\MP4SDQ=-33.8964476\CCSD=-33.8974889\CCSD(T)=-33.
 Normal termination of Gaussian 16 at Sun Dec 10 06:29:04 2023.
