 Gaussian 16, Revision A.03,
 Gaussian 16:  ES64L-G16RevA.03 25-Dec-2016

 ------------------
 #p CCSD(T)/CEP-31G
 ------------------

 ------------
 H2O_H2O_1453
 ------------
 Symbolic Z-matrix:
 Charge =  0 Multiplicity = 1

                         Standard orientation:
 ---------------------------------------------------------------------
 Center     Atomic      Atomic             Coordinates (Angstroms)
 Number     Number       Type             X           Y           Z
 ---------------------------------------------------------------------
      1          8           0        0.085610   -1.674364    0.000000
      2          1           0        0.085220   -0.691763    0.000000
      3          1           0       -0.843757   -1.993400    0.000000
      4          8           0        0.085610    1.524788    0.000000
      5          1           0        0.276923    2.488585    0.000000
      6          1           0       -0.888141    1.393192    0.000000
 ---------------------------------------------------------------------

 SCF Done:  E(RHF) =  -33.6552920200     A.U. after   11 cycles
 E2 =    -0.2290008559D+00 EUMP2 =    -0.33884292875833D+02
 CCSD(T)
 CCSD(T)= -0.33901296450D+02

 The electronic state is 1-A'.
 Alpha  occ. eigenvalues --   -1.38177  -1.33470  -0.74085  -0.69038  -0.58222
 Alpha  occ. eigenvalues --   -0.53125  -0.52752  -0.48032
 Alpha virt. eigenvalues --    0.16965   0.24652   0.28157   0.38056   0.76831
 Alpha virt. eigenvalues --    0.80985   0.83687   0.84950   0.89797   1.06155
 Alpha virt. eigenvalues --    1.15299   1.17538   1.21636   1.39438   2.50657

 Mulliken charges:
               1
     1  O   -0.758275
     2  H    0.401606
     3  H    0.351987
     4  O   -0.767068
     5  H    0.402434
     6  H    0.369317
 Sum of Mulliken charges =  -0.00000

 Dipole moment (field-independent basis, Debye):
    X=             -3.8370    Y=              3.8197    Z=              0.0000  Tot=              5.4141
 Quadrupole moment (field-independent basis, Debye-Ang):
   XX=            -10.8460   YY=             -8.9310   ZZ=            -14.9941
   XY=              2.8955   XZ=              0.0000   YZ=              0.0000

 MP4DQ=-33.8954451\MP4SDQ=-33.8975985\CCSD=-33.8986056\CCSD(T)=-33.9012
 Normal termination of Gaussian 16 at Sun Dec 10 06:46:09 2023.
