 Gaussian 16, Revision A.03,
 Gaussian 16:  ES64L-G16RevA.03 25-Dec-2016

 ------------------
 #p CCSD(T)/CEP-31G
 ------------------

 -----------
 H2O_H2O_122
 -----------
 Symbolic Z-matrix:
 Charge =  0 Multiplicity = 1

                         Standard orientation:
 ---------------------------------------------------------------------
 Center     Atomic      Atomic             Coordinates (Angstroms)
 Number     Number       Type             X           Y           Z
 ---------------------------------------------------------------------
      1          8           0        0.020125   -1.145355    0.000000
      2          1           0        0.014284   -0.162771    0.000000
      3          1           0       -0.907458   -1.469541    0.000000
      4          8           0        0.020125    0.978378    0.000000
      5          1           0        0.993540    1.112422    0.000000
      6          1           0       -0.422363    1.855709    0.000000
 ---------------------------------------------------------------------

 SCF Done:  E(RHF) =  -33.6038958741     A.U. after   11 cycles
 E2 =    -0.2270052650D+00 EUMP2 =    -0.33830901139101D+02
 CCSD(T)
 CCSD(T)= -0.33845652842D+02

 The electronic state is 1-A'.
 Alpha  occ. eigenvalues --   -1.45490  -1.27156  -0.82362  -0.74357  -0.58538
 Alpha  occ. eigenvalues --   -0.55902  -0.44312  -0.41282
 Alpha virt. eigenvalues --    0.16774   0.24733   0.30141   0.61778   0.73352
 Alpha virt. eigenvalues --    0.74321   0.89591   0.91518   0.92764   1.03277
 Alpha virt. eigenvalues --    1.12829   1.19845   1.30547   1.41787   2.96372

 Mulliken charges:
               1
     1  O   -0.742718
     2  H    0.281279
     3  H    0.325814
     4  O   -0.792035
     5  H    0.438340
     6  H    0.489320
 Sum of Mulliken charges =   0.00000

 Dipole moment (field-independent basis, Debye):
    X=             -0.8604    Y=              5.3915    Z=              0.0000  Tot=              5.4598
 Quadrupole moment (field-independent basis, Debye-Ang):
   XX=             -9.5184   YY=            -10.4572   ZZ=            -14.9338
   XY=              3.6459   XZ=              0.0000   YZ=              0.0000

 1\MP4DQ=-33.839502\MP4SDQ=-33.8418303\CCSD=-33.8424757\CCSD(T)=-33.845
 Normal termination of Gaussian 16 at Sun Dec 10 06:20:26 2023.
