 Gaussian 16, Revision A.03,
 Gaussian 16:  ES64L-G16RevA.03 25-Dec-2016

 ------------------
 #p CCSD(T)/CEP-31G
 ------------------

 ------------
 H2O_H2O_4425
 ------------
 Symbolic Z-matrix:
 Charge =  0 Multiplicity = 1

                         Standard orientation:
 ---------------------------------------------------------------------
 Center     Atomic      Atomic             Coordinates (Angstroms)
 Number     Number       Type             X           Y           Z
 ---------------------------------------------------------------------
      1          8           0        0.092949   -2.851904    0.000000
      2          1           0        0.092949   -1.869302    0.000000
      3          1           0       -0.836544   -3.170570    0.000000
      4          8           0        0.092949    2.719117    0.000000
      5          1           0        0.092949    3.701718    0.000000
      6          1           0       -0.836544    2.400449    0.000000
 ---------------------------------------------------------------------

 SCF Done:  E(RHF) =  -33.6519721329     A.U. after   11 cycles
 E2 =    -0.2283638757D+00 EUMP2 =    -0.33880336008693D+02
 CCSD(T)
 CCSD(T)= -0.33897333367D+02

 The electronic state is 1-A'.
 Alpha  occ. eigenvalues --   -1.36323  -1.35184  -0.71972  -0.70801  -0.56076
 Alpha  occ. eigenvalues --   -0.54916  -0.50896  -0.49754
 Alpha virt. eigenvalues --    0.19332   0.20719   0.29693   0.30897   0.79670
 Alpha virt. eigenvalues --    0.80790   0.82636   0.83811   0.85690   0.87002
 Alpha virt. eigenvalues --    1.16559   1.17747   1.21030   1.22271   2.56347

 Mulliken charges:
               1
     1  O   -0.741911
     2  H    0.374592
     3  H    0.367313
     4  O   -0.742265
     5  H    0.374575
     6  H    0.367696
 Sum of Mulliken charges =  -0.00000

 Dipole moment (field-independent basis, Debye):
    X=             -4.2758    Y=              3.1189    Z=              0.0000  Tot=              5.2925
 Quadrupole moment (field-independent basis, Debye-Ang):
   XX=            -11.2816   YY=             -9.6372   ZZ=            -14.9883
   XY=              2.3076   XZ=              0.0000   YZ=              0.0000

 MP4DQ=-33.8916889\MP4SDQ=-33.8937165\CCSD=-33.8947712\CCSD(T)=-33.8973
 Normal termination of Gaussian 16 at Sun Dec 10 06:52:39 2023.
