 Gaussian 16, Revision A.03,
 Gaussian 16:  ES64L-G16RevA.03 25-Dec-2016

 ------------------
 #p CCSD(T)/CEP-31G
 ------------------

 -----------
 H2O_H2O_648
 -----------
 Symbolic Z-matrix:
 Charge =  0 Multiplicity = 1

                         Standard orientation:
 ---------------------------------------------------------------------
 Center     Atomic      Atomic             Coordinates (Angstroms)
 Number     Number       Type             X           Y           Z
 ---------------------------------------------------------------------
      1          8           0        0.016812   -1.352772    0.000000
      2          1           0        0.011717   -0.370184    0.000000
      3          1           0       -0.911016   -1.676254    0.000000
      4          8           0        0.016812    1.189458    0.000000
      5          1           0        0.996964    1.258806    0.000000
      6          1           0       -0.366660    2.094143    0.000000
 ---------------------------------------------------------------------

 SCF Done:  E(RHF) =  -33.6559824316     A.U. after   11 cycles
 E2 =    -0.2283335813D+00 EUMP2 =    -0.33884316012937D+02
 CCSD(T)
 CCSD(T)= -0.33900423416D+02

 The electronic state is 1-A'.
 Alpha  occ. eigenvalues --   -1.40401  -1.30313  -0.76694  -0.68931  -0.59461
 Alpha  occ. eigenvalues --   -0.54908  -0.49409  -0.44904
 Alpha virt. eigenvalues --    0.17414   0.26760   0.27901   0.51266   0.74267
 Alpha virt. eigenvalues --    0.76486   0.86835   0.88215   0.92917   1.06643
 Alpha virt. eigenvalues --    1.15414   1.22188   1.27278   1.38020   2.64544

 Mulliken charges:
               1
     1  O   -0.770050
     2  H    0.394248
     3  H    0.351742
     4  O   -0.833353
     5  H    0.408630
     6  H    0.448784
 Sum of Mulliken charges =  -0.00000

 Dipole moment (field-independent basis, Debye):
    X=             -0.7528    Y=              4.5910    Z=              0.0000  Tot=              4.6524
 Quadrupole moment (field-independent basis, Debye-Ang):
   XX=             -9.7077   YY=             -9.3810   ZZ=            -15.0105
   XY=              4.5631   XZ=              0.0000   YZ=              0.0000

 7\MP4DQ=-33.89447\MP4SDQ=-33.896663\CCSD=-33.8975366\CCSD(T)=-33.90042
 Normal termination of Gaussian 16 at Sun Dec 10 06:30:43 2023.
