 Gaussian 16, Revision A.03,
 Gaussian 16:  ES64L-G16RevA.03 25-Dec-2016

 ------------------
 #p CCSD(T)/CEP-31G
 ------------------

 ----------
 H2O_H2O_29
 ----------
 Symbolic Z-matrix:
 Charge =  0 Multiplicity = 1

                         Standard orientation:
 ---------------------------------------------------------------------
 Center     Atomic      Atomic             Coordinates (Angstroms)
 Number     Number       Type             X           Y           Z
 ---------------------------------------------------------------------
      1          8           0        0.082839   -1.108609    0.000000
      2          1           0        0.082005   -0.126008    0.000000
      3          1           0       -0.846383   -1.428065    0.000000
      4          8           0        0.082839    0.954168    0.000000
      5          1           0        0.336349    1.903504    0.000000
      6          1           0       -0.897402    0.886098    0.000000
 ---------------------------------------------------------------------

 SCF Done:  E(RHF) =  -33.5677915339     A.U. after   11 cycles
 E2 =    -0.2277413817D+00 EUMP2 =    -0.33795532915592D+02
 CCSD(T)
 CCSD(T)= -0.33810540577D+02

 The electronic state is 1-A'.
 Alpha  occ. eigenvalues --   -1.47768  -1.28076  -0.85383  -0.74073  -0.59515
 Alpha  occ. eigenvalues --   -0.54947  -0.45260  -0.41980
 Alpha virt. eigenvalues --    0.15795   0.22826   0.30490   0.61422   0.73006
 Alpha virt. eigenvalues --    0.74720   0.90438   0.91133   0.96732   1.08402
 Alpha virt. eigenvalues --    1.09618   1.20489   1.28645   1.47618   3.10897

 Mulliken charges:
               1
     1  O   -0.677281
     2  H    0.199876
     3  H    0.295463
     4  O   -0.728109
     5  H    0.508308
     6  H    0.401743
 Sum of Mulliken charges =  -0.00000

 Dipole moment (field-independent basis, Debye):
    X=             -3.3461    Y=              5.2283    Z=              0.0000  Tot=              6.2074
 Quadrupole moment (field-independent basis, Debye-Ang):
   XX=            -10.6235   YY=            -10.6154   ZZ=            -14.8751
   XY=              2.6549   XZ=              0.0000   YZ=              0.0000

 97\MP4DQ=-33.8040698\MP4SDQ=-33.8066555\CCSD=-33.8072655\CCSD(T)=-33.8
 Normal termination of Gaussian 16 at Sun Dec 10 06:18:35 2023.
