 Gaussian 16, Revision A.03,
 Gaussian 16:  ES64L-G16RevA.03 25-Dec-2016

 ------------------
 #p CCSD(T)/CEP-31G
 ------------------

 ------------
 H2O_H2O_2210
 ------------
 Symbolic Z-matrix:
 Charge =  0 Multiplicity = 1

                         Standard orientation:
 ---------------------------------------------------------------------
 Center     Atomic      Atomic             Coordinates (Angstroms)
 Number     Number       Type             X           Y           Z
 ---------------------------------------------------------------------
      1          8           0        0.063255    1.987595    0.000000
      2          1           0        0.061928    1.004994    0.000000
      3          1           0       -0.865806    2.307517    0.000000
      4          8           0        0.063255   -1.812115    0.000000
      5          1           0        0.660371   -2.592473    0.000000
      6          1           0       -0.868576   -2.123880    0.000000
 ---------------------------------------------------------------------

 SCF Done:  E(RHF) =  -33.6567466473     A.U. after   11 cycles
 E2 =    -0.2285424557D+00 EUMP2 =    -0.33885289102975D+02
 CCSD(T)
 CCSD(T)= -0.33902198558D+02

 The electronic state is 1-A'.
 Alpha  occ. eigenvalues --   -1.37228  -1.33487  -0.72891  -0.69096  -0.57302
 Alpha  occ. eigenvalues --   -0.53298  -0.51864  -0.48114
 Alpha virt. eigenvalues --    0.18088   0.23423   0.29047   0.34069   0.78578
 Alpha virt. eigenvalues --    0.82504   0.83442   0.85363   0.88046   0.88766
 Alpha virt. eigenvalues --    1.15796   1.19971   1.20332   1.31770   2.53084

 Mulliken charges:
               1
     1  O   -0.762124
     2  H    0.399878
     3  H    0.360162
     4  O   -0.757935
     5  H    0.385077
     6  H    0.374942
 Sum of Mulliken charges =  -0.00000

 Dipole moment (field-independent basis, Debye):
    X=             -2.8635    Y=             -4.2914    Z=              0.0000  Tot=              5.1590
 Quadrupole moment (field-independent basis, Debye-Ang):
   XX=             -9.7778   YY=             -7.4324   ZZ=            -14.9981
   XY=             -4.5174   XZ=              0.0000   YZ=              0.0000

 529\MP4DQ=-33.8964997\MP4SDQ=-33.89857\CCSD=-33.8995978\CCSD(T)=-33.90
 Normal termination of Gaussian 16 at Sun Dec 10 07:00:59 2023.
