 Gaussian 16, Revision A.03,
 Gaussian 16:  ES64L-G16RevA.03 25-Dec-2016

 ------------------
 #p CCSD(T)/CEP-31G
 ------------------

 ------------
 H2O_H2O_2997
 ------------
 Symbolic Z-matrix:
 Charge =  0 Multiplicity = 1

                         Standard orientation:
 ---------------------------------------------------------------------
 Center     Atomic      Atomic             Coordinates (Angstroms)
 Number     Number       Type             X           Y           Z
 ---------------------------------------------------------------------
      1          8           0       -0.019867    2.292179    0.000000
      2          1           0       -0.017059    1.309582    0.000000
      3          1           0        0.908712    2.613501    0.000000
      4          8           0       -0.019867   -2.125079    0.000000
      5          1           0       -0.993692   -2.256118    0.000000
      6          1           0        0.419910   -3.003773    0.000000
 ---------------------------------------------------------------------

 SCF Done:  E(RHF) =  -33.6554054162     A.U. after   11 cycles
 E2 =    -0.2283061191D+00 EUMP2 =    -0.33883711535231D+02
 CCSD(T)
 CCSD(T)= -0.33900620013D+02

 The electronic state is 1-A'.
 Alpha  occ. eigenvalues --   -1.36701  -1.34179  -0.72352  -0.69821  -0.56644
 Alpha  occ. eigenvalues --   -0.54022  -0.51323  -0.48809
 Alpha virt. eigenvalues --    0.18663   0.22243   0.29470   0.32291   0.79239
 Alpha virt. eigenvalues --    0.81678   0.82517   0.84414   0.85652   0.87786
 Alpha virt. eigenvalues --    1.16302   1.19204   1.20728   1.26035   2.56139

 Mulliken charges:
               1
     1  O   -0.755471
     2  H    0.386222
     3  H    0.368518
     4  O   -0.753442
     5  H    0.376862
     6  H    0.377311
 Sum of Mulliken charges =   0.00000

 Dipole moment (field-independent basis, Debye):
    X=              0.9041    Y=             -3.9872    Z=              0.0000  Tot=              4.0884
 Quadrupole moment (field-independent basis, Debye-Ang):
   XX=             -9.6729   YY=             -7.2403   ZZ=            -14.9956
   XY=              7.7691   XZ=              0.0000   YZ=              0.0000

 2237\MP4DQ=-33.8949783\MP4SDQ=-33.8970146\CCSD=-33.8980539\CCSD(T)=-33
 Normal termination of Gaussian 16 at Sun Dec 10 06:27:00 2023.
