 Gaussian 16, Revision A.03,
 Gaussian 16:  ES64L-G16RevA.03 25-Dec-2016

 ------------------
 #p CCSD(T)/CEP-31G
 ------------------

 ------------
 H2O_H2O_2845
 ------------
 Symbolic Z-matrix:
 Charge =  0 Multiplicity = 1

                         Standard orientation:
 ---------------------------------------------------------------------
 Center     Atomic      Atomic             Coordinates (Angstroms)
 Number     Number       Type             X           Y           Z
 ---------------------------------------------------------------------
      1          8           0        0.026668    2.235670    0.000000
      2          1           0        0.024050    1.253072    0.000000
      3          1           0       -0.901972    2.556811   -0.000000
      4          8           0        0.026668   -2.062452    0.000000
      5          1           0        0.975108   -2.319295    0.000000
      6          1           0       -0.523881   -2.876331   -0.000000
 ---------------------------------------------------------------------

 SCF Done:  E(RHF) =  -33.6558555158     A.U. after   11 cycles
 E2 =    -0.2283300619D+00 EUMP2 =    -0.33884185577662D+02
 CCSD(T)
 CCSD(T)= -0.33901084815D+02

 The electronic state is 1-A'.
 Alpha  occ. eigenvalues --   -1.36780  -1.33982  -0.72429  -0.69619  -0.56754
 Alpha  occ. eigenvalues --   -0.53829  -0.51409  -0.48616
 Alpha virt. eigenvalues --    0.18628   0.22476   0.29429   0.32570   0.79151
 Alpha virt. eigenvalues --    0.81869   0.82854   0.84496   0.85721   0.87935
 Alpha virt. eigenvalues --    1.16261   1.19433   1.20680   1.26864   2.55722

 Mulliken charges:
               1
     1  O   -0.757361
     2  H    0.389095
     3  H    0.367233
     4  O   -0.754429
     5  H    0.378105
     6  H    0.377356
 Sum of Mulliken charges =  -0.00000

 Dipole moment (field-independent basis, Debye):
    X=             -1.2123    Y=             -4.1499    Z=             -0.0000  Tot=              4.3233
 Quadrupole moment (field-independent basis, Debye-Ang):
   XX=             -9.5210   YY=             -6.9941   ZZ=            -14.9966
   XY=             -7.1032   XZ=              0.0000   YZ=             -0.0000

 6824\MP4DQ=-33.895438\MP4SDQ=-33.8974792\CCSD=-33.8985155\CCSD(T)=-33.
 Normal termination of Gaussian 16 at Sun Dec 10 06:24:12 2023.
