 Gaussian 16, Revision A.03,
 Gaussian 16:  ES64L-G16RevA.03 25-Dec-2016

 ------------------
 #p CCSD(T)/CEP-31G
 ------------------

 ------------
 H2O_H2O_1874
 ------------
 Symbolic Z-matrix:
 Charge =  0 Multiplicity = 1

                         Standard orientation:
 ---------------------------------------------------------------------
 Center     Atomic      Atomic             Coordinates (Angstroms)
 Number     Number       Type             X           Y           Z
 ---------------------------------------------------------------------
      1          8           0       -0.013588    1.839177    0.000000
      2          1           0       -0.009758    0.856583    0.000000
      3          1           0        0.914655    2.161464    0.000000
      4          8           0       -0.013588   -1.679939    0.000000
      5          1           0       -0.996182   -1.683769    0.000000
      6          1           0        0.308700   -2.608183    0.000000
 ---------------------------------------------------------------------

 SCF Done:  E(RHF) =  -33.6586681196     A.U. after   11 cycles
 E2 =    -0.2285761197D+00 EUMP2 =    -0.33887244239338D+02
 CCSD(T)
 CCSD(T)= -0.33904146765D+02

 The electronic state is 1-A'.
 Alpha  occ. eigenvalues --   -1.37471  -1.33390  -0.73188  -0.69079  -0.57694
 Alpha  occ. eigenvalues --   -0.53254  -0.52124  -0.48064
 Alpha virt. eigenvalues --    0.17704   0.24232   0.28954   0.35501   0.78016
 Alpha virt. eigenvalues --    0.81936   0.82864   0.85846   0.87938   0.95582
 Alpha virt. eigenvalues --    1.15719   1.19447   1.20800   1.36428   2.52738

 Mulliken charges:
               1
     1  O   -0.771316
     2  H    0.401149
     3  H    0.367367
     4  O   -0.768392
     5  H    0.382335
     6  H    0.388857
 Sum of Mulliken charges =  -0.00000

 Dipole moment (field-independent basis, Debye):
    X=              0.6099    Y=             -3.9400    Z=              0.0000  Tot=              3.9869
 Quadrupole moment (field-independent basis, Debye-Ang):
   XX=             -9.8569   YY=             -8.3237   ZZ=            -15.0014
   XY=              6.6038   XZ=              0.0000   YZ=              0.0000

 6629\MP4DQ=-33.8984075\MP4SDQ=-33.9005002\CCSD=-33.9015201\CCSD(T)=-33
 Normal termination of Gaussian 16 at Sun Dec 10 06:54:15 2023.
