 Gaussian 16, Revision A.03,
 Gaussian 16:  ES64L-G16RevA.03 25-Dec-2016

 ------------------
 #p CCSD(T)/CEP-31G
 ------------------

 ------------
 H2O_H2O_2328
 ------------
 Symbolic Z-matrix:
 Charge =  0 Multiplicity = 1

                         Standard orientation:
 ---------------------------------------------------------------------
 Center     Atomic      Atomic             Coordinates (Angstroms)
 Number     Number       Type             X           Y           Z
 ---------------------------------------------------------------------
      1          8           0        0.085604   -2.023388    0.000000
      2          1           0        0.085284   -1.040787    0.000000
      3          1           0       -0.843785   -2.342357    0.000000
      4          8           0        0.085604    1.873799    0.000000
      5          1           0        0.276987    2.837583    0.000000
      6          1           0       -0.888155    1.742273    0.000000
 ---------------------------------------------------------------------

 SCF Done:  E(RHF) =  -33.6539720914     A.U. after   11 cycles
 E2 =    -0.2285873813D+00 EUMP2 =    -0.33882559472747D+02
 CCSD(T)
 CCSD(T)= -0.33899546609D+02

 The electronic state is 1-A'.
 Alpha  occ. eigenvalues --   -1.37186  -1.34278  -0.72891  -0.69847  -0.57072
 Alpha  occ. eigenvalues --   -0.54021  -0.51775  -0.48859
 Alpha virt. eigenvalues --    0.17291   0.22988   0.28968   0.32913   0.78698
 Alpha virt. eigenvalues --    0.81794   0.82944   0.84676   0.87897   0.88757
 Alpha virt. eigenvalues --    1.15539   1.19113   1.20468   1.32480   2.54972

 Mulliken charges:
               1
     1  O   -0.751248
     2  H    0.389182
     3  H    0.360516
     4  O   -0.750300
     5  H    0.383739
     6  H    0.368110
 Sum of Mulliken charges =  -0.00000

 Dipole moment (field-independent basis, Debye):
    X=             -3.8930    Y=              3.6421    Z=              0.0000  Tot=              5.3311
 Quadrupole moment (field-independent basis, Debye-Ang):
   XX=            -10.8229   YY=             -8.6079   ZZ=            -14.9912
   XY=              3.0286   XZ=              0.0000   YZ=              0.0000

 009\MP4DQ=-33.8938407\MP4SDQ=-33.8959139\CCSD=-33.8969461\CCSD(T)=-33.
 Normal termination of Gaussian 16 at Sun Dec 10 07:04:17 2023.
