 Gaussian 16, Revision A.03,
 Gaussian 16:  ES64L-G16RevA.03 25-Dec-2016

 ------------------
 #p CCSD(T)/CEP-31G
 ------------------

 ------------
 H2O_H2O_1877
 ------------
 Symbolic Z-matrix:
 Charge =  0 Multiplicity = 1

                         Standard orientation:
 ---------------------------------------------------------------------
 Center     Atomic      Atomic             Coordinates (Angstroms)
 Number     Number       Type             X           Y           Z
 ---------------------------------------------------------------------
      1          8           0        0.088235   -1.841026    0.000000
      2          1           0        0.088009   -0.858425    0.000000
      3          1           0       -0.841184   -2.159907    0.000000
      4          8           0        0.088235    1.696716    0.000000
      5          1           0        0.216266    2.670941    0.000000
      6          1           0       -0.874855    1.501877    0.000000
 ---------------------------------------------------------------------

 SCF Done:  E(RHF) =  -33.6541387616     A.U. after   11 cycles
 E2 =    -0.2288258680D+00 EUMP2 =    -0.33882964629654D+02
 CCSD(T)
 CCSD(T)= -0.33899992222D+02

 The electronic state is 1-A'.
 Alpha  occ. eigenvalues --   -1.37611  -1.34105  -0.73400  -0.69635  -0.57540
 Alpha  occ. eigenvalues --   -0.53812  -0.52189  -0.48673
 Alpha virt. eigenvalues --    0.16892   0.23770   0.28596   0.34724   0.77951
 Alpha virt. eigenvalues --    0.82297   0.82374   0.84734   0.88387   0.95859
 Alpha virt. eigenvalues --    1.15273   1.18413   1.20909   1.37676   2.53130

 Mulliken charges:
               1
     1  O   -0.753481
     2  H    0.393614
     3  H    0.357225
     4  O   -0.754078
     5  H    0.389933
     6  H    0.366787
 Sum of Mulliken charges =  -0.00000

 Dipole moment (field-independent basis, Debye):
    X=             -3.9914    Y=              3.5825    Z=              0.0000  Tot=              5.3633
 Quadrupole moment (field-independent basis, Debye-Ang):
   XX=            -10.9999   YY=             -9.0016   ZZ=            -14.9907
   XY=              2.7364   XZ=              0.0000   YZ=              0.0000

 4908\MP4DQ=-33.894218\MP4SDQ=-33.8963304\CCSD=-33.8973529\CCSD(T)=-33.
 Normal termination of Gaussian 16 at Sun Dec 10 06:54:19 2023.
