 Gaussian 16, Revision A.03,
 Gaussian 16:  ES64L-G16RevA.03 25-Dec-2016

 ------------------
 #p CCSD(T)/CEP-31G
 ------------------

 ------------
 H2O_H2O_2020
 ------------
 Symbolic Z-matrix:
 Charge =  0 Multiplicity = 1

                         Standard orientation:
 ---------------------------------------------------------------------
 Center     Atomic      Atomic             Coordinates (Angstroms)
 Number     Number       Type             X           Y           Z
 ---------------------------------------------------------------------
      1          8           0        0.026710    1.906584   -0.000000
      2          1           0        0.023619    0.923988   -0.000000
      3          1           0       -0.901776    2.228173   -0.000000
      4          8           0        0.026710   -1.733392    0.000000
      5          1           0        0.975026   -1.990692    0.000000
      6          1           0       -0.524231   -2.547007    0.000000
 ---------------------------------------------------------------------

 SCF Done:  E(RHF) =  -33.6586894692     A.U. after   11 cycles
 E2 =    -0.2285412029D+00 EUMP2 =    -0.33887230672069D+02
 CCSD(T)
 CCSD(T)= -0.33904104666D+02

 The electronic state is 1-A'.
 Alpha  occ. eigenvalues --   -1.37338  -1.33221  -0.73000  -0.68895  -0.57557
 Alpha  occ. eigenvalues --   -0.53087  -0.52002  -0.47888
 Alpha virt. eigenvalues --    0.18071   0.23959   0.29063   0.35038   0.78309
 Alpha virt. eigenvalues --    0.82539   0.82837   0.86128   0.88066   0.91365
 Alpha virt. eigenvalues --    1.15759   1.19905   1.20666   1.33491   2.52311

 Mulliken charges:
               1
     1  O   -0.770470
     2  H    0.403724
     3  H    0.364364
     4  O   -0.765119
     5  H    0.383312
     6  H    0.384189
 Sum of Mulliken charges =   0.00000

 Dipole moment (field-independent basis, Debye):
    X=             -1.2028    Y=             -4.2594    Z=              0.0000  Tot=              4.4260
 Quadrupole moment (field-independent basis, Debye-Ang):
   XX=             -9.5111   YY=             -7.6841   ZZ=            -15.0021
   XY=             -6.0791   XZ=              0.0000   YZ=             -0.0000

 454\MP4DQ=-33.8983934\MP4SDQ=-33.9004695\CCSD=-33.9014922\CCSD(T)=-33.
 Normal termination of Gaussian 16 at Sun Dec 10 06:57:00 2023.
