 Gaussian 16, Revision A.03,
 Gaussian 16:  ES64L-G16RevA.03 25-Dec-2016

 ------------------
 #p CCSD(T)/CEP-31G
 ------------------

 ------------
 H2O_H2O_1350
 ------------
 Symbolic Z-matrix:
 Charge =  0 Multiplicity = 1

                         Standard orientation:
 ---------------------------------------------------------------------
 Center     Atomic      Atomic             Coordinates (Angstroms)
 Number     Number       Type             X           Y           Z
 ---------------------------------------------------------------------
      1          8           0        0.092949   -1.625356    0.000000
      2          1           0        0.092949   -0.642754    0.000000
      3          1           0       -0.836544   -1.944022    0.000000
      4          8           0        0.092949    1.492569    0.000000
      5          1           0        0.092950    2.475171    0.000000
      6          1           0       -0.836544    1.173902    0.000000
 ---------------------------------------------------------------------

 SCF Done:  E(RHF) =  -33.6521903449     A.U. after   11 cycles
 E2 =    -0.2292514808D+00 EUMP2 =    -0.33881441825692D+02
 CCSD(T)
 CCSD(T)= -0.33898514982D+02

 The electronic state is 1-A'.
 Alpha  occ. eigenvalues --   -1.38435  -1.33998  -0.74612  -0.69352  -0.58290
 Alpha  occ. eigenvalues --   -0.53598  -0.52942  -0.48512
 Alpha virt. eigenvalues --    0.16524   0.24583   0.28030   0.38572   0.76358
 Alpha virt. eigenvalues --    0.80973   0.83643   0.84568   0.89166   1.09141
 Alpha virt. eigenvalues --    1.15882   1.17495   1.22323   1.39907   2.50823

 Mulliken charges:
               1
     1  O   -0.747354
     2  H    0.387727
     3  H    0.351857
     4  O   -0.756829
     5  H    0.402146
     6  H    0.362452
 Sum of Mulliken charges =  -0.00000

 Dipole moment (field-independent basis, Debye):
    X=             -4.1639    Y=              3.4250    Z=              0.0000  Tot=              5.3916
 Quadrupole moment (field-independent basis, Debye-Ang):
   XX=            -11.3431   YY=             -9.5847   ZZ=            -14.9869
   XY=              2.2525   XZ=              0.0000   YZ=              0.0000

 152\MP4DQ=-33.8926071\MP4SDQ=-33.894799\CCSD=-33.8957901\CCSD(T)=-33.8
 Normal termination of Gaussian 16 at Sun Dec 10 06:44:05 2023.
