 Gaussian 16, Revision A.03,
 Gaussian 16:  ES64L-G16RevA.03 25-Dec-2016

 ------------------
 #p CCSD(T)/CEP-31G
 ------------------

 -----------
 H2O_H2O_371
 -----------
 Symbolic Z-matrix:
 Charge =  0 Multiplicity = 1

                         Standard orientation:
 ---------------------------------------------------------------------
 Center     Atomic      Atomic             Coordinates (Angstroms)
 Number     Number       Type             X           Y           Z
 ---------------------------------------------------------------------
      1          8           0       -0.023424    1.246859    0.000000
      2          1           0       -0.018330    0.264271    0.000000
      3          1           0        0.904404    1.570340    0.000000
      4          8           0       -0.023424   -1.076590    0.000000
      5          1           0       -0.986139   -1.273280    0.000000
      6          1           0        0.474852   -1.923482    0.000000
 ---------------------------------------------------------------------

 SCF Done:  E(RHF) =  -33.6421768116     A.U. after   11 cycles
 E2 =    -0.2280084987D+00 EUMP2 =    -0.33870185310276D+02
 CCSD(T)
 CCSD(T)= -0.33885549379D+02

 The electronic state is 1-A'.
 Alpha  occ. eigenvalues --   -1.42323  -1.28644  -0.78465  -0.71895  -0.57865
 Alpha  occ. eigenvalues --   -0.56506  -0.46982  -0.43046
 Alpha virt. eigenvalues --    0.17084   0.26036   0.28971   0.57542   0.73672
 Alpha virt. eigenvalues --    0.74810   0.87644   0.90052   0.94131   1.01728
 Alpha virt. eigenvalues --    1.15132   1.20781   1.27540   1.37531   2.78912

 Mulliken charges:
               1
     1  O   -0.762415
     2  H    0.373374
     3  H    0.336494
     4  O   -0.836292
     5  H    0.424788
     6  H    0.464051
 Sum of Mulliken charges =  -0.00000

 Dipole moment (field-independent basis, Debye):
    X=              1.0259    Y=             -5.0636    Z=              0.0000  Tot=              5.1665
 Quadrupole moment (field-independent basis, Debye-Ang):
   XX=             -9.4894   YY=             -9.9238   ZZ=            -14.9906
   XY=              3.9314   XZ=              0.0000   YZ=              0.0000

 51\MP4DQ=-33.8795245\MP4SDQ=-33.8817514\CCSD=-33.8825059\CCSD(T)=-33.8
 Normal termination of Gaussian 16 at Sun Dec 10 06:25:22 2023.
