 Gaussian 16, Revision A.03,
 Gaussian 16:  ES64L-G16RevA.03 25-Dec-2016

 ------------------
 #p CCSD(T)/CEP-31G
 ------------------

 ------------
 H2O_H2O_3479
 ------------
 Symbolic Z-matrix:
 Charge =  0 Multiplicity = 1

                         Standard orientation:
 ---------------------------------------------------------------------
 Center     Atomic      Atomic             Coordinates (Angstroms)
 Number     Number       Type             X           Y           Z
 ---------------------------------------------------------------------
      1          8           0        0.082802    2.484776   -0.000000
      2          1           0        0.082444    1.502174   -0.000000
      3          1           0       -0.846575    2.803781   -0.000000
      4          8           0        0.082802   -2.330254    0.000000
      5          1           0        0.336772   -3.279467    0.000000
      6          1           0       -0.897472   -2.262659    0.000000
 ---------------------------------------------------------------------

 SCF Done:  E(RHF) =  -33.6529658868     A.U. after   11 cycles
 E2 =    -0.2283496317D+00 EUMP2 =    -0.33881315518522D+02
 CCSD(T)
 CCSD(T)= -0.33898284667D+02

 The electronic state is 1-A'.
 Alpha  occ. eigenvalues --   -1.36566  -1.34700  -0.72222  -0.70307  -0.56374
 Alpha  occ. eigenvalues --   -0.54456  -0.51150  -0.49282
 Alpha virt. eigenvalues --    0.18830   0.21493   0.29494   0.31527   0.79423
 Alpha virt. eigenvalues --    0.81239   0.82299   0.84254   0.85392   0.87590
 Alpha virt. eigenvalues --    1.16314   1.18426   1.20796   1.23675   2.56300

 Mulliken charges:
               1
     1  O   -0.745809
     2  H    0.380377
     3  H    0.365240
     4  O   -0.746009
     5  H    0.377254
     6  H    0.368946
 Sum of Mulliken charges =  -0.00000

 Dipole moment (field-independent basis, Debye):
    X=             -3.7939    Y=             -3.6629    Z=              0.0000  Tot=              5.2735
 Quadrupole moment (field-independent basis, Debye-Ang):
   XX=            -10.6433   YY=             -7.8841   ZZ=            -14.9904
   XY=             -3.4959   XZ=              0.0000   YZ=             -0.0000

 969\MP4DQ=-33.8926415\MP4SDQ=-33.8946714\CCSD=-33.8957207\CCSD(T)=-33.
 Normal termination of Gaussian 16 at Sun Dec 10 06:35:38 2023.
