 Gaussian 16, Revision A.03,
 Gaussian 16:  ES64L-G16RevA.03 25-Dec-2016

 ------------------
 #p CCSD(T)/CEP-31G
 ------------------

 -----------
 H2O_H2O_441
 -----------
 Symbolic Z-matrix:
 Charge =  0 Multiplicity = 1

                         Standard orientation:
 ---------------------------------------------------------------------
 Center     Atomic      Atomic             Coordinates (Angstroms)
 Number     Number       Type             X           Y           Z
 ---------------------------------------------------------------------
      1          8           0        0.041301    1.281934   -0.000000
      2          1           0        0.037611    0.299340   -0.000000
      3          1           0       -0.886990    1.604088   -0.000000
      4          8           0        0.041301   -1.102156    0.000000
      5          1           0        0.890408   -1.596648    0.000000
      6          1           0       -0.701838   -1.745002    0.000000
 ---------------------------------------------------------------------

 SCF Done:  E(RHF) =  -33.6498289040     A.U. after   11 cycles
 E2 =    -0.2286859911D+00 EUMP2 =    -0.33878514895067D+02
 CCSD(T)
 CCSD(T)= -0.33893909251D+02

 The electronic state is 1-A'.
 Alpha  occ. eigenvalues --   -1.41666  -1.28766  -0.76684  -0.72615  -0.57765
 Alpha  occ. eigenvalues --   -0.56135  -0.47313  -0.43170
 Alpha virt. eigenvalues --    0.16984   0.26567   0.28680   0.56555   0.73805
 Alpha virt. eigenvalues --    0.73893   0.85889   0.89804   0.94843   1.01178
 Alpha virt. eigenvalues --    1.14720   1.17567   1.25458   1.36505   2.73381

 Mulliken charges:
               1
     1  O   -0.772236
     2  H    0.409609
     3  H    0.329074
     4  O   -0.833575
     5  H    0.433527
     6  H    0.433601
 Sum of Mulliken charges =   0.00000

 Dipole moment (field-independent basis, Debye):
    X=             -1.7531    Y=             -5.1848    Z=              0.0000  Tot=              5.4731
 Quadrupole moment (field-independent basis, Debye-Ang):
   XX=             -9.3111   YY=             -9.8963   ZZ=            -15.0029
   XY=             -3.7533   XZ=              0.0000   YZ=             -0.0000

 93\MP4DQ=-33.8879084\MP4SDQ=-33.890108\CCSD=-33.890861\CCSD(T)=-33.893
 Normal termination of Gaussian 16 at Sun Dec 10 06:26:45 2023.
