 Gaussian 16, Revision A.03,
 Gaussian 16:  ES64L-G16RevA.03 25-Dec-2016

 ------------------
 #p CCSD(T)/CEP-31G
 ------------------

 ------------
 H2O_H2O_4991
 ------------
 Symbolic Z-matrix:
 Charge =  0 Multiplicity = 1

                         Standard orientation:
 ---------------------------------------------------------------------
 Center     Atomic      Atomic             Coordinates (Angstroms)
 Number     Number       Type             X           Y           Z
 ---------------------------------------------------------------------
      1          8           0        0.041097    3.096914   -0.000000
      2          1           0        0.039634    2.114314   -0.000000
      3          1           0       -0.887921    3.416964   -0.000000
      4          8           0        0.041097   -2.916949    0.000000
      5          1           0        0.891323   -3.409517    0.000000
      6          1           0       -0.700583   -3.561478    0.000000
 ---------------------------------------------------------------------

 SCF Done:  E(RHF) =  -33.6530656755     A.U. after   10 cycles
 E2 =    -0.2283088269D+00 EUMP2 =    -0.33881374502349D+02
 CCSD(T)
 CCSD(T)= -0.33898338748D+02

 The electronic state is 1-A'.
 Alpha  occ. eigenvalues --   -1.36170  -1.34787  -0.71808  -0.70419  -0.55977
 Alpha  occ. eigenvalues --   -0.54564  -0.50761  -0.49379
 Alpha virt. eigenvalues --    0.19670   0.21088   0.29920   0.31363   0.79789
 Alpha virt. eigenvalues --    0.81144   0.82684   0.84134   0.85850   0.87245
 Alpha virt. eigenvalues --    1.16787   1.18170   1.21233   1.22653   2.56769

 Mulliken charges:
               1
     1  O   -0.746083
     2  H    0.377224
     3  H    0.368858
     4  O   -0.745658
     5  H    0.373595
     6  H    0.372065
 Sum of Mulliken charges =   0.00000

 Dipole moment (field-independent basis, Debye):
    X=             -1.8898    Y=             -4.2095    Z=              0.0000  Tot=              4.6142
 Quadrupole moment (field-independent basis, Debye-Ang):
   XX=             -9.4141   YY=             -4.7038   ZZ=            -14.9912
   XY=             -8.2780   XZ=              0.0000   YZ=             -0.0000

 9576\MP4DQ=-33.8927039\MP4SDQ=-33.8947282\CCSD=-33.8957812\CCSD(T)=-33
 Normal termination of Gaussian 16 at Sun Dec 10 07:04:07 2023.
