 Gaussian 16, Revision A.03,
 Gaussian 16:  ES64L-G16RevA.03 25-Dec-2016

 ------------------
 #p CCSD(T)/CEP-31G
 ------------------

 ------------
 H2O_H2O_3905
 ------------
 Symbolic Z-matrix:
 Charge =  0 Multiplicity = 1

                         Standard orientation:
 ---------------------------------------------------------------------
 Center     Atomic      Atomic             Coordinates (Angstroms)
 Number     Number       Type             X           Y           Z
 ---------------------------------------------------------------------
      1          8           0        0.079847    2.656770   -0.000000
      2          1           0        0.079416    1.674169   -0.000000
      3          1           0       -0.849506    2.975844   -0.000000
      4          8           0        0.079847   -2.497699    0.000000
      5          1           0        0.395286   -3.428292    0.000000
      6          1           0       -0.902748   -2.494288    0.000000
 ---------------------------------------------------------------------

 SCF Done:  E(RHF) =  -33.6528441520     A.U. after   11 cycles
 E2 =    -0.2283317129D+00 EUMP2 =    -0.33881175864934D+02
 CCSD(T)
 CCSD(T)= -0.33898147037D+02

 The electronic state is 1-A'.
 Alpha  occ. eigenvalues --   -1.36425  -1.34764  -0.72075  -0.70378  -0.56225
 Alpha  occ. eigenvalues --   -0.54521  -0.51010  -0.49347
 Alpha virt. eigenvalues --    0.19245   0.21223   0.29635   0.31420   0.79555
 Alpha virt. eigenvalues --    0.81177   0.82408   0.84193   0.85534   0.87418
 Alpha virt. eigenvalues --    1.16508   1.18227   1.20941   1.22945   2.56444

 Mulliken charges:
               1
     1  O   -0.745306
     2  H    0.379014
     3  H    0.366230
     4  O   -0.745409
     5  H    0.375986
     6  H    0.369485
 Sum of Mulliken charges =   0.00000

 Dipole moment (field-independent basis, Debye):
    X=             -3.6642    Y=             -3.7513    Z=              0.0000  Tot=              5.2439
 Quadrupole moment (field-independent basis, Debye-Ang):
   XX=            -10.4776   YY=             -7.3375   ZZ=            -14.9904
   XY=             -3.8978   XZ=              0.0000   YZ=             -0.0000

 MP4DQ=-33.8925078\MP4SDQ=-33.8945344\CCSD=-33.8955862\CCSD(T)=-33.8981
 Normal termination of Gaussian 16 at Sun Dec 10 06:43:16 2023.
