 Gaussian 16, Revision A.03,
 Gaussian 16:  ES64L-G16RevA.03 25-Dec-2016

 ------------------
 #p CCSD(T)/CEP-31G
 ------------------

 ------------
 H2O_H2O_1477
 ------------
 Symbolic Z-matrix:
 Charge =  0 Multiplicity = 1

                         Standard orientation:
 ---------------------------------------------------------------------
 Center     Atomic      Atomic             Coordinates (Angstroms)
 Number     Number       Type             X           Y           Z
 ---------------------------------------------------------------------
      1          8           0        0.088237   -1.681473    0.000000
      2          1           0        0.087988   -0.698872    0.000000
      3          1           0       -0.841175   -2.000375    0.000000
      4          8           0        0.088237    1.537166    0.000000
      5          1           0        0.216246    2.511395    0.000000
      6          1           0       -0.874849    1.342305    0.000000
 ---------------------------------------------------------------------

 SCF Done:  E(RHF) =  -33.6544275671     A.U. after   11 cycles
 E2 =    -0.2290386238D+00 EUMP2 =    -0.33883466190885D+02
 CCSD(T)
 CCSD(T)= -0.33900498392D+02

 The electronic state is 1-A'.
 Alpha  occ. eigenvalues --   -1.38156  -1.33702  -0.74101  -0.69214  -0.58141
 Alpha  occ. eigenvalues --   -0.53352  -0.52716  -0.48254
 Alpha virt. eigenvalues --    0.16826   0.24530   0.28168   0.37663   0.76873
 Alpha virt. eigenvalues --    0.81170   0.83471   0.84822   0.89401   1.05862
 Alpha virt. eigenvalues --    1.15427   1.17390   1.21694   1.39782   2.50933

 Mulliken charges:
               1
     1  O   -0.755237
     2  H    0.397558
     3  H    0.352666
     4  O   -0.762765
     5  H    0.400590
     6  H    0.367188
 Sum of Mulliken charges =   0.00000

 Dipole moment (field-independent basis, Debye):
    X=             -3.9606    Y=              3.6791    Z=              0.0000  Tot=              5.4058
 Quadrupole moment (field-independent basis, Debye-Ang):
   XX=            -11.0138   YY=             -9.1125   ZZ=            -14.9917
   XY=              2.6910   XZ=              0.0000   YZ=              0.0000

 349\MP4DQ=-33.8946434\MP4SDQ=-33.896801\CCSD=-33.8978078\CCSD(T)=-33.9
 Normal termination of Gaussian 16 at Sun Dec 10 06:46:37 2023.
