 Gaussian 16, Revision A.03,
 Gaussian 16:  ES64L-G16RevA.03 25-Dec-2016

 ------------------
 #p CCSD(T)/CEP-31G
 ------------------

 ------------
 H2O_H2O_2414
 ------------
 Symbolic Z-matrix:
 Charge =  0 Multiplicity = 1

                         Standard orientation:
 ---------------------------------------------------------------------
 Center     Atomic      Atomic             Coordinates (Angstroms)
 Number     Number       Type             X           Y           Z
 ---------------------------------------------------------------------
      1          8           0        0.048605    2.070026    0.000000
      2          1           0        0.046702    1.087426    0.000000
      3          1           0       -0.880270    2.390491    0.000000
      4          8           0        0.048605   -1.889660   -0.000000
      5          1           0        0.826995   -2.489339   -0.000000
      6          1           0       -0.771101   -2.431500   -0.000000
 ---------------------------------------------------------------------

 SCF Done:  E(RHF) =  -33.6568552848     A.U. after   11 cycles
 E2 =    -0.2284454852D+00 EUMP2 =    -0.33885300770034D+02
 CCSD(T)
 CCSD(T)= -0.33902190248D+02

 The electronic state is 1-A'.
 Alpha  occ. eigenvalues --   -1.37058  -1.33531  -0.72707  -0.69152  -0.57120
 Alpha  occ. eigenvalues --   -0.53371  -0.51700  -0.48169
 Alpha virt. eigenvalues --    0.18388   0.23162   0.29235   0.33531   0.78812
 Alpha virt. eigenvalues --    0.82360   0.84061   0.85259   0.85729   0.88500
 Alpha virt. eigenvalues --    1.16026   1.19910   1.20475   1.29615   2.53907

 Mulliken charges:
               1
     1  O   -0.761978
     2  H    0.397270
     3  H    0.362813
     4  O   -0.757014
     5  H    0.382181
     6  H    0.376728
 Sum of Mulliken charges =  -0.00000

 Dipole moment (field-independent basis, Debye):
    X=             -2.2029    Y=             -4.3781    Z=             -0.0000  Tot=              4.9011
 Quadrupole moment (field-independent basis, Debye-Ang):
   XX=             -9.4563   YY=             -7.0239   ZZ=            -14.9986
   XY=             -5.4185   XZ=             -0.0000   YZ=              0.0000

 636\MP4DQ=-33.8965165\MP4SDQ=-33.8985746\CCSD=-33.8996042\CCSD(T)=-33.
 Normal termination of Gaussian 16 at Sun Dec 10 07:05:53 2023.
