 Gaussian 16, Revision A.03,
 Gaussian 16:  ES64L-G16RevA.03 25-Dec-2016

 ------------------
 #p CCSD(T)/CEP-31G
 ------------------

 ------------
 H2O_H2O_4135
 ------------
 Symbolic Z-matrix:
 Charge =  0 Multiplicity = 1

                         Standard orientation:
 ---------------------------------------------------------------------
 Center     Atomic      Atomic             Coordinates (Angstroms)
 Number     Number       Type             X           Y           Z
 ---------------------------------------------------------------------
      1          8           0        0.063221    2.755458    0.000000
      2          1           0        0.062276    1.772857    0.000000
      3          1           0       -0.865965    3.075018    0.000000
      4          8           0        0.063221   -2.579928   -0.000000
      5          1           0        0.660641   -3.360054   -0.000000
      6          1           0       -0.868487   -2.892057   -0.000000
 ---------------------------------------------------------------------

 SCF Done:  E(RHF) =  -33.6532846724     A.U. after   10 cycles
 E2 =    -0.2283075165D+00 EUMP2 =    -0.33881592188865D+02
 CCSD(T)
 CCSD(T)= -0.33898549906D+02

 The electronic state is 1-A'.
 Alpha  occ. eigenvalues --   -1.36346  -1.34615  -0.71989  -0.70237  -0.56169
 Alpha  occ. eigenvalues --   -0.54391  -0.50939  -0.49207
 Alpha virt. eigenvalues --    0.19458   0.21320   0.29748   0.31591   0.79619
 Alpha virt. eigenvalues --    0.81308   0.82447   0.84317   0.85636   0.87463
 Alpha virt. eigenvalues --    1.16621   1.18362   1.21052   1.22952   2.56586

 Mulliken charges:
               1
     1  O   -0.746984
     2  H    0.379945
     3  H    0.366999
     4  O   -0.746583
     5  H    0.375372
     6  H    0.371251
 Sum of Mulliken charges =   0.00000

 Dipole moment (field-independent basis, Debye):
    X=             -2.9014    Y=             -4.1294    Z=             -0.0000  Tot=              5.0468
 Quadrupole moment (field-independent basis, Debye-Ang):
   XX=             -9.7757   YY=             -5.8361   ZZ=            -14.9916
   XY=             -5.5838   XZ=             -0.0000   YZ=              0.0000

 85\MP4DQ=-33.8929154\MP4SDQ=-33.8949401\CCSD=-33.8959916\CCSD(T)=-33.8
 Normal termination of Gaussian 16 at Sun Dec 10 06:47:25 2023.
