 Gaussian 16, Revision A.03,
 Gaussian 16:  ES64L-G16RevA.03 25-Dec-2016

 ------------------
 #p CCSD(T)/CEP-31G
 ------------------

 ------------
 H2O_H2O_2312
 ------------
 Symbolic Z-matrix:
 Charge =  0 Multiplicity = 1

                         Standard orientation:
 ---------------------------------------------------------------------
 Center     Atomic      Atomic             Coordinates (Angstroms)
 Number     Number       Type             X           Y           Z
 ---------------------------------------------------------------------
      1          8           0        0.056011    2.029331    0.000000
      2          1           0        0.054393    1.046731    0.000000
      3          1           0       -0.872956    2.349527    0.000000
      4          8           0        0.056011   -1.850450   -0.000000
      5          1           0        0.749670   -2.546396   -0.000000
      6          1           0       -0.827281   -2.280916   -0.000000
 ---------------------------------------------------------------------

 SCF Done:  E(RHF) =  -33.6568708703     A.U. after   11 cycles
 E2 =    -0.2284902774D+00 EUMP2 =    -0.33885361147711D+02
 CCSD(T)
 CCSD(T)= -0.33902257419D+02

 The electronic state is 1-A'.
 Alpha  occ. eigenvalues --   -1.37139  -1.33486  -0.72793  -0.69102  -0.57212
 Alpha  occ. eigenvalues --   -0.53314  -0.51780  -0.48120
 Alpha virt. eigenvalues --    0.18263   0.23299   0.29146   0.33804   0.78703
 Alpha virt. eigenvalues --    0.82445   0.83805   0.85429   0.86579   0.88648
 Alpha virt. eigenvalues --    1.15926   1.19962   1.20399   1.30564   2.53455

 Mulliken charges:
               1
     1  O   -0.762298
     2  H    0.398828
     3  H    0.361457
     4  O   -0.757487
     5  H    0.383547
     6  H    0.375953
 Sum of Mulliken charges =   0.00000

 Dipole moment (field-independent basis, Debye):
    X=             -2.5370    Y=             -4.3577    Z=             -0.0000  Tot=              5.0424
 Quadrupole moment (field-independent basis, Debye-Ang):
   XX=             -9.5822   YY=             -7.1908   ZZ=            -14.9985
   XY=             -4.9616   XZ=              0.0000   YZ=              0.0000

 23\MP4DQ=-33.8965726\MP4SDQ=-33.8986361\CCSD=-33.8996647\CCSD(T)=-33.9
 Normal termination of Gaussian 16 at Sun Dec 10 07:03:59 2023.
