 Gaussian 16, Revision A.03,
 Gaussian 16:  ES64L-G16RevA.03 25-Dec-2016

 ------------------
 #p CCSD(T)/CEP-31G
 ------------------

 ------------
 H2O_H2O_3103
 ------------
 Symbolic Z-matrix:
 Charge =  0 Multiplicity = 1

                         Standard orientation:
 ---------------------------------------------------------------------
 Center     Atomic      Atomic             Coordinates (Angstroms)
 Number     Number       Type             X           Y           Z
 ---------------------------------------------------------------------
      1          8           0        0.085601   -2.332522    0.000000
      2          1           0        0.085325   -1.349920    0.000000
      3          1           0       -0.843802   -2.651450    0.000000
      4          8           0        0.085601    2.182925    0.000000
      5          1           0        0.277026    3.146700    0.000000
      6          1           0       -0.888164    2.051442    0.000000
 ---------------------------------------------------------------------

 SCF Done:  E(RHF) =  -33.6530535605     A.U. after   11 cycles
 E2 =    -0.2283908834D+00 EUMP2 =    -0.33881444443943D+02
 CCSD(T)
 CCSD(T)= -0.33898416051D+02

 The electronic state is 1-A'.
 Alpha  occ. eigenvalues --   -1.36725  -1.34652  -0.72391  -0.70249  -0.56540
 Alpha  occ. eigenvalues --   -0.54401  -0.51309  -0.49231
 Alpha virt. eigenvalues --    0.18241   0.21866   0.29351   0.31657   0.79269
 Alpha virt. eigenvalues --    0.81295   0.82401   0.84294   0.85388   0.87741
 Alpha virt. eigenvalues --    1.16042   1.18679   1.20662   1.25212   2.56221

 Mulliken charges:
               1
     1  O   -0.746291
     2  H    0.381713
     3  H    0.364150
     4  O   -0.746462
     5  H    0.378666
     6  H    0.368223
 Sum of Mulliken charges =  -0.00000

 Dipole moment (field-independent basis, Debye):
    X=             -3.9156    Y=              3.5683    Z=              0.0000  Tot=              5.2976
 Quadrupole moment (field-independent basis, Debye-Ang):
   XX=            -10.8119   YY=             -8.3711   ZZ=            -14.9902
   XY=              3.1430   XZ=              0.0000   YZ=              0.0000

 95\MP4DQ=-33.8927634\MP4SDQ=-33.8948004\CCSD=-33.8958459\CCSD(T)=-33.8
 Normal termination of Gaussian 16 at Sun Dec 10 06:28:54 2023.
