 Gaussian 16, Revision A.03,
 Gaussian 16:  ES64L-G16RevA.03 25-Dec-2016

 ------------------
 #p CCSD(T)/CEP-31G
 ------------------

 ------------
 H2O_H2O_3031
 ------------
 Symbolic Z-matrix:
 Charge =  0 Multiplicity = 1

                         Standard orientation:
 ---------------------------------------------------------------------
 Center     Atomic      Atomic             Coordinates (Angstroms)
 Number     Number       Type             X           Y           Z
 ---------------------------------------------------------------------
      1          8           0        0.076759    2.310000    0.000000
      2          1           0        0.076142    1.327398    0.000000
      3          1           0       -0.852534    2.629249    0.000000
      4          8           0        0.076759   -2.146793   -0.000000
      5          1           0        0.452215   -3.054834   -0.000000
      6          1           0       -0.903967   -2.207469   -0.000000
 ---------------------------------------------------------------------

 SCF Done:  E(RHF) =  -33.6538608503     A.U. after   11 cycles
 E2 =    -0.2283756382D+00 EUMP2 =    -0.33882236488479D+02
 CCSD(T)
 CCSD(T)= -0.33899185213D+02

 The electronic state is 1-A'.
 Alpha  occ. eigenvalues --   -1.36741  -1.34369  -0.72402  -0.69970  -0.56601
 Alpha  occ. eigenvalues --   -0.54143  -0.51338  -0.48962
 Alpha virt. eigenvalues --    0.18494   0.22019   0.29333   0.32028   0.79237
 Alpha virt. eigenvalues --    0.81548   0.82499   0.84588   0.85306   0.87928
 Alpha virt. eigenvalues --    1.16173   1.18933   1.20628   1.25689   2.56166

 Mulliken charges:
               1
     1  O   -0.749436
     2  H    0.384968
     3  H    0.363851
     4  O   -0.748797
     5  H    0.379135
     6  H    0.370278
 Sum of Mulliken charges =   0.00000

 Dipole moment (field-independent basis, Debye):
    X=             -3.5069    Y=             -3.8995    Z=             -0.0000  Tot=              5.2445
 Quadrupole moment (field-independent basis, Debye-Ang):
   XX=            -10.3244   YY=             -7.4900   ZZ=            -14.9922
   XY=             -3.9489   XZ=             -0.0000   YZ=              0.0000

 73\MP4DQ=-33.8935349\MP4SDQ=-33.8955732\CCSD=-33.8966158\CCSD(T)=-33.8
 Normal termination of Gaussian 16 at Sun Dec 10 06:27:37 2023.
