 Gaussian 16, Revision A.03,
 Gaussian 16:  ES64L-G16RevA.03 25-Dec-2016

 ------------------
 #p CCSD(T)/CEP-31G
 ------------------

 -----------
 H2O_H2O_278
 -----------
 Symbolic Z-matrix:
 Charge =  0 Multiplicity = 1

                         Standard orientation:
 ---------------------------------------------------------------------
 Center     Atomic      Atomic             Coordinates (Angstroms)
 Number     Number       Type             X           Y           Z
 ---------------------------------------------------------------------
      1          8           0        0.085622   -1.205669    0.000000
      2          1           0        0.085071   -0.223068    0.000000
      3          1           0       -0.843692   -1.524857    0.000000
      4          8           0        0.085622    1.056121    0.000000
      5          1           0        0.276777    2.019949    0.000000
      6          1           0       -0.888106    0.924366    0.000000
 ---------------------------------------------------------------------

 SCF Done:  E(RHF) =  -33.6169064198     A.U. after   11 cycles
 E2 =    -0.2284530877D+00 EUMP2 =    -0.33845359507517D+02
 CCSD(T)
 CCSD(T)= -0.33861110781D+02

 The electronic state is 1-A'.
 Alpha  occ. eigenvalues --   -1.43879  -1.29969  -0.81547  -0.70782  -0.57610
 Alpha  occ. eigenvalues --   -0.57177  -0.48352  -0.44151
 Alpha virt. eigenvalues --    0.16192   0.24063   0.29111   0.57428   0.73216
 Alpha virt. eigenvalues --    0.75948   0.87512   0.89538   0.96581   1.09511
 Alpha virt. eigenvalues --    1.13092   1.23533   1.26078   1.43872   2.86797

 Mulliken charges:
               1
     1  O   -0.695750
     2  H    0.299380
     3  H    0.314962
     4  O   -0.790620
     5  H    0.485291
     6  H    0.386737
 Sum of Mulliken charges =  -0.00000

 Dipole moment (field-independent basis, Debye):
    X=             -3.5815    Y=              4.6772    Z=              0.0000  Tot=              5.8910
 Quadrupole moment (field-independent basis, Debye-Ang):
   XX=            -10.8517   YY=            -10.0726   ZZ=            -14.9438
   XY=              2.6350   XZ=              0.0000   YZ=              0.0000

 1\MP4DQ=-33.8548205\MP4SDQ=-33.8572629\CCSD=-33.8580059\CCSD(T)=-33.86
 Normal termination of Gaussian 16 at Sun Dec 10 06:23:32 2023.
