 Gaussian 16, Revision A.03,
 Gaussian 16:  ES64L-G16RevA.03 25-Dec-2016

 ------------------
 #p CCSD(T)/CEP-31G
 ------------------

 ------------
 H2O_H2O_1072
 ------------
 Symbolic Z-matrix:
 Charge =  0 Multiplicity = 1

                         Standard orientation:
 ---------------------------------------------------------------------
 Center     Atomic      Atomic             Coordinates (Angstroms)
 Number     Number       Type             X           Y           Z
 ---------------------------------------------------------------------
      1          8           0       -0.019994    1.524315    0.000000
      2          1           0       -0.015689    0.541723    0.000000
      3          1           0        0.908094    1.847051    0.000000
      4          8           0       -0.019994   -1.357275    0.000000
      5          1           0       -0.993618   -1.489796    0.000000
      6          1           0        0.421121   -2.235297    0.000000
 ---------------------------------------------------------------------

 SCF Done:  E(RHF) =  -33.6621551289     A.U. after   11 cycles
 E2 =    -0.2287307359D+00 EUMP2 =    -0.33890885864788D+02
 CCSD(T)
 CCSD(T)= -0.33907488257D+02

 The electronic state is 1-A'.
 Alpha  occ. eigenvalues --   -1.38781  -1.31644  -0.74619  -0.68121  -0.59288
 Alpha  occ. eigenvalues --   -0.53469  -0.51262  -0.46323
 Alpha virt. eigenvalues --    0.17651   0.26331   0.28002   0.43932   0.75675
 Alpha virt. eigenvalues --    0.78288   0.85969   0.86406   0.91391   1.08117
 Alpha virt. eigenvalues --    1.16460   1.18338   1.23029   1.36582   2.52714

 Mulliken charges:
               1
     1  O   -0.783566
     2  H    0.419019
     3  H    0.358342
     4  O   -0.807686
     5  H    0.396330
     6  H    0.417561
 Sum of Mulliken charges =  -0.00000

 Dipole moment (field-independent basis, Debye):
    X=              0.8951    Y=             -4.3934    Z=              0.0000  Tot=              4.4837
 Quadrupole moment (field-independent basis, Debye-Ang):
   XX=             -9.6371   YY=             -8.7811   ZZ=            -15.0144
   XY=              5.0848   XZ=              0.0000   YZ=              0.0000

 39\MP4DQ=-33.9016373\MP4SDQ=-33.9037702\CCSD=-33.9047332\CCSD(T)=-33.9
 Normal termination of Gaussian 16 at Sun Dec 10 06:38:40 2023.
