 Gaussian 16, Revision A.03,
 Gaussian 16:  ES64L-G16RevA.03 25-Dec-2016

 ------------------
 #p CCSD(T)/CEP-31G
 ------------------

 ------------
 H2O_H2O_2489
 ------------
 Symbolic Z-matrix:
 Charge =  0 Multiplicity = 1

                         Standard orientation:
 ---------------------------------------------------------------------
 Center     Atomic      Atomic             Coordinates (Angstroms)
 Number     Number       Type             X           Y           Z
 ---------------------------------------------------------------------
      1          8           0        0.048602    2.099943   -0.000000
      2          1           0        0.046728    1.117343   -0.000000
      3          1           0       -0.880282    2.420381   -0.000000
      4          8           0        0.048602   -1.919575    0.000000
      5          1           0        0.827010   -2.519231    0.000000
      6          1           0       -0.771088   -2.461437    0.000000
 ---------------------------------------------------------------------

 SCF Done:  E(RHF) =  -33.6566099874     A.U. after   11 cycles
 E2 =    -0.2284253713D+00 EUMP2 =    -0.33885035358641D+02
 CCSD(T)
 CCSD(T)= -0.33901927083D+02

 The electronic state is 1-A'.
 Alpha  occ. eigenvalues --   -1.37008  -1.33601  -0.72657  -0.69221  -0.57049
 Alpha  occ. eigenvalues --   -0.53440  -0.51647  -0.48236
 Alpha virt. eigenvalues --    0.18439   0.23032   0.29272   0.33319   0.78882
 Alpha virt. eigenvalues --    0.82278   0.84203   0.84755   0.85627   0.88412
 Alpha virt. eigenvalues --    1.16071   1.19835   1.20513   1.29034   2.54259

 Mulliken charges:
               1
     1  O   -0.760846
     2  H    0.395890
     3  H    0.363190
     4  O   -0.756206
     5  H    0.381618
     6  H    0.376354
 Sum of Mulliken charges =  -0.00000

 Dipole moment (field-independent basis, Debye):
    X=             -2.2047    Y=             -4.3681    Z=              0.0000  Tot=              4.8930
 Quadrupole moment (field-independent basis, Debye-Ang):
   XX=             -9.4568   YY=             -6.9497   ZZ=            -14.9981
   XY=             -5.4807   XZ=              0.0000   YZ=             -0.0000

 53\MP4DQ=-33.8962589\MP4SDQ=-33.8983141\CCSD=-33.8993448\CCSD(T)=-33.9
 Normal termination of Gaussian 16 at Sun Dec 10 07:07:16 2023.
