 Gaussian 16, Revision A.03,
 Gaussian 16:  ES64L-G16RevA.03 25-Dec-2016

 ------------------
 #p CCSD(T)/CEP-31G
 ------------------

 -----------
 H2O_H2O_231
 -----------
 Symbolic Z-matrix:
 Charge =  0 Multiplicity = 1

                         Standard orientation:
 ---------------------------------------------------------------------
 Center     Atomic      Atomic             Coordinates (Angstroms)
 Number     Number       Type             X           Y           Z
 ---------------------------------------------------------------------
      1          8           0        0.076810   -1.193095    0.000000
      2          1           0        0.075574   -0.210494    0.000000
      3          1           0       -0.852281   -1.512930    0.000000
      4          8           0        0.076810    1.029985    0.000000
      5          1           0        0.451694    1.938262    0.000000
      6          1           0       -0.903954    1.090043    0.000000
 ---------------------------------------------------------------------

 SCF Done:  E(RHF) =  -33.6188504671     A.U. after   11 cycles
 E2 =    -0.2282974188D+00 EUMP2 =    -0.33847147885885D+02
 CCSD(T)
 CCSD(T)= -0.33862482513D+02

 The electronic state is 1-A'.
 Alpha  occ. eigenvalues --   -1.44112  -1.28860  -0.81015  -0.72790  -0.57584
 Alpha  occ. eigenvalues --   -0.56620  -0.46898  -0.43001
 Alpha virt. eigenvalues --    0.16224   0.24461   0.29420   0.59132   0.73284
 Alpha virt. eigenvalues --    0.74915   0.87741   0.90307   0.96673   1.07606
 Alpha virt. eigenvalues --    1.12837   1.22904   1.25438   1.37729   2.93095

 Mulliken charges:
               1
     1  O   -0.717841
     2  H    0.330643
     3  H    0.310022
     4  O   -0.813115
     5  H    0.488613
     6  H    0.401678
 Sum of Mulliken charges =   0.00000

 Dipole moment (field-independent basis, Debye):
    X=             -3.1524    Y=              5.0804    Z=              0.0000  Tot=              5.9789
 Quadrupole moment (field-independent basis, Debye-Ang):
   XX=            -10.3108   YY=            -10.1704   ZZ=            -14.9476
   XY=              3.0235   XZ=              0.0000   YZ=              0.0000

 7\MP4DQ=-33.8562426\MP4SDQ=-33.8586386\CCSD=-33.8593478\CCSD(T)=-33.86
 Normal termination of Gaussian 16 at Sun Dec 10 06:22:36 2023.
