 Gaussian 16, Revision A.03,
 Gaussian 16:  ES64L-G16RevA.03 25-Dec-2016

 ------------------
 #p CCSD(T)/CEP-31G
 ------------------

 -----------
 H2O_H2O_344
 -----------
 Symbolic Z-matrix:
 Charge =  0 Multiplicity = 1

                         Standard orientation:
 ---------------------------------------------------------------------
 Center     Atomic      Atomic             Coordinates (Angstroms)
 Number     Number       Type             X           Y           Z
 ---------------------------------------------------------------------
      1          8           0        0.030392    1.239709    0.000000
      2          1           0        0.025768    0.257118    0.000000
      3          1           0       -0.897591    1.562746    0.000000
      4          8           0        0.030392   -1.064242   -0.000000
      5          1           0        0.959350   -1.384464   -0.000000
      6          1           0       -0.573793   -1.839140   -0.000000
 ---------------------------------------------------------------------

 SCF Done:  E(RHF) =  -33.6411823417     A.U. after   11 cycles
 E2 =    -0.2281776311D+00 EUMP2 =    -0.33869359972785D+02
 CCSD(T)
 CCSD(T)= -0.33884561454D+02

 The electronic state is 1-A'.
 Alpha  occ. eigenvalues --   -1.42530  -1.28305  -0.78078  -0.73115  -0.57339
 Alpha  occ. eigenvalues --   -0.56742  -0.46523  -0.42653
 Alpha virt. eigenvalues --    0.16952   0.26091   0.29117   0.58357   0.73628
 Alpha virt. eigenvalues --    0.74159   0.87099   0.90340   0.94049   1.00944
 Alpha virt. eigenvalues --    1.15133   1.19228   1.26932   1.36527   2.79425

 Mulliken charges:
               1
     1  O   -0.765600
     2  H    0.381360
     3  H    0.330091
     4  O   -0.831957
     5  H    0.430474
     6  H    0.455632
 Sum of Mulliken charges =  -0.00000

 Dipole moment (field-independent basis, Debye):
    X=             -1.3070    Y=             -5.2202    Z=             -0.0000  Tot=              5.3813
 Quadrupole moment (field-independent basis, Debye-Ang):
   XX=             -9.3579   YY=            -10.0489   ZZ=            -14.9892
   XY=             -3.7588   XZ=             -0.0000   YZ=              0.0000

 \MP4DQ=-33.8785314\MP4SDQ=-33.880755\CCSD=-33.8814801\CCSD(T)=-33.8845
 Normal termination of Gaussian 16 at Sun Dec 10 06:24:50 2023.
