 Gaussian 16, Revision A.03,
 Gaussian 16:  ES64L-G16RevA.03 25-Dec-2016

 ------------------
 #p CCSD(T)/CEP-31G
 ------------------

 ------------
 H2O_H2O_3398
 ------------
 Symbolic Z-matrix:
 Charge =  0 Multiplicity = 1

                         Standard orientation:
 ---------------------------------------------------------------------
 Center     Atomic      Atomic             Coordinates (Angstroms)
 Number     Number       Type             X           Y           Z
 ---------------------------------------------------------------------
      1          8           0       -0.016616    2.449717    0.000000
      2          1           0       -0.013881    1.467119    0.000000
      3          1           0        0.911987    2.770969    0.000000
      4          8           0       -0.016616   -2.286322    0.000000
      5          1           0       -0.996932   -2.353316    0.000000
      6          1           0        0.364682   -3.191926    0.000000
 ---------------------------------------------------------------------

 SCF Done:  E(RHF) =  -33.6545937457     A.U. after   11 cycles
 E2 =    -0.2282767946D+00 EUMP2 =    -0.33882870540342D+02
 CCSD(T)
 CCSD(T)= -0.33899795626D+02

 The electronic state is 1-A'.
 Alpha  occ. eigenvalues --   -1.36536  -1.34441  -0.72184  -0.70084  -0.56429
 Alpha  occ. eigenvalues --   -0.54268  -0.51147  -0.49060
 Alpha virt. eigenvalues --    0.19006   0.21776   0.29601   0.31892   0.79415
 Alpha virt. eigenvalues --    0.81435   0.82234   0.84337   0.85486   0.87588
 Alpha virt. eigenvalues --    1.16449   1.18765   1.20859   1.24176   2.56441

 Mulliken charges:
               1
     1  O   -0.752101
     2  H    0.382394
     3  H    0.369417
     4  O   -0.751112
     5  H    0.375277
     6  H    0.376124
 Sum of Mulliken charges =   0.00000

 Dipole moment (field-independent basis, Debye):
    X=              0.7588    Y=             -3.8696    Z=              0.0000  Tot=              3.9433
 Quadrupole moment (field-independent basis, Debye-Ang):
   XX=             -9.7692   YY=             -7.2396   ZZ=            -14.9940
   XY=              8.5791   XZ=              0.0000   YZ=              0.0000

 4099\MP4DQ=-33.8941621\MP4SDQ=-33.8961898\CCSD=-33.8972354\CCSD(T)=-33
 Normal termination of Gaussian 16 at Sun Dec 10 06:34:12 2023.
