 Gaussian 16, Revision A.03,
 Gaussian 16:  ES64L-G16RevA.03 25-Dec-2016

 ------------------
 #p CCSD(T)/CEP-31G
 ------------------

 ------------
 H2O_H2O_1762
 ------------
 Symbolic Z-matrix:
 Charge =  0 Multiplicity = 1

                         Standard orientation:
 ---------------------------------------------------------------------
 Center     Atomic      Atomic             Coordinates (Angstroms)
 Number     Number       Type             X           Y           Z
 ---------------------------------------------------------------------
      1          8           0        0.056030    1.809938   -0.000000
      2          1           0        0.054206    0.827338   -0.000000
      3          1           0       -0.872871    2.130328   -0.000000
      4          8           0        0.056030   -1.631079    0.000000
      5          1           0        0.749544   -2.327171    0.000000
      6          1           0       -0.827352   -2.061360    0.000000
 ---------------------------------------------------------------------

 SCF Done:  E(RHF) =  -33.6592232993     A.U. after   11 cycles
 E2 =    -0.2287293950D+00 EUMP2 =    -0.33887952694246D+02
 CCSD(T)
 CCSD(T)= -0.33904803197D+02

 The electronic state is 1-A'.
 Alpha  occ. eigenvalues --   -1.37637  -1.32819  -0.73292  -0.68513  -0.57950
 Alpha  occ. eigenvalues --   -0.52624  -0.52307  -0.47467
 Alpha virt. eigenvalues --    0.17978   0.24469   0.28783   0.36740   0.77802
 Alpha virt. eigenvalues --    0.81963   0.83492   0.85821   0.90079   0.93546
 Alpha virt. eigenvalues --    1.15428   1.19992   1.20593   1.33798   2.50503

 Mulliken charges:
               1
     1  O   -0.772605
     2  H    0.413523
     3  H    0.357042
     4  O   -0.769472
     5  H    0.391474
     6  H    0.380037
 Sum of Mulliken charges =   0.00000

 Dipole moment (field-independent basis, Debye):
    X=             -2.5130    Y=             -4.4542    Z=              0.0000  Tot=              5.1142
 Quadrupole moment (field-independent basis, Debye-Ang):
   XX=             -9.5761   YY=             -7.7714   ZZ=            -15.0036
   XY=             -4.5831   XZ=              0.0000   YZ=             -0.0000

 68\MP4DQ=-33.8990603\MP4SDQ=-33.9011447\CCSD=-33.9021615\CCSD(T)=-33.9
 Normal termination of Gaussian 16 at Sun Dec 10 06:52:09 2023.
