 Gaussian 16, Revision A.03,
 Gaussian 16:  ES64L-G16RevA.03 25-Dec-2016

 ------------------
 #p CCSD(T)/CEP-31G
 ------------------

 ------------
 H2O_H2O_2858
 ------------
 Symbolic Z-matrix:
 Charge =  0 Multiplicity = 1

                         Standard orientation:
 ---------------------------------------------------------------------
 Center     Atomic      Atomic             Coordinates (Angstroms)
 Number     Number       Type             X           Y           Z
 ---------------------------------------------------------------------
      1          8           0        0.070202    2.244016    0.000000
      2          1           0        0.069308    1.261415    0.000000
      3          1           0       -0.859001    2.563529   -0.000000
      4          8           0        0.070202   -2.073778    0.000000
      5          1           0        0.560728   -2.925182    0.000000
      6          1           0       -0.894267   -2.261673   -0.000000
 ---------------------------------------------------------------------

 SCF Done:  E(RHF) =  -33.6545920695     A.U. after   11 cycles
 E2 =    -0.2283876852D+00 EUMP2 =    -0.33882979754711D+02
 CCSD(T)
 CCSD(T)= -0.33899912124D+02

 The electronic state is 1-A'.
 Alpha  occ. eigenvalues --   -1.36818  -1.34133  -0.72477  -0.69735  -0.56722
 Alpha  occ. eigenvalues --   -0.53924  -0.51426  -0.48737
 Alpha virt. eigenvalues --    0.18473   0.22300   0.29297   0.32379   0.79143
 Alpha virt. eigenvalues --    0.81767   0.82832   0.84822   0.85244   0.88097
 Alpha virt. eigenvalues --    1.16154   1.19216   1.20588   1.26737   2.55771

 Mulliken charges:
               1
     1  O   -0.752413
     2  H    0.388145
     3  H    0.363330
     4  O   -0.750807
     5  H    0.380004
     6  H    0.371740
 Sum of Mulliken charges =   0.00000

 Dipole moment (field-independent basis, Debye):
    X=             -3.2017    Y=             -4.0836    Z=             -0.0000  Tot=              5.1891
 Quadrupole moment (field-independent basis, Debye-Ang):
   XX=            -10.0294   YY=             -7.1716   ZZ=            -14.9938
   XY=             -4.3969   XZ=              0.0000   YZ=             -0.0000

 5078\MP4DQ=-33.8942576\MP4SDQ=-33.8963011\CCSD=-33.8973398\CCSD(T)=-33
 Normal termination of Gaussian 16 at Sun Dec 10 06:24:26 2023.
