 Gaussian 16, Revision A.03,
 Gaussian 16:  ES64L-G16RevA.03 25-Dec-2016

 ------------------
 #p CCSD(T)/CEP-31G
 ------------------

 ------------
 H2O_H2O_3077
 ------------
 Symbolic Z-matrix:
 Charge =  0 Multiplicity = 1

                         Standard orientation:
 ---------------------------------------------------------------------
 Center     Atomic      Atomic             Coordinates (Angstroms)
 Number     Number       Type             X           Y           Z
 ---------------------------------------------------------------------
      1          8           0        0.088232   -2.319683    0.000000
      2          1           0        0.088053   -1.337082    0.000000
      3          1           0       -0.841203   -2.638518    0.000000
      4          8           0        0.088232    2.175364    0.000000
      5          1           0        0.216311    3.149583    0.000000
      6          1           0       -0.874869    1.980572    0.000000
 ---------------------------------------------------------------------

 SCF Done:  E(RHF) =  -33.6528154682     A.U. after   11 cycles
 E2 =    -0.2284040849D+00 EUMP2 =    -0.33881219553042D+02
 CCSD(T)
 CCSD(T)= -0.33898199088D+02

 The electronic state is 1-A'.
 Alpha  occ. eigenvalues --   -1.36743  -1.34737  -0.72413  -0.70333  -0.56547
 Alpha  occ. eigenvalues --   -0.54479  -0.51323  -0.49313
 Alpha virt. eigenvalues --    0.18052   0.21890   0.29337   0.31577   0.79256
 Alpha virt. eigenvalues --    0.81221   0.82413   0.84206   0.85424   0.87691
 Alpha virt. eigenvalues --    1.15943   1.18627   1.20656   1.25347   2.56121

 Mulliken charges:
               1
     1  O   -0.745393
     2  H    0.380832
     3  H    0.364151
     4  O   -0.745740
     5  H    0.378691
     6  H    0.367459
 Sum of Mulliken charges =   0.00000

 Dipole moment (field-independent basis, Debye):
    X=             -4.0364    Y=              3.4437    Z=              0.0000  Tot=              5.3058
 Quadrupole moment (field-independent basis, Debye-Ang):
   XX=            -10.9769   YY=             -8.7501   ZZ=            -14.9895
   XY=              2.8588   XZ=              0.0000   YZ=              0.0000

 13\MP4DQ=-33.8925439\MP4SDQ=-33.8945818\CCSD=-33.8956276\CCSD(T)=-33.8
 Normal termination of Gaussian 16 at Sun Dec 10 06:28:26 2023.
