 Gaussian 16, Revision A.03,
 Gaussian 16:  ES64L-G16RevA.03 25-Dec-2016

 ------------------
 #p CCSD(T)/CEP-31G
 ------------------

 -----------
 H2O_H2O_526
 -----------
 Symbolic Z-matrix:
 Charge =  0 Multiplicity = 1

                         Standard orientation:
 ---------------------------------------------------------------------
 Center     Atomic      Atomic             Coordinates (Angstroms)
 Number     Number       Type             X           Y           Z
 ---------------------------------------------------------------------
      1          8           0        0.090690   -1.299492    0.000000
      2          1           0        0.090533   -0.316891    0.000000
      3          1           0       -0.838753   -1.618306    0.000000
      4          8           0        0.090690    1.160797    0.000000
      5          1           0        0.154800    2.141304    0.000000
      6          1           0       -0.857614    0.903453    0.000000
 ---------------------------------------------------------------------

 SCF Done:  E(RHF) =  -33.6346480899     A.U. after   11 cycles
 E2 =    -0.2290667446D+00 EUMP2 =    -0.33863714834518D+02
 CCSD(T)
 CCSD(T)= -0.33880157443D+02

 The electronic state is 1-A'.
 Alpha  occ. eigenvalues --   -1.41703  -1.31802  -0.79284  -0.68663  -0.59197
 Alpha  occ. eigenvalues --   -0.55570  -0.50815  -0.46120
 Alpha virt. eigenvalues --    0.16371   0.24716   0.28174   0.51528   0.73560
 Alpha virt. eigenvalues --    0.77523   0.85812   0.87801   0.94074   1.11102
 Alpha virt. eigenvalues --    1.13359   1.24047   1.31039   1.42606   2.65148

 Mulliken charges:
               1
     1  O   -0.704321
     2  H    0.324640
     3  H    0.329593
     4  O   -0.775891
     5  H    0.454740
     6  H    0.371240
 Sum of Mulliken charges =  -0.00000

 Dipole moment (field-independent basis, Debye):
    X=             -3.9096    Y=              4.0872    Z=              0.0000  Tot=              5.6560
 Quadrupole moment (field-independent basis, Debye-Ang):
   XX=            -11.2159   YY=             -9.8404   ZZ=            -14.9697
   XY=              2.3549   XZ=              0.0000   YZ=              0.0000

 408\MP4DQ=-33.8739542\MP4SDQ=-33.8763392\CCSD=-33.8771741\CCSD(T)=-33.
 Normal termination of Gaussian 16 at Sun Dec 10 06:28:25 2023.
