 Gaussian 16, Revision A.03,
 Gaussian 16:  ES64L-G16RevA.03 25-Dec-2016

 ------------------
 #p CCSD(T)/CEP-31G
 ------------------

 ------------
 H2O_H2O_2576
 ------------
 Symbolic Z-matrix:
 Charge =  0 Multiplicity = 1

                         Standard orientation:
 ---------------------------------------------------------------------
 Center     Atomic      Atomic             Coordinates (Angstroms)
 Number     Number       Type             X           Y           Z
 ---------------------------------------------------------------------
      1          8           0        0.090685   -2.117196    0.000000
      2          1           0        0.090591   -1.134595    0.000000
      3          1           0       -0.838777   -2.435952    0.000000
      4          8           0        0.090685    1.978489    0.000000
      5          1           0        0.154856    2.958994    0.000000
      6          1           0       -0.857636    1.721206    0.000000
 ---------------------------------------------------------------------

 SCF Done:  E(RHF) =  -33.6528929910     A.U. after   11 cycles
 E2 =    -0.2285311800D+00 EUMP2 =    -0.33881424170997D+02
 CCSD(T)
 CCSD(T)= -0.33898422752D+02

 The electronic state is 1-A'.
 Alpha  occ. eigenvalues --   -1.37028  -1.34663  -0.72726  -0.70236  -0.56845
 Alpha  occ. eigenvalues --   -0.54391  -0.51604  -0.49233
 Alpha virt. eigenvalues --    0.17134   0.22590   0.29079   0.32148   0.78936
 Alpha virt. eigenvalues --    0.81366   0.82809   0.84327   0.86680   0.87846
 Alpha virt. eigenvalues --    1.15543   1.18812   1.20493   1.29812   2.56010

 Mulliken charges:
               1
     1  O   -0.746434
     2  H    0.383237
     3  H    0.362258
     4  O   -0.746357
     5  H    0.381290
     6  H    0.366006
 Sum of Mulliken charges =  -0.00000

 Dipole moment (field-independent basis, Debye):
    X=             -4.1357    Y=              3.3486    Z=              0.0000  Tot=              5.3214
 Quadrupole moment (field-independent basis, Debye-Ang):
   XX=            -11.1460   YY=             -9.1949   ZZ=            -14.9888
   XY=              2.5502   XZ=              0.0000   YZ=              0.0000

 78\MP4DQ=-33.8927367\MP4SDQ=-33.8947954\CCSD=-33.8958333\CCSD(T)=-33.8
 Normal termination of Gaussian 16 at Sun Dec 10 06:19:23 2023.
