 Gaussian 16, Revision A.03,
 Gaussian 16:  ES64L-G16RevA.03 25-Dec-2016

 ------------------
 #p CCSD(T)/CEP-31G
 ------------------

 ------------
 H2O_H2O_1345
 ------------
 Symbolic Z-matrix:
 Charge =  0 Multiplicity = 1

                         Standard orientation:
 ---------------------------------------------------------------------
 Center     Atomic      Atomic             Coordinates (Angstroms)
 Number     Number       Type             X           Y           Z
 ---------------------------------------------------------------------
      1          8           0        0.026757    1.637329    0.000000
      2          1           0        0.023129    0.654734    0.000000
      3          1           0       -0.901553    1.959425    0.000000
      4          8           0        0.026757   -1.464166    0.000000
      5          1           0        0.974932   -1.721984    0.000000
      6          1           0       -0.524628   -2.277479    0.000000
 ---------------------------------------------------------------------

 SCF Done:  E(RHF) =  -33.6621541563     A.U. after   11 cycles
 E2 =    -0.2287994757D+00 EUMP2 =    -0.33890953631947D+02
 CCSD(T)
 CCSD(T)= -0.33907677809D+02

 The electronic state is 1-A'.
 Alpha  occ. eigenvalues --   -1.38187  -1.32119  -0.73878  -0.68155  -0.58759
 Alpha  occ. eigenvalues --   -0.52895  -0.51880  -0.46807
 Alpha virt. eigenvalues --    0.17825   0.25625   0.28435   0.40610   0.76637
 Alpha virt. eigenvalues --    0.79566   0.84846   0.86425   0.90675   1.02852
 Alpha virt. eigenvalues --    1.15422   1.18337   1.22014   1.35502   2.50367

 Mulliken charges:
               1
     1  O   -0.784074
     2  H    0.422387
     3  H    0.359037
     4  O   -0.791119
     5  H    0.392452
     6  H    0.401316
 Sum of Mulliken charges =  -0.00000

 Dipole moment (field-independent basis, Debye):
    X=             -1.1963    Y=             -4.4264    Z=              0.0000  Tot=              4.5852
 Quadrupole moment (field-independent basis, Debye-Ang):
   XX=             -9.4929   YY=             -8.3721   ZZ=            -15.0116
   XY=             -5.2068   XZ=              0.0000   YZ=              0.0000

 63\MP4DQ=-33.9018813\MP4SDQ=-33.9039848\CCSD=-33.9049762\CCSD(T)=-33.9
 Normal termination of Gaussian 16 at Sun Dec 10 06:43:59 2023.
