 Gaussian 16, Revision A.03,
 Gaussian 16:  ES64L-G16RevA.03 25-Dec-2016

 ------------------
 #p CCSD(T)/CEP-31G
 ------------------

 ------------
 H2O_H2O_4007
 ------------
 Symbolic Z-matrix:
 Charge =  0 Multiplicity = 1

                         Standard orientation:
 ---------------------------------------------------------------------
 Center     Atomic      Atomic             Coordinates (Angstroms)
 Number     Number       Type             X           Y           Z
 ---------------------------------------------------------------------
      1          8           0        0.073527    2.700941   -0.000000
      2          1           0        0.072898    1.718340   -0.000000
      3          1           0       -0.855761    3.020203   -0.000000
      4          8           0        0.073527   -2.533985    0.000000
      5          1           0        0.507556   -3.415532    0.000000
      6          1           0       -0.901133   -2.658660    0.000000
 ---------------------------------------------------------------------

 SCF Done:  E(RHF) =  -33.6530499063     A.U. after   11 cycles
 E2 =    -0.2283203355D+00 EUMP2 =    -0.33881370241735D+02
 CCSD(T)
 CCSD(T)= -0.33898335011D+02

 The electronic state is 1-A'.
 Alpha  occ. eigenvalues --   -1.36389  -1.34688  -0.72036  -0.70306  -0.56199
 Alpha  occ. eigenvalues --   -0.54455  -0.50977  -0.49276
 Alpha virt. eigenvalues --    0.19358   0.21263   0.29683   0.31510   0.79584
 Alpha virt. eigenvalues --    0.81244   0.82425   0.84258   0.85580   0.87444
 Alpha virt. eigenvalues --    1.16565   1.18289   1.20985   1.22951   2.56525

 Mulliken charges:
               1
     1  O   -0.746091
     2  H    0.379536
     3  H    0.366503
     4  O   -0.745972
     5  H    0.375742
     6  H    0.370282
 Sum of Mulliken charges =  -0.00000

 Dipole moment (field-independent basis, Debye):
    X=             -3.3743    Y=             -3.9330    Z=              0.0000  Tot=              5.1821
 Quadrupole moment (field-independent basis, Debye-Ang):
   XX=            -10.1675   YY=             -6.6309   ZZ=            -14.9909
   XY=             -4.5675   XZ=              0.0000   YZ=             -0.0000

 523\MP4DQ=-33.892698\MP4SDQ=-33.8947237\CCSD=-33.8957754\CCSD(T)=-33.8
 Normal termination of Gaussian 16 at Sun Dec 10 06:45:07 2023.
