 Gaussian 16, Revision A.03,
 Gaussian 16:  ES64L-G16RevA.03 25-Dec-2016

 ------------------
 #p CCSD(T)/CEP-31G
 ------------------

 ------------
 H2O_H2O_1060
 ------------
 Symbolic Z-matrix:
 Charge =  0 Multiplicity = 1

                         Standard orientation:
 ---------------------------------------------------------------------
 Center     Atomic      Atomic             Coordinates (Angstroms)
 Number     Number       Type             X           Y           Z
 ---------------------------------------------------------------------
      1          8           0        0.063293    1.528859    0.000000
      2          1           0        0.061543    0.546260    0.000000
      3          1           0       -0.865631    1.849181    0.000000
      4          8           0        0.063293   -1.353434    0.000000
      5          1           0        0.660074   -2.134047    0.000000
      6          1           0       -0.868672   -1.664798    0.000000
 ---------------------------------------------------------------------

 SCF Done:  E(RHF) =  -33.6610443623     A.U. after   11 cycles
 E2 =    -0.2290876069D+00 EUMP2 =    -0.33890131969204D+02
 CCSD(T)
 CCSD(T)= -0.33906705436D+02

 The electronic state is 1-A'.
 Alpha  occ. eigenvalues --   -1.38875  -1.31568  -0.74557  -0.68244  -0.59145
 Alpha  occ. eigenvalues --   -0.53566  -0.51114  -0.46174
 Alpha virt. eigenvalues --    0.17448   0.26175   0.27880   0.44213   0.75656
 Alpha virt. eigenvalues --    0.77985   0.85357   0.86072   0.94205   1.04405
 Alpha virt. eigenvalues --    1.15207   1.18507   1.21949   1.35810   2.52159

 Mulliken charges:
               1
     1  O   -0.777832
     2  H    0.430946
     3  H    0.344990
     4  O   -0.803957
     5  H    0.418105
     6  H    0.387748
 Sum of Mulliken charges =  -0.00000

 Dipole moment (field-independent basis, Debye):
    X=             -2.7668    Y=             -4.6022    Z=              0.0000  Tot=              5.3698
 Quadrupole moment (field-independent basis, Debye-Ang):
   XX=             -9.7619   YY=             -8.7205   ZZ=            -15.0121
   XY=             -3.8913   XZ=              0.0000   YZ=              0.0000

 76\MP4DQ=-33.9008394\MP4SDQ=-33.9029734\CCSD=-33.9039275\CCSD(T)=-33.9
 Normal termination of Gaussian 16 at Sun Dec 10 06:38:27 2023.
