 Gaussian 16, Revision A.03,
 Gaussian 16:  ES64L-G16RevA.03 25-Dec-2016

 ------------------
 #p CCSD(T)/CEP-31G
 ------------------

 ------------
 H2O_H2O_4871
 ------------
 Symbolic Z-matrix:
 Charge =  0 Multiplicity = 1

                         Standard orientation:
 ---------------------------------------------------------------------
 Center     Atomic      Atomic             Coordinates (Angstroms)
 Number     Number       Type             X           Y           Z
 ---------------------------------------------------------------------
      1          8           0       -0.023156    3.041871    0.000000
      2          1           0       -0.021154    2.059272    0.000000
      3          1           0        0.905686    3.362430    0.000000
      4          8           0       -0.023156   -2.871455    0.000000
      5          1           0       -0.986485   -3.065114    0.000000
      6          1           0        0.472452   -3.719912    0.000000
 ---------------------------------------------------------------------

 SCF Done:  E(RHF) =  -33.6531870630     A.U. after   11 cycles
 E2 =    -0.2283001440D+00 EUMP2 =    -0.33881487206987D+02
 CCSD(T)
 CCSD(T)= -0.33898448731D+02

 The electronic state is 1-A'.
 Alpha  occ. eigenvalues --   -1.36185  -1.34834  -0.71824  -0.70470  -0.55997
 Alpha  occ. eigenvalues --   -0.54618  -0.50777  -0.49430
 Alpha virt. eigenvalues --    0.19661   0.21044   0.29914   0.31320   0.79773
 Alpha virt. eigenvalues --    0.81093   0.82657   0.84079   0.85819   0.87175
 Alpha virt. eigenvalues --    1.16778   1.18131   1.21222   1.22610   2.56754

 Mulliken charges:
               1
     1  O   -0.746552
     2  H    0.376853
     3  H    0.369696
     4  O   -0.746156
     5  H    0.373206
     6  H    0.372953
 Sum of Mulliken charges =  -0.00000

 Dipole moment (field-independent basis, Debye):
    X=              1.0643    Y=             -3.9866    Z=              0.0000  Tot=              4.1262
 Quadrupole moment (field-independent basis, Debye-Ang):
   XX=             -9.5993   YY=             -5.7131   ZZ=            -14.9914
   XY=              9.9479   XZ=              0.0000   YZ=              0.0000

 0676\MP4DQ=-33.8928145\MP4SDQ=-33.8948385\CCSD=-33.8958914\CCSD(T)=-33
 Normal termination of Gaussian 16 at Sun Dec 10 07:00:56 2023.
