 Gaussian 16, Revision A.03,
 Gaussian 16:  ES64L-G16RevA.03 25-Dec-2016

 ------------------
 #p CCSD(T)/CEP-31G
 ------------------

 ------------
 H2O_H2O_3762
 ------------
 Symbolic Z-matrix:
 Charge =  0 Multiplicity = 1

                         Standard orientation:
 ---------------------------------------------------------------------
 Center     Atomic      Atomic             Coordinates (Angstroms)
 Number     Number       Type             X           Y           Z
 ---------------------------------------------------------------------
      1          8           0        0.055977    2.607724    0.000000
      2          1           0        0.054731    1.625124    0.000000
      3          1           0       -0.873111    2.927569    0.000000
      4          8           0        0.055977   -2.428800   -0.000000
      5          1           0        0.749900   -3.124484   -0.000000
      6          1           0       -0.827152   -2.859600   -0.000000
 ---------------------------------------------------------------------

 SCF Done:  E(RHF) =  -33.6538304726     A.U. after   11 cycles
 E2 =    -0.2282978426D+00 EUMP2 =    -0.33882128315204D+02
 CCSD(T)
 CCSD(T)= -0.33899070369D+02

 The electronic state is 1-A'.
 Alpha  occ. eigenvalues --   -1.36439  -1.34428  -0.72082  -0.70050  -0.56293
 Alpha  occ. eigenvalues --   -0.54220  -0.51039  -0.49029
 Alpha virt. eigenvalues --    0.19334   0.21582   0.29686   0.31827   0.79522
 Alpha virt. eigenvalues --    0.81475   0.82292   0.84503   0.85519   0.87640
 Alpha virt. eigenvalues --    1.16551   1.18608   1.20978   1.23364   2.56517

 Mulliken charges:
               1
     1  O   -0.749086
     2  H    0.382334
     3  H    0.366618
     4  O   -0.748298
     5  H    0.376190
     6  H    0.372242
 Sum of Mulliken charges =   0.00000

 Dipole moment (field-independent basis, Debye):
    X=             -2.5642    Y=             -4.2241    Z=             -0.0000  Tot=              4.9415
 Quadrupole moment (field-independent basis, Debye-Ang):
   XX=             -9.5846   YY=             -5.8864   ZZ=            -14.9927
   XY=             -5.9601   XZ=              0.0000   YZ=             -0.0000

 6884\MP4DQ=-33.8934376\MP4SDQ=-33.895463\CCSD=-33.896512\CCSD(T)=-33.8
 Normal termination of Gaussian 16 at Sun Dec 10 06:40:42 2023.
