 Gaussian 16, Revision A.03,
 Gaussian 16:  ES64L-G16RevA.03 25-Dec-2016

 ------------------
 #p CCSD(T)/CEP-31G
 ------------------

 ----------
 H2O_H2O_51
 ----------
 Symbolic Z-matrix:
 Charge =  0 Multiplicity = 1

                         Standard orientation:
 ---------------------------------------------------------------------
 Center     Atomic      Atomic             Coordinates (Angstroms)
 Number     Number       Type             X           Y           Z
 ---------------------------------------------------------------------
      1          8           0        0.090692   -1.110022    0.000000
      2          1           0        0.090507   -0.127421    0.000000
      3          1           0       -0.838741   -1.428864    0.000000
      4          8           0        0.090692    0.971333    0.000000
      5          1           0        0.154772    1.951842    0.000000
      6          1           0       -0.857605    0.713961    0.000000
 ---------------------------------------------------------------------

 SCF Done:  E(RHF) =  -33.5595857962     A.U. after   11 cycles
 E2 =    -0.2283458930D+00 EUMP2 =    -0.33787931689243D+02
 CCSD(T)
 CCSD(T)= -0.33803208057D+02

 The electronic state is 1-A'.
 Alpha  occ. eigenvalues --   -1.48035  -1.29194  -0.86242  -0.71893  -0.59231
 Alpha  occ. eigenvalues --   -0.56063  -0.46799  -0.43187
 Alpha virt. eigenvalues --    0.15887   0.22436   0.30204   0.60286   0.72893
 Alpha virt. eigenvalues --    0.75764   0.90378   0.90446   0.96425   1.09224
 Alpha virt. eigenvalues --    1.10882   1.20952   1.27656   1.51897   3.00047

 Mulliken charges:
               1
     1  O   -0.650936
     2  H    0.158911
     3  H    0.300477
     4  O   -0.689073
     5  H    0.497110
     6  H    0.383511
 Sum of Mulliken charges =   0.00000

 Dipole moment (field-independent basis, Debye):
    X=             -3.7307    Y=              4.7811    Z=              0.0000  Tot=              6.0644
 Quadrupole moment (field-independent basis, Debye-Ang):
   XX=            -11.1531   YY=            -10.6394   ZZ=            -14.8641
   XY=              2.2112   XZ=              0.0000   YZ=              0.0000

 \MP4DQ=-33.7966324\MP4SDQ=-33.799293\CCSD=-33.7998866\CCSD(T)=-33.8032
 Normal termination of Gaussian 16 at Sun Dec 10 06:19:01 2023.
