 Gaussian 16, Revision A.03,
 Gaussian 16:  ES64L-G16RevA.03 25-Dec-2016

 ------------------
 #p CCSD(T)/CEP-31G
 ------------------

 ------------
 H2O_H2O_2875
 ------------
 Symbolic Z-matrix:
 Charge =  0 Multiplicity = 1

                         Standard orientation:
 ---------------------------------------------------------------------
 Center     Atomic      Atomic             Coordinates (Angstroms)
 Number     Number       Type             X           Y           Z
 ---------------------------------------------------------------------
      1          8           0        0.092949   -2.233644    0.000000
      2          1           0        0.092949   -1.251042    0.000000
      3          1           0       -0.836544   -2.552310    0.000000
      4          8           0        0.092949    2.100857    0.000000
      5          1           0        0.092950    3.083459    0.000000
      6          1           0       -0.836544    1.782190    0.000000
 ---------------------------------------------------------------------

 SCF Done:  E(RHF) =  -33.6523567338     A.U. after   11 cycles
 E2 =    -0.2284642366D+00 EUMP2 =    -0.33880820970337D+02
 CCSD(T)
 CCSD(T)= -0.33897820637D+02

 The electronic state is 1-A'.
 Alpha  occ. eigenvalues --   -1.36859  -1.34889  -0.72543  -0.70474  -0.56643
 Alpha  occ. eigenvalues --   -0.54612  -0.51430  -0.49455
 Alpha virt. eigenvalues --    0.17341   0.22171   0.29192   0.31672   0.79145
 Alpha virt. eigenvalues --    0.81106   0.82545   0.84059   0.85706   0.87612
 Alpha virt. eigenvalues --    1.15606   1.18577   1.20557   1.26894   2.55852

 Mulliken charges:
               1
     1  O   -0.743827
     2  H    0.379586
     3  H    0.363749
     4  O   -0.744343
     5  H    0.379379
     6  H    0.365456
 Sum of Mulliken charges =  -0.00000

 Dipole moment (field-independent basis, Debye):
    X=             -4.2491    Y=              3.1807    Z=              0.0000  Tot=              5.3077
 Quadrupole moment (field-independent basis, Debye-Ang):
   XX=            -11.2970   YY=             -9.5850   ZZ=            -14.9879
   XY=              2.2941   XZ=              0.0000   YZ=              0.0000

 \MP4DQ=-33.8921529\MP4SDQ=-33.8941979\CCSD=-33.8952418\CCSD(T)=-33.897
 Normal termination of Gaussian 16 at Sun Dec 10 06:24:45 2023.
