 Gaussian 16, Revision A.03,
 Gaussian 16:  ES64L-G16RevA.03 25-Dec-2016

 ------------------
 #p CCSD(T)/CEP-31G
 ------------------

 ------------
 H2O_H2O_2036
 ------------
 Symbolic Z-matrix:
 Charge =  0 Multiplicity = 1

                         Standard orientation:
 ---------------------------------------------------------------------
 Center     Atomic      Atomic             Coordinates (Angstroms)
 Number     Number       Type             X           Y           Z
 ---------------------------------------------------------------------
      1          8           0        0.059668    1.918840    0.000000
      2          1           0        0.058123    0.936240    0.000000
      3          1           0       -0.869323    2.238967    0.000000
      4          8           0        0.059668   -1.741431    0.000000
      5          1           0        0.706379   -2.481208    0.000000
      6          1           0       -0.849860   -2.113273    0.000000
 ---------------------------------------------------------------------

 SCF Done:  E(RHF) =  -33.6576785130     A.U. after   11 cycles
 E2 =    -0.2286032548D+00 EUMP2 =    -0.33886281767804D+02
 CCSD(T)
 CCSD(T)= -0.33903174064D+02

 The electronic state is 1-A'.
 Alpha  occ. eigenvalues --   -1.37368  -1.33236  -0.73029  -0.68864  -0.57527
 Alpha  occ. eigenvalues --   -0.53052  -0.52017  -0.47872
 Alpha virt. eigenvalues --    0.18057   0.23816   0.28964   0.34938   0.78328
 Alpha virt. eigenvalues --    0.82838   0.83030   0.85599   0.89138   0.89865
 Alpha virt. eigenvalues --    1.15679   1.20151   1.20277   1.32774   2.52027

 Mulliken charges:
               1
     1  O   -0.766170
     2  H    0.404795
     3  H    0.359151
     4  O   -0.761635
     5  H    0.387137
     6  H    0.376722
 Sum of Mulliken charges =  -0.00000

 Dipole moment (field-independent basis, Debye):
    X=             -2.6924    Y=             -4.3665    Z=              0.0000  Tot=              5.1298
 Quadrupole moment (field-independent basis, Debye-Ang):
   XX=             -9.6706   YY=             -7.5243   ZZ=            -15.0001
   XY=             -4.5993   XZ=              0.0000   YZ=              0.0000

 7164\MP4DQ=-33.8974598\MP4SDQ=-33.899536\CCSD=-33.9005606\CCSD(T)=-33.
 Normal termination of Gaussian 16 at Sun Dec 10 06:57:18 2023.
