 Gaussian 16, Revision A.03,
 Gaussian 16:  ES64L-G16RevA.03 25-Dec-2016

 ------------------
 #p CCSD(T)/CEP-31G
 ------------------

 ------------
 H2O_H2O_3531
 ------------
 Symbolic Z-matrix:
 Charge =  0 Multiplicity = 1

                         Standard orientation:
 ---------------------------------------------------------------------
 Center     Atomic      Atomic             Coordinates (Angstroms)
 Number     Number       Type             X           Y           Z
 ---------------------------------------------------------------------
      1          8           0        0.076755    2.509442   -0.000000
      2          1           0        0.076189    1.526841   -0.000000
      3          1           0       -0.852554    2.828644    0.000000
      4          8           0        0.076755   -2.346227   -0.000000
      5          1           0        0.452258   -3.254249   -0.000000
      6          1           0       -0.903969   -2.406954    0.000000
 ---------------------------------------------------------------------

 SCF Done:  E(RHF) =  -33.6532880394     A.U. after   11 cycles
 E2 =    -0.2283335108D+00 EUMP2 =    -0.33881621550105D+02
 CCSD(T)
 CCSD(T)= -0.33898580466D+02

 The electronic state is 1-A'.
 Alpha  occ. eigenvalues --   -1.36537  -1.34583  -0.72189  -0.70193  -0.56362
 Alpha  occ. eigenvalues --   -0.54350  -0.51127  -0.49171
 Alpha virt. eigenvalues --    0.19015   0.21526   0.29526   0.31675   0.79443
 Alpha virt. eigenvalues --    0.81343   0.82285   0.84371   0.85407   0.87642
 Alpha virt. eigenvalues --    1.16403   1.18501   1.20814   1.23657   2.56404

 Mulliken charges:
               1
     1  O   -0.747035
     2  H    0.381443
     3  H    0.365397
     4  O   -0.746929
     5  H    0.377129
     6  H    0.369994
 Sum of Mulliken charges =  -0.00000

 Dipole moment (field-independent basis, Debye):
    X=             -3.5162    Y=             -3.8661    Z=              0.0000  Tot=              5.2259
 Quadrupole moment (field-independent basis, Debye-Ang):
   XX=            -10.3213   YY=             -7.2086   ZZ=            -14.9913
   XY=             -4.1018   XZ=             -0.0000   YZ=              0.0000

 943\MP4DQ=-33.8929406\MP4SDQ=-33.8949693\CCSD=-33.8960182\CCSD(T)=-33.
 Normal termination of Gaussian 16 at Sun Dec 10 06:36:33 2023.
