 Gaussian 16, Revision A.03,
 Gaussian 16:  ES64L-G16RevA.03 25-Dec-2016

 ------------------
 #p CCSD(T)/CEP-31G
 ------------------

 ------------
 H2O_H2O_1326
 ------------
 Symbolic Z-matrix:
 Charge =  0 Multiplicity = 1

                         Standard orientation:
 ---------------------------------------------------------------------
 Center     Atomic      Atomic             Coordinates (Angstroms)
 Number     Number       Type             X           Y           Z
 ---------------------------------------------------------------------
      1          8           0        0.090687   -1.618597    0.000000
      2          1           0        0.090563   -0.635995    0.000000
      3          1           0       -0.838765   -1.937381    0.000000
      4          8           0        0.090687    1.479896    0.000000
      5          1           0        0.154829    2.460402    0.000000
      6          1           0       -0.857625    1.222583    0.000000
 ---------------------------------------------------------------------

 SCF Done:  E(RHF) =  -33.6532010800     A.U. after   11 cycles
 E2 =    -0.2291757702D+00 EUMP2 =    -0.33882376850208D+02
 CCSD(T)
 CCSD(T)= -0.33899421731D+02

 The electronic state is 1-A'.
 Alpha  occ. eigenvalues --   -1.38459  -1.33728  -0.74578  -0.69169  -0.58374
 Alpha  occ. eigenvalues --   -0.53331  -0.52982  -0.48253
 Alpha virt. eigenvalues --    0.16660   0.24719   0.27986   0.38980   0.76323
 Alpha virt. eigenvalues --    0.80754   0.83883   0.84704   0.89628   1.09705
 Alpha virt. eigenvalues --    1.15887   1.17619   1.22206   1.39867   2.50546

 Mulliken charges:
               1
     1  O   -0.750672
     2  H    0.392209
     3  H    0.350901
     4  O   -0.762441
     5  H    0.404850
     6  H    0.365153
 Sum of Mulliken charges =  -0.00000

 Dipole moment (field-independent basis, Debye):
    X=             -4.0578    Y=              3.5854    Z=              0.0000  Tot=              5.4149
 Quadrupole moment (field-independent basis, Debye-Ang):
   XX=            -11.1857   YY=             -9.3635   ZZ=            -14.9896
   XY=              2.4638   XZ=              0.0000   YZ=              0.0000

 243\MP4DQ=-33.8935192\MP4SDQ=-33.8957064\CCSD=-33.8966998\CCSD(T)=-33.
 Normal termination of Gaussian 16 at Sun Dec 10 06:43:37 2023.
