 Gaussian 16, Revision A.03,
 Gaussian 16:  ES64L-G16RevA.03 25-Dec-2016

 ------------------
 #p CCSD(T)/CEP-31G
 ------------------

 ------------
 H2O_H2O_3547
 ------------
 Symbolic Z-matrix:
 Charge =  0 Multiplicity = 1

                         Standard orientation:
 ---------------------------------------------------------------------
 Center     Atomic      Atomic             Coordinates (Angstroms)
 Number     Number       Type             X           Y           Z
 ---------------------------------------------------------------------
      1          8           0       -0.019845    2.511566    0.000000
      2          1           0       -0.017291    1.528968    0.000000
      3          1           0        0.908816    2.832648    0.000000
      4          8           0       -0.019845   -2.344455    0.000000
      5          1           0       -0.993705   -2.475242    0.000000
      6          1           0        0.419704   -3.223262    0.000000
 ---------------------------------------------------------------------

 SCF Done:  E(RHF) =  -33.6544190044     A.U. after   11 cycles
 E2 =    -0.2282742529D+00 EUMP2 =    -0.33882693257284D+02
 CCSD(T)
 CCSD(T)= -0.33899621694D+02

 The electronic state is 1-A'.
 Alpha  occ. eigenvalues --   -1.36485  -1.34455  -0.72131  -0.70095  -0.56369
 Alpha  occ. eigenvalues --   -0.54276  -0.51095  -0.49071
 Alpha virt. eigenvalues --    0.19173   0.21668   0.29647   0.31854   0.79466
 Alpha virt. eigenvalues --    0.81426   0.82234   0.84370   0.85494   0.87563
 Alpha virt. eigenvalues --    1.16513   1.18678   1.20907   1.23773   2.56481

 Mulliken charges:
               1
     1  O   -0.751389
     2  H    0.382032
     3  H    0.369147
     4  O   -0.750439
     5  H    0.375180
     6  H    0.375468
 Sum of Mulliken charges =  -0.00000

 Dipole moment (field-independent basis, Debye):
    X=              0.9072    Y=             -3.9504    Z=              0.0000  Tot=              4.0532
 Quadrupole moment (field-independent basis, Debye-Ang):
   XX=             -9.6766   YY=             -6.8869   ZZ=            -14.9938
   XY=              8.5129   XZ=              0.0000   YZ=              0.0000

 2\MP4DQ=-33.8939899\MP4SDQ=-33.8960159\CCSD=-33.8970629\CCSD(T)=-33.89
 Normal termination of Gaussian 16 at Sun Dec 10 06:36:50 2023.
