 Gaussian 16, Revision A.03,
 Gaussian 16:  ES64L-G16RevA.03 25-Dec-2016

 ------------------
 #p CCSD(T)/CEP-31G
 ------------------

 ------------
 H2O_H2O_1532
 ------------
 Symbolic Z-matrix:
 Charge =  0 Multiplicity = 1

                         Standard orientation:
 ---------------------------------------------------------------------
 Center     Atomic      Atomic             Coordinates (Angstroms)
 Number     Number       Type             X           Y           Z
 ---------------------------------------------------------------------
      1          8           0        0.073560    1.713691    0.000000
      2          1           0        0.072549    0.731090    0.000000
      3          1           0       -0.855605    2.033314    0.000000
      4          8           0        0.073560   -1.546792    0.000000
      5          1           0        0.507247   -2.428507    0.000000
      6          1           0       -0.901149   -1.671090    0.000000
 ---------------------------------------------------------------------

 SCF Done:  E(RHF) =  -33.6580492529     A.U. after   11 cycles
 E2 =    -0.2288787164D+00 EUMP2 =    -0.33886927969335D+02
 CCSD(T)
 CCSD(T)= -0.33903830926D+02

 The electronic state is 1-A'.
 Alpha  occ. eigenvalues --   -1.37984  -1.32924  -0.73727  -0.68628  -0.58227
 Alpha  occ. eigenvalues --   -0.52641  -0.52620  -0.47534
 Alpha virt. eigenvalues --    0.17491   0.24754   0.28401   0.38035   0.77167
 Alpha virt. eigenvalues --    0.81008   0.83860   0.85362   0.90492   1.01208
 Alpha virt. eigenvalues --    1.15018   1.18706   1.21141   1.36893   2.50291

 Mulliken charges:
               1
     1  O   -0.768358
     2  H    0.413136
     3  H    0.352741
     4  O   -0.773715
     5  H    0.400544
     6  H    0.375652
 Sum of Mulliken charges =   0.00000

 Dipole moment (field-independent basis, Debye):
    X=             -3.2895    Y=             -4.2252    Z=              0.0000  Tot=              5.3547
 Quadrupole moment (field-independent basis, Debye-Ang):
   XX=            -10.1832   YY=             -8.3358   ZZ=            -15.0009
   XY=             -3.6718   XZ=              0.0000   YZ=              0.0000

 09\MP4DQ=-33.8980276\MP4SDQ=-33.9001458\CCSD=-33.9011567\CCSD(T)=-33.9
 Normal termination of Gaussian 16 at Sun Dec 10 06:47:43 2023.
