 Gaussian 16, Revision A.03,
 Gaussian 16:  ES64L-G16RevA.03 25-Dec-2016

 ------------------
 #p CCSD(T)/CEP-31G
 ------------------

 -----------
 H2O_H2O_739
 -----------
 Symbolic Z-matrix:
 Charge =  0 Multiplicity = 1

                         Standard orientation:
 ---------------------------------------------------------------------
 Center     Atomic      Atomic             Coordinates (Angstroms)
 Number     Number       Type             X           Y           Z
 ---------------------------------------------------------------------
      1          8           0        0.048693    1.401860    0.000000
      2          1           0        0.045823    0.419263    0.000000
      3          1           0       -0.879865    1.723241    0.000000
      4          8           0        0.048693   -1.221591    0.000000
      5          1           0        0.826493   -1.822036    0.000000
      6          1           0       -0.771545   -1.762621    0.000000
 ---------------------------------------------------------------------

 SCF Done:  E(RHF) =  -33.6606956966     A.U. after   11 cycles
 E2 =    -0.2291038565D+00 EUMP2 =    -0.33889799553043D+02
 CCSD(T)
 CCSD(T)= -0.33905848269D+02

 The electronic state is 1-A'.
 Alpha  occ. eigenvalues --   -1.39923  -1.30196  -0.75326  -0.69487  -0.59067
 Alpha  occ. eigenvalues --   -0.54630  -0.49411  -0.44758
 Alpha virt. eigenvalues --    0.17316   0.27291   0.27552   0.50306   0.74598
 Alpha virt. eigenvalues --    0.75379   0.85308   0.87993   0.97657   0.98993
 Alpha virt. eigenvalues --    1.14786   1.18451   1.23437   1.36813   2.59981

 Mulliken charges:
               1
     1  O   -0.781317
     2  H    0.434761
     3  H    0.338771
     4  O   -0.826050
     5  H    0.424076
     6  H    0.409759
 Sum of Mulliken charges =   0.00000

 Dipole moment (field-independent basis, Debye):
    X=             -2.0955    Y=             -4.9034    Z=              0.0000  Tot=              5.3324
 Quadrupole moment (field-independent basis, Debye-Ang):
   XX=             -9.3978   YY=             -9.2717   ZZ=            -15.0179
   XY=             -3.9774   XZ=              0.0000   YZ=              0.0000

 824\MP4DQ=-33.8999334\MP4SDQ=-33.9020816\CCSD=-33.9029461\CCSD(T)=-33.
 Normal termination of Gaussian 16 at Sun Dec 10 06:32:25 2023.
