 Gaussian 16, Revision A.03,
 Gaussian 16:  ES64L-G16RevA.03 25-Dec-2016

 ------------------
 #p CCSD(T)/CEP-31G
 ------------------

 ------------
 H2O_H2O_1376
 ------------
 Symbolic Z-matrix:
 Charge =  0 Multiplicity = 1

                         Standard orientation:
 ---------------------------------------------------------------------
 Center     Atomic      Atomic             Coordinates (Angstroms)
 Number     Number       Type             X           Y           Z
 ---------------------------------------------------------------------
      1          8           0        0.090687   -1.638540    0.000000
      2          1           0        0.090565   -0.655939    0.000000
      3          1           0       -0.838766   -1.957323    0.000000
      4          8           0        0.090687    1.499839    0.000000
      5          1           0        0.154831    2.480346    0.000000
      6          1           0       -0.857625    1.242529    0.000000
 ---------------------------------------------------------------------

 SCF Done:  E(RHF) =  -33.6533440694     A.U. after   11 cycles
 E2 =    -0.2291520496D+00 EUMP2 =    -0.33882496118909D+02
 CCSD(T)
 CCSD(T)= -0.33899546521D+02

 The electronic state is 1-A'.
 Alpha  occ. eigenvalues --   -1.38359  -1.33794  -0.74435  -0.69237  -0.58282
 Alpha  occ. eigenvalues --   -0.53410  -0.52891  -0.48324
 Alpha virt. eigenvalues --    0.16666   0.24633   0.28043   0.38467   0.76497
 Alpha virt. eigenvalues --    0.80931   0.83692   0.84698   0.89435   1.08613
 Alpha virt. eigenvalues --    1.15868   1.17238   1.22076   1.39957   2.50715

 Mulliken charges:
               1
     1  O   -0.751305
     2  H    0.392859
     3  H    0.351669
     4  O   -0.761217
     5  H    0.402922
     6  H    0.365071
 Sum of Mulliken charges =  -0.00000

 Dipole moment (field-independent basis, Debye):
    X=             -4.0632    Y=              3.5683    Z=              0.0000  Tot=              5.4076
 Quadrupole moment (field-independent basis, Debye-Ang):
   XX=            -11.1833   YY=             -9.3514   ZZ=            -14.9896
   XY=              2.4684   XZ=              0.0000   YZ=              0.0000

 9585\MP4DQ=-33.8936571\MP4SDQ=-33.8958365\CCSD=-33.8968339\CCSD(T)=-33
 Normal termination of Gaussian 16 at Sun Dec 10 06:44:37 2023.
