 Gaussian 16, Revision A.03,
 Gaussian 16:  ES64L-G16RevA.03 25-Dec-2016

 ------------------
 #p CCSD(T)/CEP-31G
 ------------------

 -----------
 H2O_H2O_942
 -----------
 Symbolic Z-matrix:
 Charge =  0 Multiplicity = 1

                         Standard orientation:
 ---------------------------------------------------------------------
 Center     Atomic      Atomic             Coordinates (Angstroms)
 Number     Number       Type             X           Y           Z
 ---------------------------------------------------------------------
      1          8           0        0.037565    1.480874    0.000000
      2          1           0        0.034179    0.498279    0.000000
      3          1           0       -0.890825    1.802742    0.000000
      4          8           0        0.037565   -1.302010    0.000000
      5          1           0        0.917331   -1.739637    0.000000
      6          1           0       -0.661725   -1.992300    0.000000
 ---------------------------------------------------------------------

 SCF Done:  E(RHF) =  -33.6631257535     A.U. after   11 cycles
 E2 =    -0.2290173425D+00 EUMP2 =    -0.33892143095990D+02
 CCSD(T)
 CCSD(T)= -0.33908491010D+02

 The electronic state is 1-A'.
 Alpha  occ. eigenvalues --   -1.39150  -1.30892  -0.74714  -0.68389  -0.59350
 Alpha  occ. eigenvalues --   -0.53891  -0.50376  -0.45532
 Alpha virt. eigenvalues --    0.17588   0.26831   0.27837   0.46601   0.75277
 Alpha virt. eigenvalues --    0.76775   0.85865   0.86874   0.94950   1.00751
 Alpha virt. eigenvalues --    1.15344   1.18542   1.23106   1.36148   2.54261

 Mulliken charges:
               1
     1  O   -0.786666
     2  H    0.434613
     3  H    0.348225
     4  O   -0.815135
     5  H    0.407769
     6  H    0.411194
 Sum of Mulliken charges =  -0.00000

 Dipole moment (field-independent basis, Debye):
    X=             -1.6518    Y=             -4.7389    Z=              0.0000  Tot=              5.0185
 Quadrupole moment (field-independent basis, Debye-Ang):
   XX=             -9.3574   YY=             -8.8951   ZZ=            -15.0193
   XY=             -4.3893   XZ=              0.0000   YZ=              0.0000

 589\MP4DQ=-33.902633\MP4SDQ=-33.9047519\CCSD=-33.9056741\CCSD(T)=-33.9
 Normal termination of Gaussian 16 at Sun Dec 10 06:36:14 2023.
