 Gaussian 16, Revision A.03,
 Gaussian 16:  ES64L-G16RevA.03 25-Dec-2016

 ------------------
 #p CCSD(T)/CEP-31G
 ------------------

 ------------
 H2O_H2O_2151
 ------------
 Symbolic Z-matrix:
 Charge =  0 Multiplicity = 1

                         Standard orientation:
 ---------------------------------------------------------------------
 Center     Atomic      Atomic             Coordinates (Angstroms)
 Number     Number       Type             X           Y           Z
 ---------------------------------------------------------------------
      1          8           0        0.090686   -1.947672    0.000000
      2          1           0        0.090583   -0.965071    0.000000
      3          1           0       -0.838774   -2.266436    0.000000
      4          8           0        0.090686    1.808967    0.000000
      5          1           0        0.154850    2.789472    0.000000
      6          1           0       -0.857632    1.551676    0.000000
 ---------------------------------------------------------------------

 SCF Done:  E(RHF) =  -33.6532744396     A.U. after   11 cycles
 E2 =    -0.2287101660D+00 EUMP2 =    -0.33881984605578D+02
 CCSD(T)
 CCSD(T)= -0.33899008561D+02

 The electronic state is 1-A'.
 Alpha  occ. eigenvalues --   -1.37351  -1.34457  -0.73100  -0.69997  -0.57206
 Alpha  occ. eigenvalues --   -0.54170  -0.51924  -0.49022
 Alpha virt. eigenvalues --    0.16786   0.23265   0.28801   0.33340   0.78443
 Alpha virt. eigenvalues --    0.81779   0.82704   0.84501   0.87892   0.91092
 Alpha virt. eigenvalues --    1.15372   1.18640   1.20630   1.34910   2.54884

 Mulliken charges:
               1
     1  O   -0.749230
     2  H    0.387711
     3  H    0.359748
     4  O   -0.748854
     5  H    0.385213
     6  H    0.365411
 Sum of Mulliken charges =  -0.00000

 Dipole moment (field-independent basis, Debye):
    X=             -4.1187    Y=              3.3980    Z=              0.0000  Tot=              5.3395
 Quadrupole moment (field-independent basis, Debye-Ang):
   XX=            -11.1554   YY=             -9.2356   ZZ=            -14.9889
   XY=              2.5252   XZ=              0.0000   YZ=              0.0000

 5416\MP4DQ=-33.8932741\MP4SDQ=-33.8953633\CCSD=-33.8963922\CCSD(T)=-33
 Normal termination of Gaussian 16 at Sun Dec 10 06:59:34 2023.
