 Gaussian 16, Revision A.03,
 Gaussian 16:  ES64L-G16RevA.03 25-Dec-2016

 ------------------
 #p CCSD(T)/CEP-31G
 ------------------

 ------------
 H2O_H2O_1649
 ------------
 Symbolic Z-matrix:
 Charge =  0 Multiplicity = 1

                         Standard orientation:
 ---------------------------------------------------------------------
 Center     Atomic      Atomic             Coordinates (Angstroms)
 Number     Number       Type             X           Y           Z
 ---------------------------------------------------------------------
      1          8           0        0.013605   -1.749427    0.000000
      2          1           0        0.009569   -0.766834    0.000000
      3          1           0       -0.914571   -2.071908    0.000000
      4          8           0        0.013605    1.590194    0.000000
      5          1           0        0.996198    1.594230    0.000000
      6          1           0       -0.308877    2.518371    0.000000
 ---------------------------------------------------------------------

 SCF Done:  E(RHF) =  -33.6596389372     A.U. after   11 cycles
 E2 =    -0.2286438410D+00 EUMP2 =    -0.33888282778195D+02
 CCSD(T)
 CCSD(T)= -0.33905167116D+02

 The electronic state is 1-A'.
 Alpha  occ. eigenvalues --   -1.37729  -1.33086  -0.73485  -0.68817  -0.58065
 Alpha  occ. eigenvalues --   -0.52927  -0.52390  -0.47769
 Alpha virt. eigenvalues --    0.17679   0.24751   0.28754   0.37112   0.77482
 Alpha virt. eigenvalues --    0.81210   0.83464   0.86120   0.88306   1.00553
 Alpha virt. eigenvalues --    1.15729   1.18854   1.21168   1.37532   2.51823

 Mulliken charges:
               1
     1  O   -0.775630
     2  H    0.405771
     3  H    0.366406
     4  O   -0.775653
     5  H    0.384613
     6  H    0.394493
 Sum of Mulliken charges =  -0.00000

 Dipole moment (field-independent basis, Debye):
    X=             -0.6096    Y=              3.9911    Z=              0.0000  Tot=              4.0374
 Quadrupole moment (field-independent basis, Debye-Ang):
   XX=             -9.8530   YY=             -8.4626   ZZ=            -15.0038
   XY=              6.2653   XZ=              0.0000   YZ=              0.0000

 6592\MP4DQ=-33.899396\MP4SDQ=-33.9015031\CCSD=-33.9025162\CCSD(T)=-33.
 Normal termination of Gaussian 16 at Sun Dec 10 06:50:02 2023.
