 Gaussian 16, Revision A.03,
 Gaussian 16:  ES64L-G16RevA.03 25-Dec-2016

 ------------------
 #p CCSD(T)/CEP-31G
 ------------------

 ------------
 H2O_H2O_4076
 ------------
 Symbolic Z-matrix:
 Charge =  0 Multiplicity = 1

                         Standard orientation:
 ---------------------------------------------------------------------
 Center     Atomic      Atomic             Coordinates (Angstroms)
 Number     Number       Type             X           Y           Z
 ---------------------------------------------------------------------
      1          8           0        0.090684   -2.715514    0.000000
      2          1           0        0.090611   -1.732912    0.000000
      3          1           0       -0.838786   -3.034249    0.000000
      4          8           0        0.090684    2.576803    0.000000
      5          1           0        0.154877    3.557306    0.000000
      6          1           0       -0.857642    2.319541    0.000000
 ---------------------------------------------------------------------

 SCF Done:  E(RHF) =  -33.6521678308     A.U. after   11 cycles
 E2 =    -0.2283580847D+00 EUMP2 =    -0.33880525915510D+02
 CCSD(T)
 CCSD(T)= -0.33897517736D+02

 The electronic state is 1-A'.
 Alpha  occ. eigenvalues --   -1.36400  -1.35063  -0.72052  -0.70677  -0.56165
 Alpha  occ. eigenvalues --   -0.54800  -0.50975  -0.49636
 Alpha virt. eigenvalues --    0.19163   0.20936   0.29636   0.31046   0.79593
 Alpha virt. eigenvalues --    0.80903   0.82518   0.83919   0.85577   0.87159
 Alpha virt. eigenvalues --    1.16463   1.17911   1.20969   1.22507   2.56184

 Mulliken charges:
               1
     1  O   -0.742686
     2  H    0.375973
     3  H    0.366688
     4  O   -0.743106
     5  H    0.375363
     6  H    0.367767
 Sum of Mulliken charges =  -0.00000

 Dipole moment (field-independent basis, Debye):
    X=             -4.1668    Y=              3.2665    Z=              0.0000  Tot=              5.2946
 Quadrupole moment (field-independent basis, Debye-Ang):
   XX=            -11.1287   YY=             -9.0743   ZZ=            -14.9887
   XY=              2.6277   XZ=              0.0000   YZ=              0.0000

 324\MP4DQ=-33.8918739\MP4SDQ=-33.8939015\CCSD=-33.8949553\CCSD(T)=-33.
 Normal termination of Gaussian 16 at Sun Dec 10 06:46:21 2023.
