 Gaussian 16, Revision A.03,
 Gaussian 16:  ES64L-G16RevA.03 25-Dec-2016

 ------------------
 #p CCSD(T)/CEP-31G
 ------------------

 ------------
 H2O_H2O_4234
 ------------
 Symbolic Z-matrix:
 Charge =  0 Multiplicity = 1

                         Standard orientation:
 ---------------------------------------------------------------------
 Center     Atomic      Atomic             Coordinates (Angstroms)
 Number     Number       Type             X           Y           Z
 ---------------------------------------------------------------------
      1          8           0        0.066746    2.794040   -0.000000
      2          1           0        0.065925    1.811439   -0.000000
      3          1           0       -0.862480    3.113483   -0.000000
      4          8           0        0.066746   -2.620914    0.000000
      5          1           0        0.611968   -3.438373    0.000000
      6          1           0       -0.883351   -2.871557    0.000000
 ---------------------------------------------------------------------

 SCF Done:  E(RHF) =  -33.6531158085     A.U. after   11 cycles
 E2 =    -0.2283129357D+00 EUMP2 =    -0.33881428744140D+02
 CCSD(T)
 CCSD(T)= -0.33898391371D+02

 The electronic state is 1-A'.
 Alpha  occ. eigenvalues --   -1.36326  -1.34677  -0.71970  -0.70299  -0.56139
 Alpha  occ. eigenvalues --   -0.54448  -0.50917  -0.49267
 Alpha virt. eigenvalues --    0.19476   0.21241   0.29759   0.31512   0.79641
 Alpha virt. eigenvalues --    0.81252   0.82492   0.84259   0.85661   0.87409
 Alpha virt. eigenvalues --    1.16633   1.18288   1.21066   1.22856   2.56601

 Mulliken charges:
               1
     1  O   -0.746332
     2  H    0.379250
     3  H    0.367055
     4  O   -0.746050
     5  H    0.375190
     6  H    0.370887
 Sum of Mulliken charges =  -0.00000

 Dipole moment (field-independent basis, Debye):
    X=             -3.0647    Y=             -4.0699    Z=             -0.0000  Tot=              5.0947
 Quadrupole moment (field-independent basis, Debye-Ang):
   XX=             -9.8936   YY=             -5.9580   ZZ=            -14.9912
   XY=             -5.3116   XZ=              0.0000   YZ=             -0.0000

 0097\MP4DQ=-33.8927559\MP4SDQ=-33.8947807\CCSD=-33.8958328\CCSD(T)=-33
 Normal termination of Gaussian 16 at Sun Dec 10 06:49:12 2023.
