 Gaussian 16, Revision A.03,
 Gaussian 16:  ES64L-G16RevA.03 25-Dec-2016

 ------------------
 #p CCSD(T)/CEP-31G
 ------------------

 -----------
 H2O_H2O_205
 -----------
 Symbolic Z-matrix:
 Charge =  0 Multiplicity = 1

                         Standard orientation:
 ---------------------------------------------------------------------
 Center     Atomic      Atomic             Coordinates (Angstroms)
 Number     Number       Type             X           Y           Z
 ---------------------------------------------------------------------
      1          8           0        0.079894   -1.180877    0.000000
      2          1           0        0.078885   -0.198276    0.000000
      3          1           0       -0.849271   -1.500498    0.000000
      4          8           0        0.079894    1.021900    0.000000
      5          1           0        0.394784    1.952679    0.000000
      6          1           0       -0.902700    1.017911    0.000000
 ---------------------------------------------------------------------

 SCF Done:  E(RHF) =  -33.6121054218     A.U. after   11 cycles
 E2 =    -0.2282245129D+00 EUMP2 =    -0.33840329934682D+02
 CCSD(T)
 CCSD(T)= -0.33855695493D+02

 The electronic state is 1-A'.
 Alpha  occ. eigenvalues --   -1.44570  -1.28960  -0.81818  -0.72547  -0.57793
 Alpha  occ. eigenvalues --   -0.56568  -0.46955  -0.43074
 Alpha virt. eigenvalues --    0.16144   0.24102   0.29526   0.59363   0.73216
 Alpha virt. eigenvalues --    0.75096   0.88118   0.90299   0.96916   1.08121
 Alpha virt. eigenvalues --    1.12480   1.22731   1.25907   1.40252   2.95378

 Mulliken charges:
               1
     1  O   -0.706824
     2  H    0.308346
     3  H    0.308697
     4  O   -0.801718
     5  H    0.492948
     6  H    0.398552
 Sum of Mulliken charges =   0.00000

 Dipole moment (field-independent basis, Debye):
    X=             -3.2829    Y=              5.0225    Z=              0.0000  Tot=              6.0002
 Quadrupole moment (field-independent basis, Debye-Ang):
   XX=            -10.4823   YY=            -10.2087   ZZ=            -14.9369
   XY=              2.8895   XZ=              0.0000   YZ=              0.0000

 02\MP4DQ=-33.8494124\MP4SDQ=-33.8518444\CCSD=-33.8525477\CCSD(T)=-33.8
 Normal termination of Gaussian 16 at Sun Dec 10 06:22:05 2023.
