 Gaussian 16, Revision A.03,
 Gaussian 16:  ES64L-G16RevA.03 25-Dec-2016

 ------------------
 #p CCSD(T)/CEP-31G
 ------------------

 ------------
 H2O_H2O_3127
 ------------
 Symbolic Z-matrix:
 Charge =  0 Multiplicity = 1

                         Standard orientation:
 ---------------------------------------------------------------------
 Center     Atomic      Atomic             Coordinates (Angstroms)
 Number     Number       Type             X           Y           Z
 ---------------------------------------------------------------------
      1          8           0        0.088232   -2.339627    0.000000
      2          1           0        0.088055   -1.357026    0.000000
      3          1           0       -0.841204   -2.658461    0.000000
      4          8           0        0.088232    2.195308    0.000000
      5          1           0        0.216311    3.169526    0.000000
      6          1           0       -0.874869    2.000518    0.000000
 ---------------------------------------------------------------------

 SCF Done:  E(RHF) =  -33.6527792211     A.U. after   11 cycles
 E2 =    -0.2283972699D+00 EUMP2 =    -0.33881176490980D+02
 CCSD(T)
 CCSD(T)= -0.33898156052D+02

 The electronic state is 1-A'.
 Alpha  occ. eigenvalues --   -1.36720  -1.34754  -0.72388  -0.70351  -0.56522
 Alpha  occ. eigenvalues --   -0.54496  -0.51300  -0.49329
 Alpha virt. eigenvalues --    0.18129   0.21828   0.29357   0.31539   0.79279
 Alpha virt. eigenvalues --    0.81203   0.82382   0.84189   0.85402   0.87666
 Alpha virt. eigenvalues --    1.15977   1.18587   1.20675   1.25045   2.56104

 Mulliken charges:
               1
     1  O   -0.745219
     2  H    0.380533
     3  H    0.364318
     4  O   -0.745602
     5  H    0.378474
     6  H    0.367497
 Sum of Mulliken charges =   0.00000

 Dipole moment (field-independent basis, Debye):
    X=             -4.0375    Y=              3.4405    Z=              0.0000  Tot=              5.3045
 Quadrupole moment (field-independent basis, Debye-Ang):
   XX=            -10.9763   YY=             -8.7407   ZZ=            -14.9895
   XY=              2.8637   XZ=              0.0000   YZ=              0.0000

 7598\MP4DQ=-33.8925025\MP4SDQ=-33.8945391\CCSD=-33.8955856\CCSD(T)=-33
 Normal termination of Gaussian 16 at Sun Dec 10 06:29:21 2023.
