 Gaussian 16, Revision A.03,
 Gaussian 16:  ES64L-G16RevA.03 25-Dec-2016

 ------------------
 #p CCSD(T)/CEP-31G
 ------------------

 ------------
 H2O_H2O_1187
 ------------
 Symbolic Z-matrix:
 Charge =  0 Multiplicity = 1

                         Standard orientation:
 ---------------------------------------------------------------------
 Center     Atomic      Atomic             Coordinates (Angstroms)
 Number     Number       Type             X           Y           Z
 ---------------------------------------------------------------------
      1          8           0        0.056055    1.580567    0.000000
      2          1           0        0.053951    0.597968    0.000000
      3          1           0       -0.872753    1.901223    0.000000
      4          8           0        0.056055   -1.401741   -0.000000
      5          1           0        0.749370   -2.098032   -0.000000
      6          1           0       -0.827450   -1.831770   -0.000000
 ---------------------------------------------------------------------

 SCF Done:  E(RHF) =  -33.6619649741     A.U. after   11 cycles
 E2 =    -0.2290541886D+00 EUMP2 =    -0.33891019162621D+02
 CCSD(T)
 CCSD(T)= -0.33907639463D+02

 The electronic state is 1-A'.
 Alpha  occ. eigenvalues --   -1.38544  -1.31715  -0.74173  -0.68091  -0.59014
 Alpha  occ. eigenvalues --   -0.53258  -0.51356  -0.46354
 Alpha virt. eigenvalues --    0.17650   0.25944   0.28154   0.42690   0.76121
 Alpha virt. eigenvalues --    0.78597   0.85576   0.85581   0.93732   1.01045
 Alpha virt. eigenvalues --    1.14900   1.19238   1.21678   1.34888   2.50663

 Mulliken charges:
               1
     1  O   -0.781842
     2  H    0.432048
     3  H    0.348778
     4  O   -0.796955
     5  H    0.408586
     6  H    0.389386
 Sum of Mulliken charges =  -0.00000

 Dipole moment (field-independent basis, Debye):
    X=             -2.4660    Y=             -4.6233    Z=             -0.0000  Tot=              5.2398
 Quadrupole moment (field-independent basis, Debye-Ang):
   XX=             -9.5594   YY=             -8.5102   ZZ=            -15.0129
   XY=             -4.1846   XZ=             -0.0000   YZ=              0.0000

 91\MP4DQ=-33.9018121\MP4SDQ=-33.9039228\CCSD=-33.9048919\CCSD(T)=-33.9
 Normal termination of Gaussian 16 at Sun Dec 10 06:40:52 2023.
