 Gaussian 16, Revision A.03,
 Gaussian 16:  ES64L-G16RevA.03 25-Dec-2016

 ------------------
 #p CCSD(T)/CEP-31G
 ------------------

 ------------
 H2O_H2O_1864
 ------------
 Symbolic Z-matrix:
 Charge =  0 Multiplicity = 1

                         Standard orientation:
 ---------------------------------------------------------------------
 Center     Atomic      Atomic             Coordinates (Angstroms)
 Number     Number       Type             X           Y           Z
 ---------------------------------------------------------------------
      1          8           0        0.048626    1.850632    0.000000
      2          1           0        0.046487    0.868033    0.000000
      3          1           0       -0.880171    2.171322    0.000000
      4          8           0        0.048626   -1.670291   -0.000000
      5          1           0        0.826873   -2.270156   -0.000000
      6          1           0       -0.771209   -2.211931   -0.000000
 ---------------------------------------------------------------------

 SCF Done:  E(RHF) =  -33.6591681001     A.U. after   11 cycles
 E2 =    -0.2286597127D+00 EUMP2 =    -0.33887827812709D+02
 CCSD(T)
 CCSD(T)= -0.33904678044D+02

 The electronic state is 1-A'.
 Alpha  occ. eigenvalues --   -1.37514  -1.32894  -0.73162  -0.68574  -0.57806
 Alpha  occ. eigenvalues --   -0.52725  -0.52186  -0.47551
 Alpha virt. eigenvalues --    0.18094   0.24294   0.28900   0.36116   0.78024
 Alpha virt. eigenvalues --    0.82369   0.83286   0.86028   0.89468   0.91778
 Alpha virt. eigenvalues --    1.15587   1.20063   1.20576   1.33113   2.50921

 Mulliken charges:
               1
     1  O   -0.772273
     2  H    0.411020
     3  H    0.359067
     4  O   -0.767291
     5  H    0.388375
     6  H    0.381102
 Sum of Mulliken charges =  -0.00000

 Dipole moment (field-independent basis, Debye):
    X=             -2.1852    Y=             -4.4673    Z=             -0.0000  Tot=              4.9731
 Quadrupole moment (field-independent basis, Debye-Ang):
   XX=             -9.4490   YY=             -7.6105   ZZ=            -15.0035
   XY=             -4.9600   XZ=             -0.0000   YZ=              0.0000

 128\MP4DQ=-33.8989521\MP4SDQ=-33.9010298\CCSD=-33.9020492\CCSD(T)=-33.
 Normal termination of Gaussian 16 at Sun Dec 10 06:54:04 2023.
