 Gaussian 16, Revision A.03,
 Gaussian 16:  ES64L-G16RevA.03 25-Dec-2016

 ------------------
 #p CCSD(T)/CEP-31G
 ------------------

 -----------
 H2O_H2O_637
 -----------
 Symbolic Z-matrix:
 Charge =  0 Multiplicity = 1

                         Standard orientation:
 ---------------------------------------------------------------------
 Center     Atomic      Atomic             Coordinates (Angstroms)
 Number     Number       Type             X           Y           Z
 ---------------------------------------------------------------------
      1          8           0        0.056088    1.361165    0.000000
      2          1           0        0.053621    0.378566    0.000000
      3          1           0       -0.872602    1.682163    0.000000
      4          8           0        0.056088   -1.182380   -0.000000
      5          1           0        0.749147   -1.878926   -0.000000
      6          1           0       -0.827575   -1.612082   -0.000000
 ---------------------------------------------------------------------

 SCF Done:  E(RHF) =  -33.6574632025     A.U. after   11 cycles
 E2 =    -0.2290704166D+00 EUMP2 =    -0.33886533619079D+02
 CCSD(T)
 CCSD(T)= -0.33902436430D+02

 The electronic state is 1-A'.
 Alpha  occ. eigenvalues --   -1.40439  -1.29914  -0.75844  -0.70249  -0.58740
 Alpha  occ. eigenvalues --   -0.55074  -0.48953  -0.44414
 Alpha virt. eigenvalues --    0.17118   0.26952   0.27831   0.52126   0.74274
 Alpha virt. eigenvalues --    0.74994   0.85230   0.88509   0.96744   1.01883
 Alpha virt. eigenvalues --    1.14654   1.18258   1.23550   1.36690   2.64333

 Mulliken charges:
               1
     1  O   -0.774245
     2  H    0.428996
     3  H    0.333147
     4  O   -0.830970
     5  H    0.436268
     6  H    0.406805
 Sum of Mulliken charges =   0.00000

 Dipole moment (field-independent basis, Debye):
    X=             -2.3836    Y=             -4.9535    Z=             -0.0000  Tot=              5.4971
 Quadrupole moment (field-independent basis, Debye-Ang):
   XX=             -9.5281   YY=             -9.4600   ZZ=            -15.0129
   XY=             -3.7750   XZ=             -0.0000   YZ=              0.0000

 56\MP4DQ=-33.896477\MP4SDQ=-33.8986553\CCSD=-33.8994906\CCSD(T)=-33.90
 Normal termination of Gaussian 16 at Sun Dec 10 06:30:30 2023.
