 Gaussian 16, Revision A.03,
 Gaussian 16:  ES64L-G16RevA.03 25-Dec-2016

 ------------------
 #p CCSD(T)/CEP-31G
 ------------------

 ------------
 H2O_H2O_3873
 ------------
 Symbolic Z-matrix:
 Charge =  0 Multiplicity = 1

                         Standard orientation:
 ---------------------------------------------------------------------
 Center     Atomic      Atomic             Coordinates (Angstroms)
 Number     Number       Type             X           Y           Z
 ---------------------------------------------------------------------
      1          8           0       -0.016599    2.639186    0.000000
      2          1           0       -0.014067    1.656588    0.000000
      3          1           0        0.912070    2.960247    0.000000
      4          8           0       -0.016599   -2.475785    0.000000
      5          1           0       -0.996929   -2.542577    0.000000
      6          1           0        0.364512   -3.381467    0.000000
 ---------------------------------------------------------------------

 SCF Done:  E(RHF) =  -33.6539586424     A.U. after   11 cycles
 E2 =    -0.2282740392D+00 EUMP2 =    -0.33882232681528D+02
 CCSD(T)
 CCSD(T)= -0.33899173733D+02

 The electronic state is 1-A'.
 Alpha  occ. eigenvalues --   -1.36389  -1.34626  -0.72033  -0.70267  -0.56246
 Alpha  occ. eigenvalues --   -0.54436  -0.50992  -0.49235
 Alpha virt. eigenvalues --    0.19359   0.21396   0.29736   0.31622   0.79564
 Alpha virt. eigenvalues --    0.81272   0.82335   0.84243   0.85552   0.87385
 Alpha virt. eigenvalues --    1.16596   1.18424   1.21010   1.23147   2.56523

 Mulliken charges:
               1
     1  O   -0.749585
     2  H    0.379774
     3  H    0.369732
     4  O   -0.749000
     5  H    0.374227
     6  H    0.374852
 Sum of Mulliken charges =  -0.00000

 Dipole moment (field-independent basis, Debye):
    X=              0.7603    Y=             -3.8475    Z=              0.0000  Tot=              3.9219
 Quadrupole moment (field-independent basis, Debye-Ang):
   XX=             -9.7717   YY=             -6.9696   ZZ=            -14.9928
   XY=              9.2494   XZ=              0.0000   YZ=              0.0000

 923\MP4DQ=-33.8935422\MP4SDQ=-33.8955662\CCSD=-33.8966161\CCSD(T)=-33.
 Normal termination of Gaussian 16 at Sun Dec 10 06:42:42 2023.
