 Gaussian 16, Revision A.03,
 Gaussian 16:  ES64L-G16RevA.03 25-Dec-2016

 ------------------
 #p CCSD(T)/CEP-31G
 ------------------

 ------------
 H2O_H2O_4475
 ------------
 Symbolic Z-matrix:
 Charge =  0 Multiplicity = 1

                         Standard orientation:
 ---------------------------------------------------------------------
 Center     Atomic      Atomic             Coordinates (Angstroms)
 Number     Number       Type             X           Y           Z
 ---------------------------------------------------------------------
      1          8           0        0.092949   -2.871847    0.000000
      2          1           0        0.092949   -1.889246    0.000000
      3          1           0       -0.836544   -3.190514    0.000000
      4          8           0        0.092949    2.739061    0.000000
      5          1           0        0.092949    3.721662    0.000000
      6          1           0       -0.836544    2.420393    0.000000
 ---------------------------------------------------------------------

 SCF Done:  E(RHF) =  -33.6519674370     A.U. after   11 cycles
 E2 =    -0.2283637833D+00 EUMP2 =    -0.33880331220243D+02
 CCSD(T)
 CCSD(T)= -0.33897328645D+02

 The electronic state is 1-A'.
 Alpha  occ. eigenvalues --   -1.36312  -1.35190  -0.71961  -0.70807  -0.56065
 Alpha  occ. eigenvalues --   -0.54922  -0.50885  -0.49760
 Alpha virt. eigenvalues --    0.19357   0.20701   0.29704   0.30887   0.79680
 Alpha virt. eigenvalues --    0.80784   0.82650   0.83805   0.85705   0.86991
 Alpha virt. eigenvalues --    1.16574   1.17737   1.21041   1.22254   2.56386

 Mulliken charges:
               1
     1  O   -0.741891
     2  H    0.374504
     3  H    0.367381
     4  O   -0.742231
     5  H    0.374486
     6  H    0.367750
 Sum of Mulliken charges =   0.00000

 Dipole moment (field-independent basis, Debye):
    X=             -4.2764    Y=              3.1179    Z=              0.0000  Tot=              5.2923
 Quadrupole moment (field-independent basis, Debye-Ang):
   XX=            -11.2813   YY=             -9.6381   ZZ=            -14.9883
   XY=              2.3079   XZ=              0.0000   YZ=              0.0000

 9433\MP4DQ=-33.8916842\MP4SDQ=-33.8937118\CCSD=-33.8947666\CCSD(T)=-33
 Normal termination of Gaussian 16 at Sun Dec 10 06:53:33 2023.
