 Gaussian 16, Revision A.03,
 Gaussian 16:  ES64L-G16RevA.03 25-Dec-2016

 ------------------
 #p CCSD(T)/CEP-31G
 ------------------

 ------------
 H2O_H2O_1853
 ------------
 Symbolic Z-matrix:
 Charge =  0 Multiplicity = 1

                         Standard orientation:
 ---------------------------------------------------------------------
 Center     Atomic      Atomic             Coordinates (Angstroms)
 Number     Number       Type             X           Y           Z
 ---------------------------------------------------------------------
      1          8           0        0.085607   -1.833919    0.000000
      2          1           0        0.085252   -0.851317    0.000000
      3          1           0       -0.843771   -2.152920    0.000000
      4          8           0        0.085607    1.684336    0.000000
      5          1           0        0.276956    2.648126    0.000000
      6          1           0       -0.888148    1.552775    0.000000
 ---------------------------------------------------------------------

 SCF Done:  E(RHF) =  -33.6547770809     A.U. after   11 cycles
 E2 =    -0.2288068935D+00 EUMP2 =    -0.33883583974377D+02
 CCSD(T)
 CCSD(T)= -0.33900595253D+02

 The electronic state is 1-A'.
 Alpha  occ. eigenvalues --   -1.37625  -1.33918  -0.73398  -0.69466  -0.57597
 Alpha  occ. eigenvalues --   -0.53635  -0.52213  -0.48496
 Alpha virt. eigenvalues --    0.17059   0.23852   0.28601   0.34987   0.77917
 Alpha virt. eigenvalues --    0.82241   0.82547   0.84872   0.88626   0.96140
 Alpha virt. eigenvalues --    1.15244   1.18586   1.20882   1.37586   2.52666

 Mulliken charges:
               1
     1  O   -0.755915
     2  H    0.396493
     3  H    0.356752
     4  O   -0.756604
     5  H    0.390888
     6  H    0.368387
 Sum of Mulliken charges =  -0.00000

 Dipole moment (field-independent basis, Debye):
    X=             -3.8691    Y=              3.7187    Z=              0.0000  Tot=              5.3664
 Quadrupole moment (field-independent basis, Debye-Ang):
   XX=            -10.8335   YY=             -8.7709   ZZ=            -14.9923
   XY=              2.9572   XZ=              0.0000   YZ=              0.0000

 934\MP4DQ=-33.8948218\MP4SDQ=-33.8969332\CCSD=-33.8979558\CCSD(T)=-33.
 Normal termination of Gaussian 16 at Sun Dec 10 06:53:52 2023.
