 Gaussian 16, Revision A.03,
 Gaussian 16:  ES64L-G16RevA.03 25-Dec-2016

 ------------------
 #p CCSD(T)/CEP-31G
 ------------------

 -----------
 H2O_H2O_939
 -----------
 Symbolic Z-matrix:
 Charge =  0 Multiplicity = 1

                         Standard orientation:
 ---------------------------------------------------------------------
 Center     Atomic      Atomic             Coordinates (Angstroms)
 Number     Number       Type             X           Y           Z
 ---------------------------------------------------------------------
      1          8           0        0.048678    1.481644    0.000000
      2          1           0        0.045972    0.499046    0.000000
      3          1           0       -0.879934    1.802869    0.000000
      4          8           0        0.048678   -1.301358    0.000000
      5          1           0        0.826579   -1.901673    0.000000
      6          1           0       -0.771470   -1.842525    0.000000
 ---------------------------------------------------------------------

 SCF Done:  E(RHF) =  -33.6626916021     A.U. after   11 cycles
 E2 =    -0.2291257890D+00 EUMP2 =    -0.33891817391032D+02
 CCSD(T)
 CCSD(T)= -0.33908163849D+02

 The electronic state is 1-A'.
 Alpha  occ. eigenvalues --   -1.39178  -1.30907  -0.74707  -0.68457  -0.59292
 Alpha  occ. eigenvalues --   -0.53916  -0.50374  -0.45527
 Alpha virt. eigenvalues --    0.17520   0.26770   0.27815   0.46645   0.75266
 Alpha virt. eigenvalues --    0.76715   0.85481   0.86879   0.96270   0.99555
 Alpha virt. eigenvalues --    1.14916   1.18924   1.22664   1.35918   2.54270

 Mulliken charges:
               1
     1  O   -0.784670
     2  H    0.437245
     3  H    0.344736
     4  O   -0.813822
     5  H    0.414667
     6  H    0.401843
 Sum of Mulliken charges =   0.00000

 Dipole moment (field-independent basis, Debye):
    X=             -2.1204    Y=             -4.7731    Z=              0.0000  Tot=              5.2229
 Quadrupole moment (field-independent basis, Debye-Ang):
   XX=             -9.4118   YY=             -8.9020   ZZ=            -15.0183
   XY=             -4.1620   XZ=              0.0000   YZ=              0.0000

 78\MP4DQ=-33.9022978\MP4SDQ=-33.9044208\CCSD=-33.90534\CCSD(T)=-33.908
 Normal termination of Gaussian 16 at Sun Dec 10 06:36:10 2023.
