 Gaussian 16, Revision A.03,
 Gaussian 16:  ES64L-G16RevA.03 25-Dec-2016

 ------------------
 #p CCSD(T)/CEP-31G
 ------------------

 -----------
 H2O_H2O_322
 -----------
 Symbolic Z-matrix:
 Charge =  0 Multiplicity = 1

                         Standard orientation:
 ---------------------------------------------------------------------
 Center     Atomic      Atomic             Coordinates (Angstroms)
 Number     Number       Type             X           Y           Z
 ---------------------------------------------------------------------
      1          8           0       -0.020090    1.225138    0.000000
      2          1           0       -0.014657    0.242551    0.000000
      3          1           0        0.907627    1.548938    0.000000
      4          8           0       -0.020090   -1.058143    0.000000
      5          1           0       -0.993561   -1.191783    0.000000
      6          1           0        0.422033   -1.935660    0.000000
 ---------------------------------------------------------------------

 SCF Done:  E(RHF) =  -33.6361318159     A.U. after   11 cycles
 E2 =    -0.2277542865D+00 EUMP2 =    -0.33863886102406D+02
 CCSD(T)
 CCSD(T)= -0.33879179967D+02

 The electronic state is 1-A'.
 Alpha  occ. eigenvalues --   -1.42846  -1.28481  -0.79376  -0.71945  -0.57713
 Alpha  occ. eigenvalues --   -0.56828  -0.46647  -0.42854
 Alpha virt. eigenvalues --    0.17071   0.25734   0.29172   0.58388   0.73586
 Alpha virt. eigenvalues --    0.74973   0.88267   0.90270   0.93779   1.02555
 Alpha virt. eigenvalues --    1.14761   1.20970   1.28622   1.38648   2.82771

 Mulliken charges:
               1
     1  O   -0.756081
     2  H    0.353567
     3  H    0.336967
     4  O   -0.833076
     5  H    0.425828
     6  H    0.472796
 Sum of Mulliken charges =   0.00000

 Dipole moment (field-independent basis, Debye):
    X=              0.8822    Y=             -5.0559    Z=              0.0000  Tot=              5.1322
 Quadrupole moment (field-independent basis, Debye-Ang):
   XX=             -9.5655   YY=             -9.9992   ZZ=            -14.9810
   XY=              3.9463   XZ=              0.0000   YZ=              0.0000

 875\MP4DQ=-33.8731277\MP4SDQ=-33.8753785\CCSD=-33.8761203\CCSD(T)=-33.
 Normal termination of Gaussian 16 at Sun Dec 10 06:24:24 2023.
