 Gaussian 16, Revision A.03,
 Gaussian 16:  ES64L-G16RevA.03 25-Dec-2016

 ------------------
 #p CCSD(T)/CEP-31G
 ------------------

 ------------
 H2O_H2O_2212
 ------------
 Symbolic Z-matrix:
 Charge =  0 Multiplicity = 1

                         Standard orientation:
 ---------------------------------------------------------------------
 Center     Atomic      Atomic             Coordinates (Angstroms)
 Number     Number       Type             X           Y           Z
 ---------------------------------------------------------------------
      1          8           0        0.056014    1.989442    0.000000
      2          1           0        0.054363    1.006842    0.000000
      3          1           0       -0.872942    2.309670   -0.000000
      4          8           0        0.056014   -1.810564    0.000000
      5          1           0        0.749650   -2.506535    0.000000
      6          1           0       -0.827293   -2.241000   -0.000000
 ---------------------------------------------------------------------

 SCF Done:  E(RHF) =  -33.6572303059     A.U. after   11 cycles
 E2 =    -0.2285247157D+00 EUMP2 =    -0.33885755021619D+02
 CCSD(T)
 CCSD(T)= -0.33902647783D+02

 The electronic state is 1-A'.
 Alpha  occ. eigenvalues --   -1.37215  -1.33384  -0.72870  -0.69004  -0.57322
 Alpha  occ. eigenvalues --   -0.53211  -0.51860  -0.48020
 Alpha virt. eigenvalues --    0.18203   0.23491   0.29091   0.34182   0.78584
 Alpha virt. eigenvalues --    0.82583   0.83574   0.85559   0.87496   0.88822
 Alpha virt. eigenvalues --    1.15853   1.20067   1.20340   1.31332   2.52924

 Mulliken charges:
               1
     1  O   -0.763959
     2  H    0.401011
     3  H    0.360815
     4  O   -0.758926
     5  H    0.384578
     6  H    0.376481
 Sum of Mulliken charges =  -0.00000

 Dipole moment (field-independent basis, Debye):
    X=             -2.5336    Y=             -4.3726    Z=             -0.0000  Tot=              5.0536
 Quadrupole moment (field-independent basis, Debye-Ang):
   XX=             -9.5816   YY=             -7.2902   ZZ=            -14.9992
   XY=             -4.8927   XZ=              0.0000   YZ=             -0.0000

 54\MP4DQ=-33.8969539\MP4SDQ=-33.8990215\CCSD=-33.9000486\CCSD(T)=-33.9
 Normal termination of Gaussian 16 at Sun Dec 10 07:01:01 2023.
