 Gaussian 16, Revision A.03,
 Gaussian 16:  ES64L-G16RevA.03 25-Dec-2016

 ------------------
 #p CCSD(T)/CEP-31G
 ------------------

 ------------
 H2O_H2O_1458
 ------------
 Symbolic Z-matrix:
 Charge =  0 Multiplicity = 1

                         Standard orientation:
 ---------------------------------------------------------------------
 Center     Atomic      Atomic             Coordinates (Angstroms)
 Number     Number       Type             X           Y           Z
 ---------------------------------------------------------------------
      1          8           0        0.070229    1.685566    0.000000
      2          1           0        0.069022    0.702966    0.000000
      3          1           0       -0.858872    2.005374    0.000000
      4          8           0        0.070229   -1.515372   -0.000000
      5          1           0        0.560485   -2.366932   -0.000000
      6          1           0       -0.894300   -1.702961   -0.000000
 ---------------------------------------------------------------------

 SCF Done:  E(RHF) =  -33.6589121888     A.U. after   11 cycles
 E2 =    -0.2289080056D+00 EUMP2 =    -0.33887820194480D+02
 CCSD(T)
 CCSD(T)= -0.33904678152D+02

 The electronic state is 1-A'.
 Alpha  occ. eigenvalues --   -1.38085  -1.32673  -0.73811  -0.68457  -0.58397
 Alpha  occ. eigenvalues --   -0.52736  -0.52382  -0.47290
 Alpha virt. eigenvalues --    0.17553   0.24996   0.28353   0.38917   0.76962
 Alpha virt. eigenvalues --    0.80582   0.84205   0.85438   0.91078   1.01842
 Alpha virt. eigenvalues --    1.14977   1.18753   1.21208   1.36317   2.50026

 Mulliken charges:
               1
     1  O   -0.771413
     2  H    0.417433
     3  H    0.351824
     4  O   -0.778456
     5  H    0.402791
     6  H    0.377821
 Sum of Mulliken charges =   0.00000

 Dipole moment (field-independent basis, Debye):
    X=             -3.1299    Y=             -4.3268    Z=             -0.0000  Tot=              5.3401
 Quadrupole moment (field-independent basis, Debye-Ang):
   XX=            -10.0344   YY=             -8.3200   ZZ=            -15.0033
   XY=             -3.8099   XZ=              0.0000   YZ=              0.0000

 1554\MP4DQ=-33.8988697\MP4SDQ=-33.9009867\CCSD=-33.901992\CCSD(T)=-33.
 Normal termination of Gaussian 16 at Sun Dec 10 06:46:15 2023.
