 Gaussian 16, Revision A.03,
 Gaussian 16:  ES64L-G16RevA.03 25-Dec-2016

 ------------------
 #p CCSD(T)/CEP-31G
 ------------------

 ---------
 H2O_H2O_7
 ---------
 Symbolic Z-matrix:
 Charge =  0 Multiplicity = 1

                         Standard orientation:
 ---------------------------------------------------------------------
 Center     Atomic      Atomic             Coordinates (Angstroms)
 Number     Number       Type             X           Y           Z
 ---------------------------------------------------------------------
      1          8           0        0.073611   -1.105359    0.000000
      2          1           0        0.071999   -0.122759    0.000000
      3          1           0       -0.855358   -1.425550    0.000000
      4          8           0        0.073611    0.938550    0.000000
      5          1           0        0.506759    1.820530    0.000000
      6          1           0       -0.901173    1.062251    0.000000
 ---------------------------------------------------------------------

 SCF Done:  E(RHF) =  -33.5707025862     A.U. after   11 cycles
 E2 =    -0.2275263537D+00 EUMP2 =    -0.33798228939874D+02
 CCSD(T)
 CCSD(T)= -0.33812917368D+02

 The electronic state is 1-A'.
 Alpha  occ. eigenvalues --   -1.47739  -1.27143  -0.84545  -0.76263  -0.59817
 Alpha  occ. eigenvalues --   -0.54052  -0.43860  -0.40948
 Alpha virt. eigenvalues --    0.15782   0.23409   0.30730   0.62127   0.73060
 Alpha virt. eigenvalues --    0.73981   0.89775   0.91794   0.94093   1.08435
 Alpha virt. eigenvalues --    1.09395   1.20118   1.29883   1.41612   3.12136

 Mulliken charges:
               1
     1  O   -0.701772
     2  H    0.228306
     3  H    0.291663
     4  O   -0.737541
     5  H    0.501926
     6  H    0.417417
 Sum of Mulliken charges =   0.00000

 Dipole moment (field-independent basis, Debye):
    X=             -2.9273    Y=              5.5788    Z=              0.0000  Tot=              6.3001
 Quadrupole moment (field-independent basis, Debye-Ang):
   XX=            -10.0993   YY=            -10.7517   ZZ=            -14.8813
   XY=              2.9509   XZ=              0.0000   YZ=              0.0000

 5\MP4DQ=-33.8065122\MP4SDQ=-33.8090479\CCSD=-33.8096289\CCSD(T)=-33.81
 Normal termination of Gaussian 16 at Sun Dec 10 06:18:09 2023.
