 Gaussian 16, Revision A.03,
 Gaussian 16:  ES64L-G16RevA.03 25-Dec-2016

 ------------------
 #p CCSD(T)/CEP-31G
 ------------------

 ------------
 H2O_H2O_1259
 ------------
 Symbolic Z-matrix:
 Charge =  0 Multiplicity = 1

                         Standard orientation:
 ---------------------------------------------------------------------
 Center     Atomic      Atomic             Coordinates (Angstroms)
 Number     Number       Type             X           Y           Z
 ---------------------------------------------------------------------
      1          8           0        0.066803    1.607337    0.000000
      2          1           0        0.065341    0.624737    0.000000
      3          1           0       -0.862215    1.927386   -0.000000
      4          8           0        0.066803   -1.434298    0.000000
      5          1           0        0.611491   -2.252112    0.000000
      6          1           0       -0.883458   -1.684321   -0.000000
 ---------------------------------------------------------------------

 SCF Done:  E(RHF) =  -33.6601732519     A.U. after   11 cycles
 E2 =    -0.2290013065D+00 EUMP2 =    -0.33889174558361D+02
 CCSD(T)
 CCSD(T)= -0.33905922147D+02

 The electronic state is 1-A'.
 Alpha  occ. eigenvalues --   -1.38429  -1.32165  -0.74145  -0.68235  -0.58807
 Alpha  occ. eigenvalues --   -0.53100  -0.51815  -0.46781
 Alpha virt. eigenvalues --    0.17523   0.25565   0.28133   0.41317   0.76335
 Alpha virt. eigenvalues --    0.79372   0.85076   0.85436   0.92509   1.04168
 Alpha virt. eigenvalues --    1.14985   1.18522   1.21535   1.35839   2.50294

 Mulliken charges:
               1
     1  O   -0.775376
     2  H    0.424837
     3  H    0.348761
     4  O   -0.790311
     5  H    0.410092
     6  H    0.381997
 Sum of Mulliken charges =   0.00000

 Dipole moment (field-independent basis, Debye):
    X=             -2.9514    Y=             -4.4622    Z=             -0.0000  Tot=              5.3500
 Quadrupole moment (field-independent basis, Debye-Ang):
   XX=             -9.8938   YY=             -8.4832   ZZ=            -15.0077
   XY=             -3.8702   XZ=              0.0000   YZ=             -0.0000

 3871\MP4DQ=-33.9000868\MP4SDQ=-33.9022111\CCSD=-33.9031967\CCSD(T)=-33
 Normal termination of Gaussian 16 at Sun Dec 10 06:42:18 2023.
