 Gaussian 16, Revision A.03,
 Gaussian 16:  ES64L-G16RevA.03 25-Dec-2016

 ------------------
 #p CCSD(T)/CEP-31G
 ------------------

 ------------
 H2O_H2O_1305
 ------------
 Symbolic Z-matrix:
 Charge =  0 Multiplicity = 1

                         Standard orientation:
 ---------------------------------------------------------------------
 Center     Atomic      Atomic             Coordinates (Angstroms)
 Number     Number       Type             X           Y           Z
 ---------------------------------------------------------------------
      1          8           0        0.079871   -1.619665    0.000000
      2          1           0        0.079149   -0.637064    0.000000
      3          1           0       -0.849388   -1.939015    0.000000
      4          8           0        0.079871    1.460642    0.000000
      5          1           0        0.395034    2.391328    0.000000
      6          1           0       -0.902724    1.456941    0.000000
 ---------------------------------------------------------------------

 SCF Done:  E(RHF) =  -33.6570821387     A.U. after   11 cycles
 E2 =    -0.2289898514D+00 EUMP2 =    -0.33886071990146D+02
 CCSD(T)
 CCSD(T)= -0.33902981997D+02

 The electronic state is 1-A'.
 Alpha  occ. eigenvalues --   -1.38407  -1.32858  -0.74286  -0.68620  -0.58574
 Alpha  occ. eigenvalues --   -0.53009  -0.52490  -0.47434
 Alpha virt. eigenvalues --    0.17168   0.25134   0.28021   0.39986   0.76403
 Alpha virt. eigenvalues --    0.80118   0.84495   0.85158   0.91099   1.08408
 Alpha virt. eigenvalues --    1.15460   1.17520   1.21738   1.38220   2.50287

 Mulliken charges:
               1
     1  O   -0.764225
     2  H    0.410665
     3  H    0.349226
     4  O   -0.779680
     5  H    0.409927
     6  H    0.374088
 Sum of Mulliken charges =  -0.00000

 Dipole moment (field-independent basis, Debye):
    X=             -3.5546    Y=              4.1068    Z=              0.0000  Tot=              5.4314
 Quadrupole moment (field-independent basis, Debye-Ang):
   XX=            -10.5103   YY=             -8.7308   ZZ=            -14.9995
   XY=              3.2522   XZ=              0.0000   YZ=              0.0000

 53\MP4DQ=-33.8971181\MP4SDQ=-33.899272\CCSD=-33.9002696\CCSD(T)=-33.90
 Normal termination of Gaussian 16 at Sun Dec 10 06:43:12 2023.
