 Gaussian 16, Revision A.03,
 Gaussian 16:  ES64L-G16RevA.03 25-Dec-2016

 ------------------
 #p CCSD(T)/CEP-31G
 ------------------

 -----------
 H2O_H2O_834
 -----------
 Symbolic Z-matrix:
 Charge =  0 Multiplicity = 1

                         Standard orientation:
 ---------------------------------------------------------------------
 Center     Atomic      Atomic             Coordinates (Angstroms)
 Number     Number       Type             X           Y           Z
 ---------------------------------------------------------------------
      1          8           0        0.066819    1.437802   -0.000000
      2          1           0        0.065174    0.455202   -0.000000
      3          1           0       -0.862140    1.758024   -0.000000
      4          8           0        0.066819   -1.264788    0.000000
      5          1           0        0.611355   -2.082704    0.000000
      6          1           0       -0.883488   -1.514634   -0.000000
 ---------------------------------------------------------------------

 SCF Done:  E(RHF) =  -33.6590262805     A.U. after   11 cycles
 E2 =    -0.2290838653D+00 EUMP2 =    -0.33888110145787D+02
 CCSD(T)
 CCSD(T)= -0.33904474356D+02

 The electronic state is 1-A'.
 Alpha  occ. eigenvalues --   -1.39610  -1.31019  -0.75362  -0.68780  -0.59202
 Alpha  occ. eigenvalues --   -0.54252  -0.50355  -0.45566
 Alpha virt. eigenvalues --    0.17186   0.26624   0.27534   0.47731   0.74850
 Alpha virt. eigenvalues --    0.76752   0.85221   0.87179   0.95444   1.06123
 Alpha virt. eigenvalues --    1.16169   1.18378   1.22539   1.36500   2.57111

 Mulliken charges:
               1
     1  O   -0.771202
     2  H    0.427123
     3  H    0.338536
     4  O   -0.818446
     5  H    0.433241
     6  H    0.390747
 Sum of Mulliken charges =   0.00000

 Dipole moment (field-independent basis, Debye):
    X=             -2.8818    Y=             -4.6744    Z=             -0.0000  Tot=              5.4913
 Quadrupole moment (field-independent basis, Debye-Ang):
   XX=             -9.8835   YY=             -9.0730   ZZ=            -15.0113
   XY=             -3.6626   XZ=              0.0000   YZ=             -0.0000

 831\MP4DQ=-33.8985444\MP4SDQ=-33.9007161\CCSD=-33.9016268\CCSD(T)=-33.
 Normal termination of Gaussian 16 at Sun Dec 10 06:34:12 2023.
