 Gaussian 16, Revision A.03,
 Gaussian 16:  ES64L-G16RevA.03 25-Dec-2016

 ------------------
 #p CCSD(T)/CEP-31G
 ------------------

 ------------
 H2O_H2O_3108
 ------------
 Symbolic Z-matrix:
 Charge =  0 Multiplicity = 1

                         Standard orientation:
 ---------------------------------------------------------------------
 Center     Atomic      Atomic             Coordinates (Angstroms)
 Number     Number       Type             X           Y           Z
 ---------------------------------------------------------------------
      1          8           0        0.070199    2.343738   -0.000000
      2          1           0        0.069344    1.361137   -0.000000
      3          1           0       -0.859017    2.663213   -0.000000
      4          8           0        0.070199   -2.173494    0.000000
      5          1           0        0.560758   -3.024879    0.000000
      6          1           0       -0.894264   -2.361428    0.000000
 ---------------------------------------------------------------------

 SCF Done:  E(RHF) =  -33.6541690241     A.U. after   11 cycles
 E2 =    -0.2283521190D+00 EUMP2 =    -0.33882521143140D+02
 CCSD(T)
 CCSD(T)= -0.33899458615D+02

 The electronic state is 1-A'.
 Alpha  occ. eigenvalues --   -1.36695  -1.34275  -0.72350  -0.69882  -0.56572
 Alpha  occ. eigenvalues --   -0.54061  -0.51298  -0.48875
 Alpha virt. eigenvalues --    0.18729   0.22002   0.29397   0.32113   0.79275
 Alpha virt. eigenvalues --    0.81626   0.82431   0.84686   0.85249   0.87945
 Alpha virt. eigenvalues --    1.16279   1.18966   1.20680   1.25244   2.56183

 Mulliken charges:
               1
     1  O   -0.750549
     2  H    0.385684
     3  H    0.364279
     4  O   -0.749550
     5  H    0.378764
     6  H    0.371373
 Sum of Mulliken charges =  -0.00000

 Dipole moment (field-independent basis, Debye):
    X=             -3.2070    Y=             -4.0613    Z=              0.0000  Tot=              5.1749
 Quadrupole moment (field-independent basis, Debye-Ang):
   XX=            -10.0282   YY=             -6.9939   ZZ=            -14.9931
   XY=             -4.5038   XZ=              0.0000   YZ=             -0.0000

 3\MP4DQ=-33.8938137\MP4SDQ=-33.8958494\CCSD=-33.8968921\CCSD(T)=-33.89
 Normal termination of Gaussian 16 at Sun Dec 10 06:29:00 2023.
