 Gaussian 16, Revision A.03,
 Gaussian 16:  ES64L-G16RevA.03 25-Dec-2016

 ------------------
 #p CCSD(T)/CEP-31G
 ------------------

 ------------
 H2O_H2O_1064
 ------------
 Symbolic Z-matrix:
 Charge =  0 Multiplicity = 1

                         Standard orientation:
 ---------------------------------------------------------------------
 Center     Atomic      Atomic             Coordinates (Angstroms)
 Number     Number       Type             X           Y           Z
 ---------------------------------------------------------------------
      1          8           0        0.048670    1.531508   -0.000000
      2          1           0        0.046057    0.548910   -0.000000
      3          1           0       -0.879973    1.852645    0.000000
      4          8           0        0.048670   -1.351213   -0.000000
      5          1           0        0.826626   -1.951453   -0.000000
      6          1           0       -0.771428   -1.892459    0.000000
 ---------------------------------------------------------------------

 SCF Done:  E(RHF) =  -33.6628928227     A.U. after   11 cycles
 E2 =    -0.2290939053D+00 EUMP2 =    -0.33891986727985D+02
 CCSD(T)
 CCSD(T)= -0.33908470784D+02

 The electronic state is 1-A'.
 Alpha  occ. eigenvalues --   -1.38820  -1.31284  -0.74393  -0.68159  -0.59220
 Alpha  occ. eigenvalues --   -0.53558  -0.50860  -0.45925
 Alpha virt. eigenvalues --    0.17628   0.26388   0.28026   0.44631   0.75703
 Alpha virt. eigenvalues --    0.77595   0.85625   0.86231   0.95008   0.99917
 Alpha virt. eigenvalues --    1.14918   1.19162   1.22244   1.35201   2.52027

 Mulliken charges:
               1
     1  O   -0.785137
     2  H    0.435944
     3  H    0.347731
     4  O   -0.805644
     5  H    0.409505
     6  H    0.397601
 Sum of Mulliken charges =   0.00000

 Dipole moment (field-independent basis, Debye):
    X=             -2.1335    Y=             -4.7090    Z=              0.0000  Tot=              5.1698
 Quadrupole moment (field-independent basis, Debye-Ang):
   XX=             -9.4191   YY=             -8.6917   ZZ=            -15.0167
   XY=             -4.2742   XZ=             -0.0000   YZ=              0.0000

 81\MP4DQ=-33.9026303\MP4SDQ=-33.9047421\CCSD=-33.9056876\CCSD(T)=-33.9
 Normal termination of Gaussian 16 at Sun Dec 10 06:38:31 2023.
