 Gaussian 16, Revision A.03,
 Gaussian 16:  ES64L-G16RevA.03 25-Dec-2016

 ------------------
 #p CCSD(T)/CEP-31G
 ------------------

 -----------
 H2O_H2O_901
 -----------
 Symbolic Z-matrix:
 Charge =  0 Multiplicity = 1

                         Standard orientation:
 ---------------------------------------------------------------------
 Center     Atomic      Atomic             Coordinates (Angstroms)
 Number     Number       Type             X           Y           Z
 ---------------------------------------------------------------------
      1          8           0        0.090689   -1.449072    0.000000
      2          1           0        0.090549   -0.466471    0.000000
      3          1           0       -0.838759   -1.767871    0.000000
      4          8           0        0.090689    1.310374    0.000000
      5          1           0        0.154814    2.290881    0.000000
      6          1           0       -0.857620    1.053047    0.000000
 ---------------------------------------------------------------------

 SCF Done:  E(RHF) =  -33.6491699115     A.U. after   11 cycles
 E2 =    -0.2292668728D+00 EUMP2 =    -0.33878436784374D+02
 CCSD(T)
 CCSD(T)= -0.33895325174D+02

 The electronic state is 1-A'.
 Alpha  occ. eigenvalues --   -1.39652  -1.32964  -0.76351  -0.68576  -0.59159
 Alpha  occ. eigenvalues --   -0.54021  -0.52375  -0.47417
 Alpha virt. eigenvalues --    0.16558   0.25224   0.27651   0.44551   0.74748
 Alpha virt. eigenvalues --    0.79067   0.84867   0.85806   0.91744   1.11951
 Alpha virt. eigenvalues --    1.14474   1.23300   1.30268   1.37137   2.52465

 Mulliken charges:
               1
     1  O   -0.735499
     2  H    0.372904
     3  H    0.342259
     4  O   -0.773388
     5  H    0.426735
     6  H    0.366988
 Sum of Mulliken charges =  -0.00000

 Dipole moment (field-independent basis, Debye):
    X=             -3.9966    Y=              3.7849    Z=              0.0000  Tot=              5.5044
 Quadrupole moment (field-independent basis, Debye-Ang):
   XX=            -11.2073   YY=             -9.5279   ZZ=            -14.9879
   XY=              2.4169   XZ=              0.0000   YZ=              0.0000

 33\MP4DQ=-33.8892894\MP4SDQ=-33.8915605\CCSD=-33.8924982\CCSD(T)=-33.8
 Normal termination of Gaussian 16 at Sun Dec 10 06:35:27 2023.
