 Gaussian 16, Revision A.03,
 Gaussian 16:  ES64L-G16RevA.03 25-Dec-2016

 ------------------
 #p CCSD(T)/CEP-31G
 ------------------

 ------------
 H2O_H2O_4177
 ------------
 Symbolic Z-matrix:
 Charge =  0 Multiplicity = 1

                         Standard orientation:
 ---------------------------------------------------------------------
 Center     Atomic      Atomic             Coordinates (Angstroms)
 Number     Number       Type             X           Y           Z
 ---------------------------------------------------------------------
      1          8           0        0.088230   -2.758451    0.000000
      2          1           0        0.088080   -1.775849    0.000000
      3          1           0       -0.841215   -3.077258    0.000000
      4          8           0        0.088230    2.614126    0.000000
      5          1           0        0.216337    3.588341    0.000000
      6          1           0       -0.874876    2.419363    0.000000
 ---------------------------------------------------------------------

 SCF Done:  E(RHF) =  -33.6522899922     A.U. after   11 cycles
 E2 =    -0.2283504404D+00 EUMP2 =    -0.33880640432584D+02
 CCSD(T)
 CCSD(T)= -0.33897628214D+02

 The electronic state is 1-A'.
 Alpha  occ. eigenvalues --   -1.36370  -1.35014  -0.72020  -0.70629  -0.56139
 Alpha  occ. eigenvalues --   -0.54755  -0.50947  -0.49588
 Alpha virt. eigenvalues --    0.19282   0.20930   0.29675   0.31096   0.79619
 Alpha virt. eigenvalues --    0.80948   0.82541   0.83963   0.85614   0.87178
 Alpha virt. eigenvalues --    1.16528   1.17941   1.21006   1.22504   2.56366

 Mulliken charges:
               1
     1  O   -0.743157
     2  H    0.376341
     3  H    0.366796
     4  O   -0.743487
     5  H    0.375204
     6  H    0.368303
 Sum of Mulliken charges =   0.00000

 Dipole moment (field-independent basis, Debye):
    X=             -4.0546    Y=              3.3957    Z=              0.0000  Tot=              5.2887
 Quadrupole moment (field-independent basis, Debye-Ang):
   XX=            -10.9671   YY=             -8.5385   ZZ=            -14.9890
   XY=              2.9631   XZ=              0.0000   YZ=              0.0000

 36\MP4DQ=-33.8919858\MP4SDQ=-33.8940128\CCSD=-33.8950666\CCSD(T)=-33.8
 Normal termination of Gaussian 16 at Sun Dec 10 06:48:11 2023.
