 Gaussian 16, Revision A.03,
 Gaussian 16:  ES64L-G16RevA.03 25-Dec-2016

 ------------------
 #p CCSD(T)/CEP-31G
 ------------------

 ------------
 H2O_H2O_1646
 ------------
 Symbolic Z-matrix:
 Charge =  0 Multiplicity = 1

                         Standard orientation:
 ---------------------------------------------------------------------
 Center     Atomic      Atomic             Coordinates (Angstroms)
 Number     Number       Type             X           Y           Z
 ---------------------------------------------------------------------
      1          8           0       -0.023290    1.755459    0.000000
      2          1           0       -0.019746    0.772864    0.000000
      3          1           0        0.905048    2.077476    0.000000
      4          8           0       -0.023290   -1.585116    0.000000
      5          1           0       -0.986313   -1.780287    0.000000
      6          1           0        0.473649   -2.432796    0.000000
 ---------------------------------------------------------------------

 SCF Done:  E(RHF) =  -33.6604343545     A.U. after   11 cycles
 E2 =    -0.2286742513D+00 EUMP2 =    -0.33889108605743D+02
 CCSD(T)
 CCSD(T)= -0.33905946389D+02

 The electronic state is 1-A'.
 Alpha  occ. eigenvalues --   -1.37733  -1.32765  -0.73423  -0.68535  -0.58139
 Alpha  occ. eigenvalues --   -0.52604  -0.52414  -0.47449
 Alpha virt. eigenvalues --    0.17891   0.24825   0.28767   0.37499   0.77510
 Alpha virt. eigenvalues --    0.81120   0.83705   0.86421   0.88947   0.98384
 Alpha virt. eigenvalues --    1.15503   1.19098   1.21288   1.35689   2.50854

 Mulliken charges:
               1
     1  O   -0.778103
     2  H    0.412427
     3  H    0.362993
     4  O   -0.776774
     5  H    0.386794
     6  H    0.392662
 Sum of Mulliken charges =  -0.00000

 Dipole moment (field-independent basis, Debye):
    X=              1.0447    Y=             -4.2681    Z=              0.0000  Tot=              4.3941
 Quadrupole moment (field-independent basis, Debye-Ang):
   XX=             -9.5720   YY=             -8.1212   ZZ=            -15.0061
   XY=              5.7553   XZ=              0.0000   YZ=              0.0000

 528\MP4DQ=-33.9001874\MP4SDQ=-33.902282\CCSD=-33.9032942\CCSD(T)=-33.9
 Normal termination of Gaussian 16 at Sun Dec 10 06:49:58 2023.
