 Gaussian 16, Revision A.03,
 Gaussian 16:  ES64L-G16RevA.03 25-Dec-2016

 ------------------
 #p CCSD(T)/CEP-31G
 ------------------

 ------------
 H2O_H2O_2915
 ------------
 Symbolic Z-matrix:
 Charge =  0 Multiplicity = 1

                         Standard orientation:
 ---------------------------------------------------------------------
 Center     Atomic      Atomic             Coordinates (Angstroms)
 Number     Number       Type             X           Y           Z
 ---------------------------------------------------------------------
      1          8           0        0.044864    2.269480   -0.000000
      2          1           0        0.042991    1.286880   -0.000000
      3          1           0       -0.884019    2.589917   -0.000000
      4          8           0        0.044864   -2.089086    0.000000
      5          1           0        0.860826   -2.636546    0.000000
      6          1           0       -0.737630   -2.683399    0.000000
 ---------------------------------------------------------------------

 SCF Done:  E(RHF) =  -33.6555447101     A.U. after   11 cycles
 E2 =    -0.2283379587D+00 EUMP2 =    -0.33883882668820D+02
 CCSD(T)
 CCSD(T)= -0.33900785170D+02

 The electronic state is 1-A'.
 Alpha  occ. eigenvalues --   -1.36760  -1.33931  -0.72406  -0.69553  -0.56718
 Alpha  occ. eigenvalues --   -0.53762  -0.51386  -0.48556
 Alpha virt. eigenvalues --    0.18782   0.22416   0.29465   0.32529   0.79181
 Alpha virt. eigenvalues --    0.81925   0.82821   0.84672   0.85379   0.88075
 Alpha virt. eigenvalues --    1.16294   1.19405   1.20719   1.26098   2.55744

 Mulliken charges:
               1
     1  O   -0.755994
     2  H    0.389746
     3  H    0.365264
     4  O   -0.753136
     5  H    0.378943
     6  H    0.375178
 Sum of Mulliken charges =   0.00000

 Dipole moment (field-independent basis, Debye):
    X=             -2.0431    Y=             -4.3190    Z=              0.0000  Tot=              4.7779
 Quadrupole moment (field-independent basis, Debye-Ang):
   XX=             -9.4239   YY=             -6.5439   ZZ=            -14.9961
   XY=             -6.0583   XZ=              0.0000   YZ=             -0.0000

 862\MP4DQ=-33.8951409\MP4SDQ=-33.8971803\CCSD=-33.8982178\CCSD(T)=-33.
 Normal termination of Gaussian 16 at Sun Dec 10 06:25:28 2023.
