 Gaussian 16, Revision A.03,
 Gaussian 16:  ES64L-G16RevA.03 25-Dec-2016

 ------------------
 #p CCSD(T)/CEP-31G
 ------------------

 -----------
 H2O_H2O_137
 -----------
 Symbolic Z-matrix:
 Charge =  0 Multiplicity = 1

                         Standard orientation:
 ---------------------------------------------------------------------
 Center     Atomic      Atomic             Coordinates (Angstroms)
 Number     Number       Type             X           Y           Z
 ---------------------------------------------------------------------
      1          8           0        0.056130    1.161701   -0.000000
      2          1           0        0.053204    0.179104   -0.000000
      3          1           0       -0.872410    1.483133   -0.000000
      4          8           0        0.056130   -0.982968    0.000000
      5          1           0        0.748862   -1.679838    0.000000
      6          1           0       -0.827735   -1.412258    0.000000
 ---------------------------------------------------------------------

 SCF Done:  E(RHF) =  -33.6116288126     A.U. after   11 cycles
 E2 =    -0.2280042450D+00 EUMP2 =    -0.33839633057560D+02
 CCSD(T)
 CCSD(T)= -0.33854304823D+02

 The electronic state is 1-A'.
 Alpha  occ. eigenvalues --   -1.45054  -1.27159  -0.79801  -0.77290  -0.58525
 Alpha  occ. eigenvalues --   -0.55001  -0.44427  -0.41159
 Alpha virt. eigenvalues --    0.16233   0.25100   0.30091   0.61538   0.73272
 Alpha virt. eigenvalues --    0.73522   0.86593   0.91568   0.92571   1.07722
 Alpha virt. eigenvalues --    1.11850   1.16843   1.28394   1.34749   2.94224

 Mulliken charges:
               1
     1  O   -0.745184
     2  H    0.333718
     3  H    0.304397
     4  O   -0.793506
     5  H    0.468449
     6  H    0.432126
 Sum of Mulliken charges =   0.00000

 Dipole moment (field-independent basis, Debye):
    X=             -2.2625    Y=             -5.6215    Z=              0.0000  Tot=              6.0597
 Quadrupole moment (field-independent basis, Debye-Ang):
   XX=             -9.4711   YY=            -10.6047   ZZ=            -14.9414
   XY=             -3.3172   XZ=              0.0000   YZ=             -0.0000

 101\MP4DQ=-33.8481075\MP4SDQ=-33.8504604\CCSD=-33.8510713\CCSD(T)=-33.
 Normal termination of Gaussian 16 at Sun Dec 10 06:20:44 2023.
