 Gaussian 16, Revision A.03,
 Gaussian 16:  ES64L-G16RevA.03 25-Dec-2016

 ------------------
 #p CCSD(T)/CEP-31G
 ------------------

 ------------
 H2O_H2O_3116
 ------------
 Symbolic Z-matrix:
 Charge =  0 Multiplicity = 1

                         Standard orientation:
 ---------------------------------------------------------------------
 Center     Atomic      Atomic             Coordinates (Angstroms)
 Number     Number       Type             X           Y           Z
 ---------------------------------------------------------------------
      1          8           0        0.041141    2.349000    0.000000
      2          1           0        0.039194    1.366401    0.000000
      3          1           0       -0.887719    2.669507   -0.000000
      4          8           0        0.041141   -2.169076    0.000000
      5          1           0        0.891124   -2.662062    0.000000
      6          1           0       -0.700857   -2.813238   -0.000000
 ---------------------------------------------------------------------

 SCF Done:  E(RHF) =  -33.6551677762     A.U. after   11 cycles
 E2 =    -0.2283109258D+00 EUMP2 =    -0.33883478702024D+02
 CCSD(T)
 CCSD(T)= -0.33900387422D+02

 The electronic state is 1-A'.
 Alpha  occ. eigenvalues --   -1.36662  -1.34065  -0.72306  -0.69690  -0.56595
 Alpha  occ. eigenvalues --   -0.53892  -0.51282  -0.48686
 Alpha virt. eigenvalues --    0.18947   0.22182   0.29540   0.32312   0.79286
 Alpha virt. eigenvalues --    0.81796   0.82430   0.84693   0.85386   0.87945
 Alpha virt. eigenvalues --    1.16379   1.19200   1.20800   1.25107   2.56136

 Mulliken charges:
               1
     1  O   -0.754375
     2  H    0.387507
     3  H    0.366195
     4  O   -0.752164
     5  H    0.377882
     6  H    0.374956
 Sum of Mulliken charges =  -0.00000

 Dipole moment (field-independent basis, Debye):
    X=             -1.8762    Y=             -4.2885    Z=             -0.0000  Tot=              4.6809
 Quadrupole moment (field-independent basis, Debye-Ang):
   XX=             -9.4087   YY=             -6.3864   ZZ=            -14.9954
   XY=             -6.4761   XZ=              0.0000   YZ=             -0.0000

 9957\MP4DQ=-33.8947499\MP4SDQ=-33.8967836\CCSD=-33.8978242\CCSD(T)=-33
 Normal termination of Gaussian 16 at Sun Dec 10 06:29:09 2023.
