 Gaussian 16, Revision A.03,
 Gaussian 16:  ES64L-G16RevA.03 25-Dec-2016

 ------------------
 #p CCSD(T)/CEP-31G
 ------------------

 -----------
 H2O_H2O_492
 -----------
 Symbolic Z-matrix:
 Charge =  0 Multiplicity = 1

                         Standard orientation:
 ---------------------------------------------------------------------
 Center     Atomic      Atomic             Coordinates (Angstroms)
 Number     Number       Type             X           Y           Z
 ---------------------------------------------------------------------
      1          8           0        0.037611    1.301362    0.000000
      2          1           0        0.033723    0.318768    0.000000
      3          1           0       -0.890615    1.623703   -0.000000
      4          8           0        0.037611   -1.122536    0.000000
      5          1           0        0.917154   -1.560612    0.000000
      6          1           0       -0.662032   -1.812467   -0.000000
 ---------------------------------------------------------------------

 SCF Done:  E(RHF) =  -33.6528219833     A.U. after   11 cycles
 E2 =    -0.2286979226D+00 EUMP2 =    -0.33881519905843D+02
 CCSD(T)
 CCSD(T)= -0.33897049704D+02

 The electronic state is 1-A'.
 Alpha  occ. eigenvalues --   -1.41288  -1.29040  -0.76514  -0.71764  -0.58153
 Alpha  occ. eigenvalues --   -0.55818  -0.47737  -0.43493
 Alpha virt. eigenvalues --    0.17095   0.26722   0.28471   0.55446   0.73923
 Alpha virt. eigenvalues --    0.74214   0.85977   0.89484   0.95308   1.00413
 Alpha virt. eigenvalues --    1.15250   1.17955   1.25244   1.36864   2.70709

 Mulliken charges:
               1
     1  O   -0.774708
     2  H    0.413473
     3  H    0.333204
     4  O   -0.835086
     5  H    0.427714
     6  H    0.435403
 Sum of Mulliken charges =  -0.00000

 Dipole moment (field-independent basis, Debye):
    X=             -1.6135    Y=             -5.1043    Z=             -0.0000  Tot=              5.3533
 Quadrupole moment (field-independent basis, Debye-Ang):
   XX=             -9.3182   YY=             -9.7679   ZZ=            -15.0077
   XY=             -3.8540   XZ=              0.0000   YZ=             -0.0000

 69\MP4DQ=-33.8910719\MP4SDQ=-33.893257\CCSD=-33.8940352\CCSD(T)=-33.89
 Normal termination of Gaussian 16 at Sun Dec 10 06:27:46 2023.
