 Gaussian 16, Revision A.03,
 Gaussian 16:  ES64L-G16RevA.03 25-Dec-2016

 ------------------
 #p CCSD(T)/CEP-31G
 ------------------

 ------------
 H2O_H2O_4823
 ------------
 Symbolic Z-matrix:
 Charge =  0 Multiplicity = 1

                         Standard orientation:
 ---------------------------------------------------------------------
 Center     Atomic      Atomic             Coordinates (Angstroms)
 Number     Number       Type             X           Y           Z
 ---------------------------------------------------------------------
      1          8           0       -0.016572    3.018124    0.000000
      2          1           0       -0.014366    2.035525    0.000000
      3          1           0        0.912203    3.338876    0.000000
      4          8           0       -0.016572   -2.854712    0.000000
      5          1           0       -0.996923   -2.921177    0.000000
      6          1           0        0.364239   -3.760520    0.000000
 ---------------------------------------------------------------------

 SCF Done:  E(RHF) =  -33.6531845026     A.U. after   11 cycles
 E2 =    -0.2282983177D+00 EUMP2 =    -0.33881482820301D+02
 CCSD(T)
 CCSD(T)= -0.33898444887D+02

 The electronic state is 1-A'.
 Alpha  occ. eigenvalues --   -1.36192  -1.34884  -0.71833  -0.70523  -0.56004
 Alpha  occ. eigenvalues --   -0.54670  -0.50785  -0.49481
 Alpha virt. eigenvalues --    0.19650   0.20992   0.29907   0.31265   0.79765
 Alpha virt. eigenvalues --    0.81043   0.82651   0.84028   0.85803   0.87120
 Alpha virt. eigenvalues --    1.16770   1.18082   1.21215   1.22559   2.56743

 Mulliken charges:
               1
     1  O   -0.746541
     2  H    0.376434
     3  H    0.370105
     4  O   -0.746223
     5  H    0.372952
     6  H    0.373273
 Sum of Mulliken charges =   0.00000

 Dipole moment (field-independent basis, Debye):
    X=              0.7617    Y=             -3.8228    Z=              0.0000  Tot=              3.8980
 Quadrupole moment (field-independent basis, Debye-Ang):
   XX=             -9.7747   YY=             -6.4236   ZZ=            -14.9913
   XY=             10.5903   XZ=              0.0000   YZ=              0.0000

 636\MP4DQ=-33.8928104\MP4SDQ=-33.8948344\CCSD=-33.8958874\CCSD(T)=-33.
 Normal termination of Gaussian 16 at Sun Dec 10 06:59:49 2023.
