 Gaussian 16, Revision A.03,
 Gaussian 16:  ES64L-G16RevA.03 25-Dec-2016

 ------------------
 #p CCSD(T)/CEP-31G
 ------------------

 -----------
 H2O_H2O_399
 -----------
 Symbolic Z-matrix:
 Charge =  0 Multiplicity = 1

                         Standard orientation:
 ---------------------------------------------------------------------
 Center     Atomic      Atomic             Coordinates (Angstroms)
 Number     Number       Type             X           Y           Z
 ---------------------------------------------------------------------
      1          8           0        0.013744   -1.250813    0.000000
      2          1           0        0.007990   -0.268228    0.000000
      3          1           0       -0.913867   -1.574917    0.000000
      4          8           0        0.013744    1.091628    0.000000
      5          1           0        0.996330    1.097382    0.000000
      6          1           0       -0.310360    2.019239    0.000000
 ---------------------------------------------------------------------

 SCF Done:  E(RHF) =  -33.6407083144     A.U. after   11 cycles
 E2 =    -0.2277594461D+00 EUMP2 =    -0.33868467760551D+02
 CCSD(T)
 CCSD(T)= -0.33884101734D+02

 The electronic state is 1-A'.
 Alpha  occ. eigenvalues --   -1.42204  -1.29258  -0.79195  -0.70178  -0.58711
 Alpha  occ. eigenvalues --   -0.56246  -0.47740  -0.43728
 Alpha virt. eigenvalues --    0.17256   0.25867   0.28802   0.56391   0.73679
 Alpha virt. eigenvalues --    0.75889   0.88129   0.89592   0.93145   1.05876
 Alpha virt. eigenvalues --    1.14711   1.21705   1.29385   1.40948   2.78995

 Mulliken charges:
               1
     1  O   -0.751871
     2  H    0.348465
     3  H    0.346291
     4  O   -0.834440
     5  H    0.418809
     6  H    0.472747
 Sum of Mulliken charges =  -0.00000

 Dipole moment (field-independent basis, Debye):
    X=             -0.6112    Y=              4.7610    Z=              0.0000  Tot=              4.8000
 Quadrupole moment (field-independent basis, Debye-Ang):
   XX=             -9.7814   YY=             -9.8134   ZZ=            -14.9878
   XY=              4.2913   XZ=              0.0000   YZ=              0.0000

 98\MP4DQ=-33.8780536\MP4SDQ=-33.8803138\CCSD=-33.8811045\CCSD(T)=-33.8
 Normal termination of Gaussian 16 at Sun Dec 10 06:25:55 2023.
