 Gaussian 16, Revision A.03,
 Gaussian 16:  ES64L-G16RevA.03 25-Dec-2016

 ------------------
 #p CCSD(T)/CEP-31G
 ------------------

 ------------
 H2O_H2O_3968
 ------------
 Symbolic Z-matrix:
 Charge =  0 Multiplicity = 1

                         Standard orientation:
 ---------------------------------------------------------------------
 Center     Atomic      Atomic             Coordinates (Angstroms)
 Number     Number       Type             X           Y           Z
 ---------------------------------------------------------------------
      1          8           0        0.033765    2.686752    0.000000
      2          1           0        0.031832    1.704153    0.000000
      3          1           0       -0.895100    3.007246    0.000000
      4          8           0        0.033765   -2.509210    0.000000
      5          1           0        0.940828   -2.887019    0.000000
      6          1           0       -0.617795   -3.244720    0.000000
 ---------------------------------------------------------------------

 SCF Done:  E(RHF) =  -33.6539159538     A.U. after   11 cycles
 E2 =    -0.2282812927D+00 EUMP2 =    -0.33882197246554D+02
 CCSD(T)
 CCSD(T)= -0.33899137654D+02

 The electronic state is 1-A'.
 Alpha  occ. eigenvalues --   -1.36368  -1.34500  -0.72009  -0.70133  -0.56225
 Alpha  occ. eigenvalues --   -0.54303  -0.50971  -0.49106
 Alpha virt. eigenvalues --    0.19451   0.21478   0.29763   0.31746   0.79585
 Alpha virt. eigenvalues --    0.81399   0.82352   0.84394   0.85602   0.87505
 Alpha virt. eigenvalues --    1.16625   1.18520   1.21051   1.23152   2.56577

 Mulliken charges:
               1
     1  O   -0.749411
     2  H    0.381030
     3  H    0.368309
     4  O   -0.748556
     5  H    0.375006
     6  H    0.373622
 Sum of Mulliken charges =  -0.00000

 Dipole moment (field-independent basis, Debye):
    X=             -1.5471    Y=             -4.1799    Z=              0.0000  Tot=              4.4570
 Quadrupole moment (field-independent basis, Debye-Ang):
   XX=             -9.4357   YY=             -5.8030   ZZ=            -14.9929
   XY=             -7.8881   XZ=              0.0000   YZ=              0.0000

 72\MP4DQ=-33.893507\MP4SDQ=-33.8955308\CCSD=-33.8965806\CCSD(T)=-33.89
 Normal termination of Gaussian 16 at Sun Dec 10 06:44:25 2023.
