 Gaussian 16, Revision A.03,
 Gaussian 16:  ES64L-G16RevA.03 25-Dec-2016

 ------------------
 #p CCSD(T)/CEP-31G
 ------------------

 -----------
 H2O_H2O_546
 -----------
 Symbolic Z-matrix:
 Charge =  0 Multiplicity = 1

                         Standard orientation:
 ---------------------------------------------------------------------
 Center     Atomic      Atomic             Coordinates (Angstroms)
 Number     Number       Type             X           Y           Z
 ---------------------------------------------------------------------
      1          8           0       -0.023399    1.316668    0.000000
      2          1           0       -0.018593    0.334079    0.000000
      3          1           0        0.904524    1.639877    0.000000
      4          8           0       -0.023399   -1.146386    0.000000
      5          1           0       -0.986172   -1.342792    0.000000
      6          1           0        0.474628   -1.993424    0.000000
 ---------------------------------------------------------------------

 SCF Done:  E(RHF) =  -33.6537846115     A.U. after   11 cycles
 E2 =    -0.2283745595D+00 EUMP2 =    -0.33882159171013D+02
 CCSD(T)
 CCSD(T)= -0.33897948344D+02

 The electronic state is 1-A'.
 Alpha  occ. eigenvalues --   -1.40960  -1.29575  -0.76943  -0.70166  -0.58860
 Alpha  occ. eigenvalues --   -0.55448  -0.48433  -0.44102
 Alpha virt. eigenvalues --    0.17285   0.26664   0.28247   0.53800   0.74037
 Alpha virt. eigenvalues --    0.75424   0.86837   0.88986   0.94305   1.02804
 Alpha virt. eigenvalues --    1.15646   1.21009   1.25968   1.37664   2.68934

 Mulliken charges:
               1
     1  O   -0.771445
     2  H    0.399798
     3  H    0.343729
     4  O   -0.838399
     5  H    0.415986
     6  H    0.450331
 Sum of Mulliken charges =   0.00000

 Dipole moment (field-independent basis, Debye):
    X=              1.0354    Y=             -4.8541    Z=              0.0000  Tot=              4.9633
 Quadrupole moment (field-independent basis, Debye-Ang):
   XX=             -9.5138   YY=             -9.5690   ZZ=            -15.0085
   XY=              4.1893   XZ=              0.0000   YZ=              0.0000

 15\MP4DQ=-33.8919835\MP4SDQ=-33.8941718\CCSD=-33.8949972\CCSD(T)=-33.8
 Normal termination of Gaussian 16 at Sun Dec 10 06:28:48 2023.
