 Gaussian 16, Revision A.03,
 Gaussian 16:  ES64L-G16RevA.03 25-Dec-2016

 ------------------
 #p CCSD(T)/CEP-31G
 ------------------

 ------------
 H2O_H2O_3488
 ------------
 Symbolic Z-matrix:
 Charge =  0 Multiplicity = 1

                         Standard orientation:
 ---------------------------------------------------------------------
 Center     Atomic      Atomic             Coordinates (Angstroms)
 Number     Number       Type             X           Y           Z
 ---------------------------------------------------------------------
      1          8           0        0.052290    2.498564    0.000000
      2          1           0        0.050857    1.515964    0.000000
      3          1           0       -0.876737    2.818585   -0.000000
      4          8           0        0.052290   -2.318664    0.000000
      5          1           0        0.790104   -2.967614    0.000000
      6          1           0       -0.800866   -2.806138   -0.000000
 ---------------------------------------------------------------------

 SCF Done:  E(RHF) =  -33.6542822082     A.U. after   11 cycles
 E2 =    -0.2282993770D+00 EUMP2 =    -0.33882581585162D+02
 CCSD(T)
 CCSD(T)= -0.33899511285D+02

 The electronic state is 1-A'.
 Alpha  occ. eigenvalues --   -1.36524  -1.34286  -0.72168  -0.69908  -0.56405
 Alpha  occ. eigenvalues --   -0.54090  -0.51131  -0.48894
 Alpha virt. eigenvalues --    0.19194   0.21802   0.29628   0.32004   0.79434
 Alpha virt. eigenvalues --    0.81601   0.82233   0.84641   0.85415   0.87779
 Alpha virt. eigenvalues --    1.16484   1.18823   1.20911   1.23864   2.56442

 Mulliken charges:
               1
     1  O   -0.750837
     2  H    0.384312
     3  H    0.366240
     4  O   -0.749649
     5  H    0.376936
     6  H    0.373000
 Sum of Mulliken charges =  -0.00000

 Dipole moment (field-independent basis, Debye):
    X=             -2.3916    Y=             -4.2620    Z=             -0.0000  Tot=              4.8872
 Quadrupole moment (field-independent basis, Debye-Ang):
   XX=             -9.5136   YY=             -6.0590   ZZ=            -14.9936
   XY=             -6.0402   XZ=              0.0000   YZ=             -0.0000

 7\MP4DQ=-33.8938781\MP4SDQ=-33.8959056\CCSD=-33.8969518\CCSD(T)=-33.89
 Normal termination of Gaussian 16 at Sun Dec 10 06:35:47 2023.
