 Gaussian 16, Revision A.03,
 Gaussian 16:  ES64L-G16RevA.03 25-Dec-2016

 ------------------
 #p CCSD(T)/CEP-31G
 ------------------

 -----------
 H2O_H2O_711
 -----------
 Symbolic Z-matrix:
 Charge =  0 Multiplicity = 1

                         Standard orientation:
 ---------------------------------------------------------------------
 Center     Atomic      Atomic             Coordinates (Angstroms)
 Number     Number       Type             X           Y           Z
 ---------------------------------------------------------------------
      1          8           0        0.059724    1.390291    0.000000
      2          1           0        0.057552    0.407692    0.000000
      3          1           0       -0.869062    1.711011    0.000000
      4          8           0        0.059724   -1.212958    0.000000
      5          1           0        0.705964   -1.953147    0.000000
      6          1           0       -0.850041   -1.584218    0.000000
 ---------------------------------------------------------------------

 SCF Done:  E(RHF) =  -33.6586587656     A.U. after   11 cycles
 E2 =    -0.2291021480D+00 EUMP2 =    -0.33887760913560D+02
 CCSD(T)
 CCSD(T)= -0.33903840417D+02

 The electronic state is 1-A'.
 Alpha  occ. eigenvalues --   -1.40088  -1.30319  -0.75631  -0.69570  -0.58986
 Alpha  occ. eigenvalues --   -0.54739  -0.49488  -0.44843
 Alpha virt. eigenvalues --    0.17164   0.26960   0.27617   0.50464   0.74484
 Alpha virt. eigenvalues --    0.75596   0.85203   0.88020   0.96606   1.02893
 Alpha virt. eigenvalues --    1.15112   1.18419   1.23075   1.36646   2.61362

 Mulliken charges:
               1
     1  O   -0.774054
     2  H    0.430387
     3  H    0.335289
     4  O   -0.827352
     5  H    0.435199
     6  H    0.400531
 Sum of Mulliken charges =  -0.00000

 Dipole moment (field-independent basis, Debye):
    X=             -2.5505    Y=             -4.8595    Z=              0.0000  Tot=              5.4881
 Quadrupole moment (field-independent basis, Debye-Ang):
   XX=             -9.6315   YY=             -9.3019   ZZ=            -15.0135
   XY=             -3.7653   XZ=              0.0000   YZ=              0.0000

 471\MP4DQ=-33.8978953\MP4SDQ=-33.9000681\CCSD=-33.9009328\CCSD(T)=-33.
 Normal termination of Gaussian 16 at Sun Dec 10 06:31:53 2023.
