 Gaussian 16, Revision A.03,
 Gaussian 16:  ES64L-G16RevA.03 25-Dec-2016

 ------------------
 #p CCSD(T)/CEP-31G
 ------------------

 -----------
 H2O_H2O_818
 -----------
 Symbolic Z-matrix:
 Charge =  0 Multiplicity = 1

                         Standard orientation:
 ---------------------------------------------------------------------
 Center     Atomic      Atomic             Coordinates (Angstroms)
 Number     Number       Type             X           Y           Z
 ---------------------------------------------------------------------
      1          8           0        0.033928    1.430231   -0.000000
      2          1           0        0.030185    0.447636   -0.000000
      3          1           0       -0.894344    1.752435   -0.000000
      4          8           0        0.033928   -1.252813    0.000000
      5          1           0        0.940295   -1.632293    0.000000
      6          1           0       -0.618985   -1.987123    0.000000
 ---------------------------------------------------------------------

 SCF Done:  E(RHF) =  -33.6621288673     A.U. after   11 cycles
 E2 =    -0.2289320756D+00 EUMP2 =    -0.33891060942936D+02
 CCSD(T)
 CCSD(T)= -0.33907253154D+02

 The electronic state is 1-A'.
 Alpha  occ. eigenvalues --   -1.39578  -1.30495  -0.75148  -0.68832  -0.59330
 Alpha  occ. eigenvalues --   -0.54297  -0.49839  -0.45113
 Alpha virt. eigenvalues --    0.17492   0.27234   0.27582   0.48734   0.74853
 Alpha virt. eigenvalues --    0.76089   0.85940   0.87536   0.95159   1.01215
 Alpha virt. eigenvalues --    1.15741   1.18400   1.23709   1.36919   2.57460

 Mulliken charges:
               1
     1  O   -0.784813
     2  H    0.430903
     3  H    0.346490
     4  O   -0.823731
     5  H    0.410352
     6  H    0.420799
 Sum of Mulliken charges =  -0.00000

 Dipole moment (field-independent basis, Debye):
    X=             -1.4912    Y=             -4.7836    Z=              0.0000  Tot=              5.0106
 Quadrupole moment (field-independent basis, Debye-Ang):
   XX=             -9.3699   YY=             -9.1069   ZZ=            -15.0195
   XY=             -4.3169   XZ=              0.0000   YZ=             -0.0000

 38\MP4DQ=-33.9013685\MP4SDQ=-33.9035017\CCSD=-33.904396\CCSD(T)=-33.90
 Normal termination of Gaussian 16 at Sun Dec 10 06:33:54 2023.
