 Gaussian 16, Revision A.03,
 Gaussian 16:  ES64L-G16RevA.03 25-Dec-2016

 ------------------
 #p CCSD(T)/CEP-31G
 ------------------

 ------------
 H2O_H2O_4075
 ------------
 Symbolic Z-matrix:
 Charge =  0 Multiplicity = 1

                         Standard orientation:
 ---------------------------------------------------------------------
 Center     Atomic      Atomic             Coordinates (Angstroms)
 Number     Number       Type             X           Y           Z
 ---------------------------------------------------------------------
      1          8           0        0.092949   -2.712296    0.000000
      2          1           0        0.092949   -1.729695    0.000000
      3          1           0       -0.836544   -3.030963    0.000000
      4          8           0        0.092949    2.579509    0.000000
      5          1           0        0.092950    3.562112    0.000000
      6          1           0       -0.836544    2.260843    0.000000
 ---------------------------------------------------------------------

 SCF Done:  E(RHF) =  -33.6520132411     A.U. after   11 cycles
 E2 =    -0.2283659204D+00 EUMP2 =    -0.33880379161541D+02
 CCSD(T)
 CCSD(T)= -0.33897375895D+02

 The electronic state is 1-A'.
 Alpha  occ. eigenvalues --   -1.36406  -1.35136  -0.72059  -0.70749  -0.56163
 Alpha  occ. eigenvalues --   -0.54867  -0.50979  -0.49705
 Alpha virt. eigenvalues --    0.19094   0.20895   0.29609   0.30979   0.79591
 Alpha virt. eigenvalues --    0.80837   0.82529   0.83855   0.85574   0.87103
 Alpha virt. eigenvalues --    1.16423   1.17846   1.20941   1.22461   2.56021

 Mulliken charges:
               1
     1  O   -0.742083
     2  H    0.375285
     3  H    0.366776
     4  O   -0.742553
     5  H    0.375285
     6  H    0.367289
 Sum of Mulliken charges =  -0.00000

 Dipole moment (field-independent basis, Debye):
    X=             -4.2716    Y=              3.1271    Z=              0.0000  Tot=              5.2940
 Quadrupole moment (field-independent basis, Debye-Ang):
   XX=            -11.2840   YY=             -9.6295   ZZ=            -14.9882
   XY=              2.3056   XZ=              0.0000   YZ=              0.0000

 9899\MP4DQ=-33.8917307\MP4SDQ=-33.8937588\CCSD=-33.8948129\CCSD(T)=-33
 Normal termination of Gaussian 16 at Sun Dec 10 06:46:20 2023.
