 Gaussian 16, Revision A.03,
 Gaussian 16:  ES64L-G16RevA.03 25-Dec-2016

 ------------------
 #p CCSD(T)/CEP-31G
 ------------------

 ------------
 H2O_H2O_2452
 ------------
 Symbolic Z-matrix:
 Charge =  0 Multiplicity = 1

                         Standard orientation:
 ---------------------------------------------------------------------
 Center     Atomic      Atomic             Coordinates (Angstroms)
 Number     Number       Type             X           Y           Z
 ---------------------------------------------------------------------
      1          8           0        0.088233   -2.070383    0.000000
      2          1           0        0.088033   -1.087781    0.000000
      3          1           0       -0.841195   -2.389239    0.000000
      4          8           0        0.088233    1.926067    0.000000
      5          1           0        0.216290    2.900289    0.000000
      6          1           0       -0.874863    1.731254    0.000000
 ---------------------------------------------------------------------

 SCF Done:  E(RHF) =  -33.6534010699     A.U. after   11 cycles
 E2 =    -0.2285575862D+00 EUMP2 =    -0.33881958656073D+02
 CCSD(T)
 CCSD(T)= -0.33898951529D+02

 The electronic state is 1-A'.
 Alpha  occ. eigenvalues --   -1.37104  -1.34477  -0.72805  -0.70047  -0.56952
 Alpha  occ. eigenvalues --   -0.54213  -0.51686  -0.49052
 Alpha virt. eigenvalues --    0.17207   0.22778   0.29027   0.32484   0.78827
 Alpha virt. eigenvalues --    0.81568   0.82902   0.84507   0.87341   0.88109
 Alpha virt. eigenvalues --    1.15551   1.18969   1.20474   1.31155   2.55613

 Mulliken charges:
               1
     1  O   -0.748699
     2  H    0.386051
     3  H    0.361414
     4  O   -0.748185
     5  H    0.382414
     6  H    0.367005
 Sum of Mulliken charges =  -0.00000

 Dipole moment (field-independent basis, Debye):
    X=             -4.0186    Y=              3.4981    Z=              0.0000  Tot=              5.3278
 Quadrupole moment (field-independent basis, Debye-Ang):
   XX=            -10.9862   YY=             -8.8723   ZZ=            -14.9900
   XY=              2.7966   XZ=              0.0000   YZ=              0.0000

 68\MP4DQ=-33.8932563\MP4SDQ=-33.895322\CCSD=-33.896357\CCSD(T)=-33.898
 Normal termination of Gaussian 16 at Sun Dec 10 07:06:35 2023.
