 Gaussian 16, Revision A.03,
 Gaussian 16:  ES64L-G16RevA.03 25-Dec-2016

 ------------------
 #p CCSD(T)/CEP-31G
 ------------------

 ------------
 H2O_H2O_1629
 ------------
 Symbolic Z-matrix:
 Charge =  0 Multiplicity = 1

                         Standard orientation:
 ---------------------------------------------------------------------
 Center     Atomic      Atomic             Coordinates (Angstroms)
 Number     Number       Type             X           Y           Z
 ---------------------------------------------------------------------
      1          8           0        0.082814   -1.746839    0.000000
      2          1           0        0.082299   -0.764238    0.000000
      3          1           0       -0.846511   -2.065993    0.000000
      4          8           0        0.082814    1.592344    0.000000
      5          1           0        0.336633    2.541599    0.000000
      6          1           0       -0.897449    1.524592    0.000000
 ---------------------------------------------------------------------

 SCF Done:  E(RHF) =  -33.6558378754     A.U. after   11 cycles
 E2 =    -0.2288880499D+00 EUMP2 =    -0.33884725925298D+02
 CCSD(T)
 CCSD(T)= -0.33901716794D+02

 The electronic state is 1-A'.
 Alpha  occ. eigenvalues --   -1.37889  -1.33515  -0.73694  -0.69096  -0.57959
 Alpha  occ. eigenvalues --   -0.53216  -0.52486  -0.48097
 Alpha virt. eigenvalues --    0.17155   0.24353   0.28399   0.36690   0.77383
 Alpha virt. eigenvalues --    0.81556   0.83240   0.85053   0.89426   1.01004
 Alpha virt. eigenvalues --    1.15109   1.18270   1.21189   1.38538   2.51199

 Mulliken charges:
               1
     1  O   -0.760288
     2  H    0.402924
     3  H    0.354106
     4  O   -0.764292
     5  H    0.397065
     6  H    0.370486
 Sum of Mulliken charges =   0.00000

 Dipole moment (field-independent basis, Debye):
    X=             -3.7241    Y=              3.8926    Z=              0.0000  Tot=              5.3871
 Quadrupole moment (field-independent basis, Debye-Ang):
   XX=            -10.6709   YY=             -8.6710   ZZ=            -14.9951
   XY=              3.1306   XZ=              0.0000   YZ=              0.0000

 881\MP4DQ=-33.895909\MP4SDQ=-33.8980371\CCSD=-33.8990532\CCSD(T)=-33.9
 Normal termination of Gaussian 16 at Sun Dec 10 06:49:39 2023.
