 Gaussian 16, Revision A.03,
 Gaussian 16:  ES64L-G16RevA.03 25-Dec-2016

 ------------------
 #p CCSD(T)/CEP-31G
 ------------------

 ------------
 H2O_H2O_2920
 ------------
 Symbolic Z-matrix:
 Charge =  0 Multiplicity = 1

                         Standard orientation:
 ---------------------------------------------------------------------
 Center     Atomic      Atomic             Coordinates (Angstroms)
 Number     Number       Type             X           Y           Z
 ---------------------------------------------------------------------
      1          8           0        0.026665    2.265586    0.000000
      2          1           0        0.024083    1.282988    0.000000
      3          1           0       -0.901987    2.586694   -0.000000
      4          8           0        0.026665   -2.092366    0.000000
      5          1           0        0.975115   -2.349176    0.000000
      6          1           0       -0.523854   -2.906267   -0.000000
 ---------------------------------------------------------------------

 SCF Done:  E(RHF) =  -33.6556726192     A.U. after   11 cycles
 E2 =    -0.2283197816D+00 EUMP2 =    -0.33883992400779D+02
 CCSD(T)
 CCSD(T)= -0.33900894068D+02

 The electronic state is 1-A'.
 Alpha  occ. eigenvalues --   -1.36742  -1.34032  -0.72391  -0.69669  -0.56704
 Alpha  occ. eigenvalues --   -0.53877  -0.51369  -0.48664
 Alpha virt. eigenvalues --    0.18697   0.22375   0.29454   0.32472   0.79194
 Alpha virt. eigenvalues --    0.81819   0.82698   0.84497   0.85647   0.87906
 Alpha virt. eigenvalues --    1.16296   1.19350   1.20706   1.26372   2.55888

 Mulliken charges:
               1
     1  O   -0.756554
     2  H    0.388250
     3  H    0.367397
     4  O   -0.753908
     5  H    0.377782
     6  H    0.377034
 Sum of Mulliken charges =  -0.00000

 Dipole moment (field-independent basis, Debye):
    X=             -1.2130    Y=             -4.1427    Z=             -0.0000  Tot=              4.3166
 Quadrupole moment (field-independent basis, Debye-Ang):
   XX=             -9.5216   YY=             -6.9356   ZZ=            -14.9962
   XY=             -7.1955   XZ=              0.0000   YZ=             -0.0000

 495\MP4DQ=-33.8952504\MP4SDQ=-33.8972891\CCSD=-33.8983267\CCSD(T)=-33.
 Normal termination of Gaussian 16 at Sun Dec 10 06:25:33 2023.
