 Gaussian 16, Revision A.03,
 Gaussian 16:  ES64L-G16RevA.03 25-Dec-2016

 ------------------
 #p CCSD(T)/CEP-31G
 ------------------

 ------------
 H2O_H2O_4541
 ------------
 Symbolic Z-matrix:
 Charge =  0 Multiplicity = 1

                         Standard orientation:
 ---------------------------------------------------------------------
 Center     Atomic      Atomic             Coordinates (Angstroms)
 Number     Number       Type             X           Y           Z
 ---------------------------------------------------------------------
      1          8           0        0.041105    2.917416    0.000000
      2          1           0        0.039550    1.934815    0.000000
      3          1           0       -0.887882    3.237553    0.000000
      4          8           0        0.041105   -2.737459    0.000000
      5          1           0        0.891285   -3.230106    0.000000
      6          1           0       -0.700636   -3.381918    0.000000
 ---------------------------------------------------------------------

 SCF Done:  E(RHF) =  -33.6533473517     A.U. after   11 cycles
 E2 =    -0.2282979622D+00 EUMP2 =    -0.33881645313900D+02
 CCSD(T)
 CCSD(T)= -0.33898601568D+02

 The electronic state is 1-A'.
 Alpha  occ. eigenvalues --   -1.36246  -1.34669  -0.71885  -0.70300  -0.56070
 Alpha  occ. eigenvalues --   -0.54454  -0.50841  -0.49266
 Alpha virt. eigenvalues --    0.19600   0.21235   0.29860   0.31516   0.79711
 Alpha virt. eigenvalues --    0.81251   0.82563   0.84241   0.85756   0.87352
 Alpha virt. eigenvalues --    1.16723   1.18302   1.21166   1.22806   2.56692

 Mulliken charges:
               1
     1  O   -0.747197
     2  H    0.378715
     3  H    0.368472
     4  O   -0.746630
     5  H    0.374204
     6  H    0.372437
 Sum of Mulliken charges =  -0.00000

 Dipole moment (field-independent basis, Debye):
    X=             -1.8878    Y=             -4.2192    Z=              0.0000  Tot=              4.6223
 Quadrupole moment (field-independent basis, Debye-Ang):
   XX=             -9.4134   YY=             -5.1074   ZZ=            -14.9918
   XY=             -7.8460   XZ=              0.0000   YZ=              0.0000

 221\MP4DQ=-33.8929685\MP4SDQ=-33.8949923\CCSD=-33.8960444\CCSD(T)=-33.
 Normal termination of Gaussian 16 at Sun Dec 10 06:54:44 2023.
