 Gaussian 16, Revision A.03,
 Gaussian 16:  ES64L-G16RevA.03 25-Dec-2016

 ------------------
 #p CCSD(T)/CEP-31G
 ------------------

 -----------
 H2O_H2O_158
 -----------
 Symbolic Z-matrix:
 Charge =  0 Multiplicity = 1

                         Standard orientation:
 ---------------------------------------------------------------------
 Center     Atomic      Atomic             Coordinates (Angstroms)
 Number     Number       Type             X           Y           Z
 ---------------------------------------------------------------------
      1          8           0        0.070279    1.166985   -0.000000
      2          1           0        0.068494    0.184385   -0.000000
      3          1           0       -0.858634    1.487339   -0.000000
      4          8           0        0.070279   -0.996873    0.000000
      5          1           0        0.560034   -1.848722    0.000000
      6          1           0       -0.894361   -1.183895    0.000000
 ---------------------------------------------------------------------

 SCF Done:  E(RHF) =  -33.6107590610     A.U. after   11 cycles
 E2 =    -0.2281471175D+00 EUMP2 =    -0.33838906178555D+02
 CCSD(T)
 CCSD(T)= -0.33853868461D+02

 The electronic state is 1-A'.
 Alpha  occ. eigenvalues --   -1.44945  -1.27948  -0.81293  -0.74791  -0.58263
 Alpha  occ. eigenvalues --   -0.55596  -0.45528  -0.41993
 Alpha virt. eigenvalues --    0.16153   0.24526   0.29868   0.60736   0.73244
 Alpha virt. eigenvalues --    0.74209   0.88091   0.91023   0.94938   1.07547
 Alpha virt. eigenvalues --    1.11680   1.20773   1.26893   1.35762   2.97793

 Mulliken charges:
               1
     1  O   -0.726169
     2  H    0.325127
     3  H    0.304232
     4  O   -0.803603
     5  H    0.486918
     6  H    0.413494
 Sum of Mulliken charges =  -0.00000

 Dipole moment (field-independent basis, Debye):
    X=             -2.8411    Y=             -5.3690    Z=              0.0000  Tot=              6.0744
 Quadrupole moment (field-independent basis, Debye-Ang):
   XX=             -9.9708   YY=            -10.4113   ZZ=            -14.9366
   XY=             -3.1555   XZ=             -0.0000   YZ=             -0.0000

 98\MP4DQ=-33.8476189\MP4SDQ=-33.8500182\CCSD=-33.8506714\CCSD(T)=-33.8
 Normal termination of Gaussian 16 at Sun Dec 10 06:21:09 2023.
