 Gaussian 16, Revision A.03,
 Gaussian 16:  ES64L-G16RevA.03 25-Dec-2016

 ------------------
 #p CCSD(T)/CEP-31G
 ------------------

 ------------
 H2O_H2O_1431
 ------------
 Symbolic Z-matrix:
 Charge =  0 Multiplicity = 1

                         Standard orientation:
 ---------------------------------------------------------------------
 Center     Atomic      Atomic             Coordinates (Angstroms)
 Number     Number       Type             X           Y           Z
 ---------------------------------------------------------------------
      1          8           0        0.076779    1.671777    0.000000
      2          1           0        0.075915    0.689176    0.000000
      3          1           0       -0.852433    1.991260    0.000000
      4          8           0        0.076779   -1.508608   -0.000000
      5          1           0        0.452007   -2.416744   -0.000000
      6          1           0       -0.903962   -1.569037   -0.000000
 ---------------------------------------------------------------------

 SCF Done:  E(RHF) =  -33.6576834230     A.U. after   11 cycles
 E2 =    -0.2289315808D+00 EUMP2 =    -0.33886615003781D+02
 CCSD(T)
 CCSD(T)= -0.33903525190D+02

 The electronic state is 1-A'.
 Alpha  occ. eigenvalues --   -1.38159  -1.32907  -0.73952  -0.68631  -0.58377
 Alpha  occ. eigenvalues --   -0.52781  -0.52588  -0.47502
 Alpha virt. eigenvalues --    0.17338   0.24923   0.28233   0.38830   0.76842
 Alpha virt. eigenvalues --    0.80607   0.84117   0.85266   0.90738   1.04520
 Alpha virt. eigenvalues --    1.15008   1.18151   1.21399   1.37669   2.50223

 Mulliken charges:
               1
     1  O   -0.766857
     2  H    0.412574
     3  H    0.351218
     4  O   -0.776311
     5  H    0.404509
     6  H    0.374866
 Sum of Mulliken charges =  -0.00000

 Dipole moment (field-independent basis, Debye):
    X=             -3.4268    Y=             -4.1649    Z=             -0.0000  Tot=              5.3935
 Quadrupole moment (field-independent basis, Debye-Ang):
   XX=            -10.3424   YY=             -8.5229   ZZ=            -15.0003
   XY=             -3.4648   XZ=             -0.0000   YZ=              0.0000

 4\MP4DQ=-33.8976958\MP4SDQ=-33.899829\CCSD=-33.900835\CCSD(T)=-33.9035
 Normal termination of Gaussian 16 at Sun Dec 10 06:45:42 2023.
