 Gaussian 16, Revision A.03,
 Gaussian 16:  ES64L-G16RevA.03 25-Dec-2016

 ------------------
 #p CCSD(T)/CEP-31G
 ------------------

 ------------
 H2O_H2O_2590
 ------------
 Symbolic Z-matrix:
 Charge =  0 Multiplicity = 1

                         Standard orientation:
 ---------------------------------------------------------------------
 Center     Atomic      Atomic             Coordinates (Angstroms)
 Number     Number       Type             X           Y           Z
 ---------------------------------------------------------------------
      1          8           0        0.044875    2.139839   -0.000000
      2          1           0        0.042884    1.157240   -0.000000
      3          1           0       -0.883970    2.460389   -0.000000
      4          8           0        0.044875   -1.959457    0.000000
      5          1           0        0.860770   -2.507016    0.000000
      6          1           0       -0.737691   -2.553674    0.000000
 ---------------------------------------------------------------------

 SCF Done:  E(RHF) =  -33.6564096716     A.U. after   11 cycles
 E2 =    -0.2283956589D+00 EUMP2 =    -0.33884805330539D+02
 CCSD(T)
 CCSD(T)= -0.33901697201D+02

 The electronic state is 1-A'.
 Alpha  occ. eigenvalues --   -1.36940  -1.33681  -0.72588  -0.69303  -0.56962
 Alpha  occ. eigenvalues --   -0.53522  -0.51577  -0.48315
 Alpha virt. eigenvalues --    0.18523   0.22879   0.29332   0.33084   0.78967
 Alpha virt. eigenvalues --    0.82182   0.84079   0.84385   0.85589   0.88293
 Alpha virt. eigenvalues --    1.16137   1.19749   1.20570   1.28271   2.54695

 Mulliken charges:
               1
     1  O   -0.759857
     2  H    0.394208
     3  H    0.364064
     4  O   -0.755554
     5  H    0.380716
     6  H    0.376423
 Sum of Mulliken charges =  -0.00000

 Dipole moment (field-independent basis, Debye):
    X=             -2.0373    Y=             -4.3550    Z=              0.0000  Tot=              4.8080
 Quadrupole moment (field-independent basis, Debye-Ang):
   XX=             -9.4221   YY=             -6.8499   ZZ=            -14.9978
   XY=             -5.7669   XZ=              0.0000   YZ=             -0.0000

 2819\MP4DQ=-33.8960366\MP4SDQ=-33.8980875\CCSD=-33.8991195\CCSD(T)=-33
 Normal termination of Gaussian 16 at Sun Dec 10 06:19:38 2023.
