 Gaussian 16, Revision A.03,
 Gaussian 16:  ES64L-G16RevA.03 25-Dec-2016

 ------------------
 #p CCSD(T)/CEP-31G
 ------------------

 ------------
 H2O_H2O_4989
 ------------
 Symbolic Z-matrix:
 Charge =  0 Multiplicity = 1

                         Standard orientation:
 ---------------------------------------------------------------------
 Center     Atomic      Atomic             Coordinates (Angstroms)
 Number     Number       Type             X           Y           Z
 ---------------------------------------------------------------------
      1          8           0        0.048545    3.097166    0.000000
      2          1           0        0.047292    2.114565    0.000000
      3          1           0       -0.880541    3.417017    0.000000
      4          8           0        0.048545   -2.916737   -0.000000
      5          1           0        0.827332   -3.515899   -0.000000
      6          1           0       -0.770802   -3.459117   -0.000000
 ---------------------------------------------------------------------

 SCF Done:  E(RHF) =  -33.6529980322     A.U. after   11 cycles
 E2 =    -0.2283124703D+00 EUMP2 =    -0.33881310502484D+02
 CCSD(T)
 CCSD(T)= -0.33898276530D+02

 The electronic state is 1-A'.
 Alpha  occ. eigenvalues --   -1.36174  -1.34787  -0.71812  -0.70418  -0.55977
 Alpha  occ. eigenvalues --   -0.54562  -0.50763  -0.49378
 Alpha virt. eigenvalues --    0.19662   0.21085   0.29912   0.31359   0.79788
 Alpha virt. eigenvalues --    0.81146   0.82687   0.84138   0.85849   0.87256
 Alpha virt. eigenvalues --    1.16781   1.18166   1.21228   1.22651   2.56764

 Mulliken charges:
               1
     1  O   -0.745826
     2  H    0.377260
     3  H    0.368564
     4  O   -0.745440
     5  H    0.373734
     6  H    0.371708
 Sum of Mulliken charges =  -0.00000

 Dipole moment (field-independent basis, Debye):
    X=             -2.2327    Y=             -4.2210    Z=             -0.0000  Tot=              4.7751
 Quadrupole moment (field-independent basis, Debye-Ang):
   XX=             -9.4629   YY=             -4.6641   ZZ=            -14.9910
   XY=             -7.5414   XZ=             -0.0000   YZ=              0.0000

 952\MP4DQ=-33.8926413\MP4SDQ=-33.8946656\CCSD=-33.8957188\CCSD(T)=-33.
 Normal termination of Gaussian 16 at Sun Dec 10 07:04:05 2023.
