 Gaussian 16, Revision A.03,
 Gaussian 16:  ES64L-G16RevA.03 25-Dec-2016

 ------------------
 #p CCSD(T)/CEP-31G
 ------------------

 ------------
 H2O_H2O_3593
 ------------
 Symbolic Z-matrix:
 Charge =  0 Multiplicity = 1

                         Standard orientation:
 ---------------------------------------------------------------------
 Center     Atomic      Atomic             Coordinates (Angstroms)
 Number     Number       Type             X           Y           Z
 ---------------------------------------------------------------------
      1          8           0        0.033775    2.537169    0.000000
      2          1           0        0.031724    1.554570    0.000000
      3          1           0       -0.895051    2.857775   -0.000000
      4          8           0        0.033775   -2.359635    0.000000
      5          1           0        0.940794   -2.737554    0.000000
      6          1           0       -0.617872   -3.095067   -0.000000
 ---------------------------------------------------------------------

 SCF Done:  E(RHF) =  -33.6543973370     A.U. after   11 cycles
 E2 =    -0.2282807209D+00 EUMP2 =    -0.33882678057918D+02
 CCSD(T)
 CCSD(T)= -0.33899605172D+02

 The electronic state is 1-A'.
 Alpha  occ. eigenvalues --   -1.36476  -1.34345  -0.72118  -0.69977  -0.56361
 Alpha  occ. eigenvalues --   -0.54160  -0.51085  -0.48957
 Alpha virt. eigenvalues --    0.19273   0.21725   0.29675   0.31949   0.79475
 Alpha virt. eigenvalues --    0.81537   0.82231   0.84528   0.85497   0.87666
 Alpha virt. eigenvalues --    1.16536   1.18753   1.20948   1.23683   2.56495

 Mulliken charges:
               1
     1  O   -0.751280
     2  H    0.383255
     3  H    0.367811
     4  O   -0.750069
     5  H    0.375919
     6  H    0.374364
 Sum of Mulliken charges =   0.00000

 Dipole moment (field-independent basis, Debye):
    X=             -1.5447    Y=             -4.1973    Z=             -0.0000  Tot=              4.4725
 Quadrupole moment (field-independent basis, Debye-Ang):
   XX=             -9.4341   YY=             -6.1215   ZZ=            -14.9939
   XY=             -7.4767   XZ=              0.0000   YZ=             -0.0000

 226\MP4DQ=-33.8939743\MP4SDQ=-33.8960001\CCSD=-33.897047\CCSD(T)=-33.8
 Normal termination of Gaussian 16 at Sun Dec 10 06:37:39 2023.
