 Gaussian 16, Revision A.03,
 Gaussian 16:  ES64L-G16RevA.03 25-Dec-2016

 ------------------
 #p CCSD(T)/CEP-31G
 ------------------

 ------------
 H2O_H2O_3566
 ------------
 Symbolic Z-matrix:
 Charge =  0 Multiplicity = 1

                         Standard orientation:
 ---------------------------------------------------------------------
 Center     Atomic      Atomic             Coordinates (Angstroms)
 Number     Number       Type             X           Y           Z
 ---------------------------------------------------------------------
      1          8           0        0.041128    2.528500    0.000000
      2          1           0        0.039324    1.545901    0.000000
      3          1           0       -0.887779    2.848872    0.000000
      4          8           0        0.041128   -2.348564   -0.000000
      5          1           0        0.891183   -2.841427   -0.000000
      6          1           0       -0.700775   -2.992836   -0.000000
 ---------------------------------------------------------------------

 SCF Done:  E(RHF) =  -33.6543729322     A.U. after   11 cycles
 E2 =    -0.2282866693D+00 EUMP2 =    -0.33882659601478D+02
 CCSD(T)
 CCSD(T)= -0.33899586916D+02

 The electronic state is 1-A'.
 Alpha  occ. eigenvalues --   -1.36489  -1.34308  -0.72131  -0.69936  -0.56374
 Alpha  occ. eigenvalues --   -0.54119  -0.51098  -0.48919
 Alpha virt. eigenvalues --    0.19261   0.21764   0.29671   0.31979   0.79464
 Alpha virt. eigenvalues --    0.81575   0.82229   0.84587   0.85474   0.87716
 Alpha virt. eigenvalues --    1.16522   1.18792   1.20950   1.23717   2.56481

 Mulliken charges:
               1
     1  O   -0.751182
     2  H    0.383778
     3  H    0.367168
     4  O   -0.749925
     5  H    0.376316
     6  H    0.373846
 Sum of Mulliken charges =   0.00000

 Dipole moment (field-independent basis, Debye):
    X=             -1.8811    Y=             -4.2567    Z=             -0.0000  Tot=              4.6538
 Quadrupole moment (field-independent basis, Debye-Ang):
   XX=             -9.4107   YY=             -5.9827   ZZ=            -14.9938
   XY=             -6.9091   XZ=             -0.0000   YZ=              0.0000

 4\MP4DQ=-33.8939556\MP4SDQ=-33.8959818\CCSD=-33.8970285\CCSD(T)=-33.89
 Normal termination of Gaussian 16 at Sun Dec 10 06:37:10 2023.
