 Gaussian 16, Revision A.03,
 Gaussian 16:  ES64L-G16RevA.03 25-Dec-2016

 ------------------
 #p CCSD(T)/CEP-31G
 ------------------

 -----------
 H2O_H2O_577
 -----------
 Symbolic Z-matrix:
 Charge =  0 Multiplicity = 1

                         Standard orientation:
 ---------------------------------------------------------------------
 Center     Atomic      Atomic             Coordinates (Angstroms)
 Number     Number       Type             X           Y           Z
 ---------------------------------------------------------------------
      1          8           0        0.088242   -1.322477    0.000000
      2          1           0        0.087922   -0.339876    0.000000
      3          1           0       -0.841147   -1.641447    0.000000
      4          8           0        0.088242    1.178183    0.000000
      5          1           0        0.216180    2.152421    0.000000
      6          1           0       -0.874830    0.983253    0.000000
 ---------------------------------------------------------------------

 SCF Done:  E(RHF) =  -33.6405021471     A.U. after   11 cycles
 E2 =    -0.2289683727D+00 EUMP2 =    -0.33869470519798D+02
 CCSD(T)
 CCSD(T)= -0.33885937432D+02

 The electronic state is 1-A'.
 Alpha  occ. eigenvalues --   -1.41241  -1.31683  -0.78452  -0.68777  -0.59174
 Alpha  occ. eigenvalues --   -0.55307  -0.50753  -0.46039
 Alpha virt. eigenvalues --    0.16453   0.25028   0.28011   0.50788   0.73765
 Alpha virt. eigenvalues --    0.77434   0.85595   0.87698   0.94348   1.10760
 Alpha virt. eigenvalues --    1.13945   1.23728   1.31508   1.40285   2.64061

 Mulliken charges:
               1
     1  O   -0.716620
     2  H    0.346178
     3  H    0.330938
     4  O   -0.789930
     5  H    0.454616
     6  H    0.374818
 Sum of Mulliken charges =  -0.00000

 Dipole moment (field-independent basis, Debye):
    X=             -3.8067    Y=              4.1830    Z=              0.0000  Tot=              5.6559
 Quadrupole moment (field-independent basis, Debye-Ang):
   XX=            -11.0465   YY=             -9.6772   ZZ=            -14.9791
   XY=              2.5514   XZ=              0.0000   YZ=              0.0000

 5\MP4DQ=-33.8797883\MP4SDQ=-33.8821334\CCSD=-33.882994\CCSD(T)=-33.885
 Normal termination of Gaussian 16 at Sun Dec 10 06:29:23 2023.
