 Gaussian 16, Revision A.03,
 Gaussian 16:  ES64L-G16RevA.03 25-Dec-2016

 ------------------
 #p CCSD(T)/CEP-31G
 ------------------

 ------------
 H2O_H2O_2346
 ------------
 Symbolic Z-matrix:
 Charge =  0 Multiplicity = 1

                         Standard orientation:
 ---------------------------------------------------------------------
 Center     Atomic      Atomic             Coordinates (Angstroms)
 Number     Number       Type             X           Y           Z
 ---------------------------------------------------------------------
      1          8           0       -0.023246    2.034684    0.000000
      2          1           0       -0.020210    1.052088    0.000000
      3          1           0        0.905258    2.356221    0.000000
      4          8           0       -0.023246   -1.864318    0.000000
      5          1           0       -0.986370   -2.058990    0.000000
      6          1           0        0.473255   -2.712252    0.000000
 ---------------------------------------------------------------------

 SCF Done:  E(RHF) =  -33.6572942429     A.U. after   11 cycles
 E2 =    -0.2284322293D+00 EUMP2 =    -0.33885726472247D+02
 CCSD(T)
 CCSD(T)= -0.33902617452D+02

 The electronic state is 1-A'.
 Alpha  occ. eigenvalues --   -1.37078  -1.33632  -0.72737  -0.69282  -0.57163
 Alpha  occ. eigenvalues --   -0.53498  -0.51724  -0.48285
 Alpha virt. eigenvalues --    0.18167   0.23279   0.29236   0.33603   0.78753
 Alpha virt. eigenvalues --    0.82277   0.83137   0.85341   0.87362   0.88380
 Alpha virt. eigenvalues --    1.15972   1.19905   1.20519   1.31184   2.54107

 Mulliken charges:
               1
     1  O   -0.764112
     2  H    0.395725
     3  H    0.366467
     4  O   -0.759373
     5  H    0.380401
     6  H    0.380891
 Sum of Mulliken charges =   0.00000

 Dipole moment (field-independent basis, Debye):
    X=              1.0504    Y=             -4.1384    Z=              0.0000  Tot=              4.2696
 Quadrupole moment (field-independent basis, Debye-Ang):
   XX=             -9.5846   YY=             -7.5265   ZZ=            -14.9992
   XY=              6.6841   XZ=              0.0000   YZ=              0.0000

 1829\MP4DQ=-33.8969369\MP4SDQ=-33.8989993\CCSD=-33.9000275\CCSD(T)=-33
 Normal termination of Gaussian 16 at Sun Dec 10 07:04:37 2023.
