 Gaussian 16, Revision A.03,
 Gaussian 16:  ES64L-G16RevA.03 25-Dec-2016

 ------------------
 #p CCSD(T)/CEP-31G
 ------------------

 ------------
 H2O_H2O_3862
 ------------
 Symbolic Z-matrix:
 Charge =  0 Multiplicity = 1

                         Standard orientation:
 ---------------------------------------------------------------------
 Center     Atomic      Atomic             Coordinates (Angstroms)
 Number     Number       Type             X           Y           Z
 ---------------------------------------------------------------------
      1          8           0        0.055975    2.647613    0.000000
      2          1           0        0.054749    1.665012    0.000000
      3          1           0       -0.873119    2.967439    0.000000
      4          8           0        0.055975   -2.468686   -0.000000
      5          1           0        0.749912   -3.164358   -0.000000
      6          1           0       -0.827145   -2.899504   -0.000000
 ---------------------------------------------------------------------

 SCF Done:  E(RHF) =  -33.6537192126     A.U. after   11 cycles
 E2 =    -0.2282976454D+00 EUMP2 =    -0.33882016857957D+02
 CCSD(T)
 CCSD(T)= -0.33898962068D+02

 The electronic state is 1-A'.
 Alpha  occ. eigenvalues --   -1.36410  -1.34468  -0.72053  -0.70090  -0.56258
 Alpha  occ. eigenvalues --   -0.54258  -0.51009  -0.49067
 Alpha virt. eigenvalues --    0.19379   0.21520   0.29710   0.31775   0.79551
 Alpha virt. eigenvalues --    0.81439   0.82327   0.84460   0.85555   0.87595
 Alpha virt. eigenvalues --    1.16575   1.18550   1.21005   1.23239   2.56538

 Mulliken charges:
               1
     1  O   -0.748657
     2  H    0.381749
     3  H    0.366809
     4  O   -0.747942
     5  H    0.375920
     6  H    0.372122
 Sum of Mulliken charges =   0.00000

 Dipole moment (field-independent basis, Debye):
    X=             -2.5653    Y=             -4.2195    Z=             -0.0000  Tot=              4.9382
 Quadrupole moment (field-independent basis, Debye-Ang):
   XX=             -9.5847   YY=             -5.7987   ZZ=            -14.9925
   XY=             -6.0288   XZ=             -0.0000   YZ=              0.0000

 06\MP4DQ=-33.8933294\MP4SDQ=-33.8953543\CCSD=-33.896404\CCSD(T)=-33.89
 Normal termination of Gaussian 16 at Sun Dec 10 06:42:30 2023.
