 Gaussian 16, Revision A.03,
 Gaussian 16:  ES64L-G16RevA.03 25-Dec-2016

 ------------------
 #p CCSD(T)/CEP-31G
 ------------------

 ------------
 H2O_H2O_4517
 ------------
 Symbolic Z-matrix:
 Charge =  0 Multiplicity = 1

                         Standard orientation:
 ---------------------------------------------------------------------
 Center     Atomic      Atomic             Coordinates (Angstroms)
 Number     Number       Type             X           Y           Z
 ---------------------------------------------------------------------
      1          8           0        0.037409    2.906922   -0.000000
      2          1           0        0.035737    1.924322   -0.000000
      3          1           0       -0.891540    3.227170   -0.000000
      4          8           0        0.037409   -2.727927    0.000000
      5          1           0        0.917937   -3.164019    0.000000
      6          1           0       -0.660677   -3.419434    0.000000
 ---------------------------------------------------------------------

 SCF Done:  E(RHF) =  -33.6533935042     A.U. after   11 cycles
 E2 =    -0.2282954132D+00 EUMP2 =    -0.33881688917427D+02
 CCSD(T)
 CCSD(T)= -0.33898643985D+02

 The electronic state is 1-A'.
 Alpha  occ. eigenvalues --   -1.36249  -1.34669  -0.71888  -0.70301  -0.56075
 Alpha  occ. eigenvalues --   -0.54456  -0.50845  -0.49266
 Alpha virt. eigenvalues --    0.19598   0.21238   0.29859   0.31519   0.79707
 Alpha virt. eigenvalues --    0.81250   0.82554   0.84239   0.85749   0.87346
 Alpha virt. eigenvalues --    1.16722   1.18305   1.21164   1.22810   2.56689

 Mulliken charges:
               1
     1  O   -0.747375
     2  H    0.378721
     3  H    0.368643
     4  O   -0.746792
     5  H    0.374142
     6  H    0.372661
 Sum of Mulliken charges =  -0.00000

 Dipole moment (field-independent basis, Debye):
    X=             -1.7178    Y=             -4.1969    Z=              0.0000  Tot=              4.5349
 Quadrupole moment (field-independent basis, Debye-Ang):
   XX=             -9.4164   YY=             -5.2111   ZZ=            -14.9919
   XY=             -8.1566   XZ=              0.0000   YZ=             -0.0000

 635\MP4DQ=-33.8930112\MP4SDQ=-33.8950349\CCSD=-33.8960869\CCSD(T)=-33.
 Normal termination of Gaussian 16 at Sun Dec 10 06:54:18 2023.
