 Gaussian 16, Revision A.03,
 Gaussian 16:  ES64L-G16RevA.03 25-Dec-2016

 ------------------
 #p CCSD(T)/CEP-31G
 ------------------

 ------------
 H2O_H2O_4743
 ------------
 Symbolic Z-matrix:
 Charge =  0 Multiplicity = 1

                         Standard orientation:
 ---------------------------------------------------------------------
 Center     Atomic      Atomic             Coordinates (Angstroms)
 Number     Number       Type             X           Y           Z
 ---------------------------------------------------------------------
      1          8           0        0.033746    2.995888    0.000000
      2          1           0        0.032019    2.013288    0.000000
      3          1           0       -0.895185    3.316188   -0.000000
      4          8           0        0.033746   -2.818331    0.000000
      5          1           0        0.940889   -3.195952    0.000000
      6          1           0       -0.617659   -3.553979   -0.000000
 ---------------------------------------------------------------------

 SCF Done:  E(RHF) =  -33.6532561809     A.U. after   11 cycles
 E2 =    -0.2282997011D+00 EUMP2 =    -0.33881555882033D+02
 CCSD(T)
 CCSD(T)= -0.33898514971D+02

 The electronic state is 1-A'.
 Alpha  occ. eigenvalues --   -1.36207  -1.34742  -0.71846  -0.70376  -0.56025
 Alpha  occ. eigenvalues --   -0.54527  -0.50801  -0.49338
 Alpha virt. eigenvalues --    0.19640   0.21147   0.29893   0.31426   0.79750
 Alpha virt. eigenvalues --    0.81182   0.82620   0.84169   0.85799   0.87273
 Alpha virt. eigenvalues --    1.16758   1.18224   1.21201   1.22714   2.56731

 Mulliken charges:
               1
     1  O   -0.746831
     2  H    0.377804
     3  H    0.369022
     4  O   -0.746330
     5  H    0.373719
     6  H    0.372616
 Sum of Mulliken charges =   0.00000

 Dipole moment (field-independent basis, Debye):
    X=             -1.5506    Y=             -4.1575    Z=             -0.0000  Tot=              4.4372
 Quadrupole moment (field-independent basis, Debye-Ang):
   XX=             -9.4378   YY=             -5.1433   ZZ=            -14.9916
   XY=             -8.7378   XZ=              0.0000   YZ=             -0.0000

 1342\MP4DQ=-33.8928814\MP4SDQ=-33.8949052\CCSD=-33.8959578\CCSD(T)=-33
 Normal termination of Gaussian 16 at Sun Dec 10 06:58:23 2023.
