 Gaussian 16, Revision A.03,
 Gaussian 16:  ES64L-G16RevA.03 25-Dec-2016

 ------------------
 #p CCSD(T)/CEP-31G
 ------------------

 ------------
 H2O_H2O_1623
 ------------
 Symbolic Z-matrix:
 Charge =  0 Multiplicity = 1

                         Standard orientation:
 ---------------------------------------------------------------------
 Center     Atomic      Atomic             Coordinates (Angstroms)
 Number     Number       Type             X           Y           Z
 ---------------------------------------------------------------------
      1          8           0       -0.016713    1.741694    0.000000
      2          1           0       -0.012812    0.759100    0.000000
      3          1           0        0.911507    2.064048    0.000000
      4          8           0       -0.016713   -1.578339    0.000000
      5          1           0       -0.996948   -1.646496    0.000000
      6          1           0        0.365660   -2.483489    0.000000
 ---------------------------------------------------------------------

 SCF Done:  E(RHF) =  -33.6600747735     A.U. after   11 cycles
 E2 =    -0.2286567122D+00 EUMP2 =    -0.33888731485776D+02
 CCSD(T)
 CCSD(T)= -0.33905595442D+02

 The electronic state is 1-A'.
 Alpha  occ. eigenvalues --   -1.37761  -1.32925  -0.73496  -0.68681  -0.58138
 Alpha  occ. eigenvalues --   -0.52763  -0.52431  -0.47610
 Alpha virt. eigenvalues --    0.17757   0.24839   0.28733   0.37458   0.77427
 Alpha virt. eigenvalues --    0.81067   0.83632   0.86274   0.88582   1.00452
 Alpha virt. eigenvalues --    1.15631   1.18835   1.21281   1.36974   2.51384

 Mulliken charges:
               1
     1  O   -0.777127
     2  H    0.408808
     3  H    0.365082
     4  O   -0.777248
     5  H    0.385667
     6  H    0.394817
 Sum of Mulliken charges =   0.00000

 Dipole moment (field-independent basis, Debye):
    X=              0.7493    Y=             -4.1009    Z=              0.0000  Tot=              4.1688
 Quadrupole moment (field-independent basis, Debye-Ang):
   XX=             -9.7486   YY=             -8.3472   ZZ=            -15.0050
   XY=              6.0510   XZ=              0.0000   YZ=              0.0000

 899\MP4DQ=-33.899825\MP4SDQ=-33.9019293\CCSD=-33.9029413\CCSD(T)=-33.9
 Normal termination of Gaussian 16 at Sun Dec 10 06:49:32 2023.
