 Gaussian 16, Revision A.03,
 Gaussian 16:  ES64L-G16RevA.03 25-Dec-2016

 ------------------
 #p CCSD(T)/CEP-31G
 ------------------

 -----------
 H2O_H2O_144
 -----------
 Symbolic Z-matrix:
 Charge =  0 Multiplicity = 1

                         Standard orientation:
 ---------------------------------------------------------------------
 Center     Atomic      Atomic             Coordinates (Angstroms)
 Number     Number       Type             X           Y           Z
 ---------------------------------------------------------------------
      1          8           0        0.030422    1.159924   -0.000000
      2          1           0        0.025454    0.177335   -0.000000
      3          1           0       -0.897448    1.483286   -0.000000
      4          8           0        0.030422   -0.984478    0.000000
      5          1           0        0.959269   -1.305025    0.000000
      6          1           0       -0.574034   -1.759165    0.000000
 ---------------------------------------------------------------------

 SCF Done:  E(RHF) =  -33.6124883558     A.U. after   11 cycles
 E2 =    -0.2274461214D+00 EUMP2 =    -0.33839934477177D+02
 CCSD(T)
 CCSD(T)= -0.33854603856D+02

 The electronic state is 1-A'.
 Alpha  occ. eigenvalues --   -1.44970  -1.27013  -0.80645  -0.75932  -0.58410
 Alpha  occ. eigenvalues --   -0.55488  -0.44245  -0.41096
 Alpha virt. eigenvalues --    0.16591   0.25173   0.30091   0.61698   0.73351
 Alpha virt. eigenvalues --    0.73802   0.87422   0.91608   0.92400   1.02864
 Alpha virt. eigenvalues --    1.13678   1.18896   1.29801   1.37036   2.91804

 Mulliken charges:
               1
     1  O   -0.753068
     2  H    0.318252
     3  H    0.318023
     4  O   -0.795816
     5  H    0.442615
     6  H    0.469993
 Sum of Mulliken charges =  -0.00000

 Dipole moment (field-independent basis, Debye):
    X=             -1.2772    Y=             -5.5524    Z=              0.0000  Tot=              5.6974
 Quadrupole moment (field-independent basis, Debye-Ang):
   XX=             -9.3213   YY=            -10.5228   ZZ=            -14.9459
   XY=             -3.4878   XZ=             -0.0000   YZ=             -0.0000

 59\MP4DQ=-33.8484779\MP4SDQ=-33.8507769\CCSD=-33.8514054\CCSD(T)=-33.8
 Normal termination of Gaussian 16 at Sun Dec 10 06:20:52 2023.
