 Gaussian 16, Revision A.03,
 Gaussian 16:  ES64L-G16RevA.03 25-Dec-2016

 ------------------
 #p CCSD(T)/CEP-31G
 ------------------

 ------------
 H2O_H2O_1012
 ------------
 Symbolic Z-matrix:
 Charge =  0 Multiplicity = 1

                         Standard orientation:
 ---------------------------------------------------------------------
 Center     Atomic      Atomic             Coordinates (Angstroms)
 Number     Number       Type             X           Y           Z
 ---------------------------------------------------------------------
      1          8           0        0.056064    1.510758    0.000000
      2          1           0        0.053857    0.528159    0.000000
      3          1           0       -0.872710    1.831512   -0.000000
      4          8           0        0.056064   -1.331944    0.000000
      5          1           0        0.749308   -2.028307    0.000000
      6          1           0       -0.827485   -1.761880   -0.000000
 ---------------------------------------------------------------------

 SCF Done:  E(RHF) =  -33.6621159211     A.U. after   11 cycles
 E2 =    -0.2291233717D+00 EUMP2 =    -0.33891239292774D+02
 CCSD(T)
 CCSD(T)= -0.33907705838D+02

 The electronic state is 1-A'.
 Alpha  occ. eigenvalues --   -1.38980  -1.31246  -0.74578  -0.68282  -0.59230
 Alpha  occ. eigenvalues --   -0.53701  -0.50768  -0.45863
 Alpha virt. eigenvalues --    0.17512   0.26448   0.27885   0.45259   0.75509
 Alpha virt. eigenvalues --    0.77394   0.85409   0.86428   0.95193   1.01568
 Alpha virt. eigenvalues --    1.14951   1.18959   1.22163   1.35620   2.52892

 Mulliken charges:
               1
     1  O   -0.782000
     2  H    0.435328
     3  H    0.344949
     4  O   -0.808311
     5  H    0.416180
     6  H    0.393854
 Sum of Mulliken charges =   0.00000

 Dipole moment (field-independent basis, Debye):
    X=             -2.4447    Y=             -4.7020    Z=             -0.0000  Tot=              5.2996
 Quadrupole moment (field-independent basis, Debye-Ang):
   XX=             -9.5515   YY=             -8.7794   ZZ=            -15.0156
   XY=             -4.0596   XZ=              0.0000   YZ=             -0.0000

 168\MP4DQ=-33.9018446\MP4SDQ=-33.9039696\CCSD=-33.9049083\CCSD(T)=-33.
 Normal termination of Gaussian 16 at Sun Dec 10 06:37:32 2023.
