 Gaussian 16, Revision A.03,
 Gaussian 16:  ES64L-G16RevA.03 25-Dec-2016

 ------------------
 #p CCSD(T)/CEP-31G
 ------------------

 ------------
 H2O_H2O_2580
 ------------
 Symbolic Z-matrix:
 Charge =  0 Multiplicity = 1

                         Standard orientation:
 ---------------------------------------------------------------------
 Center     Atomic      Atomic             Coordinates (Angstroms)
 Number     Number       Type             X           Y           Z
 ---------------------------------------------------------------------
      1          8           0        0.079856    2.128248    0.000000
      2          1           0        0.079313    1.145647    0.000000
      3          1           0       -0.849461    2.447428   -0.000000
      4          8           0        0.079856   -1.969195    0.000000
      5          1           0        0.395189   -2.899825    0.000000
      6          1           0       -0.902739   -1.965673   -0.000000
 ---------------------------------------------------------------------

 SCF Done:  E(RHF) =  -33.6542877655     A.U. after   11 cycles
 E2 =    -0.2284765064D+00 EUMP2 =    -0.33882764271897D+02
 CCSD(T)
 CCSD(T)= -0.33899721308D+02

 The electronic state is 1-A'.
 Alpha  occ. eigenvalues --   -1.36996  -1.34207  -0.72673  -0.69794  -0.56890
 Alpha  occ. eigenvalues --   -0.53974  -0.51595  -0.48799
 Alpha virt. eigenvalues --    0.17854   0.22610   0.29130   0.32534   0.78950
 Alpha virt. eigenvalues --    0.81753   0.83078   0.84754   0.86239   0.88155
 Alpha virt. eigenvalues --    1.15840   1.19273   1.20467   1.29381   2.55383

 Mulliken charges:
               1
     1  O   -0.751760
     2  H    0.388679
     3  H    0.361840
     4  O   -0.750455
     5  H    0.381756
     6  H    0.369939
 Sum of Mulliken charges =   0.00000

 Dipole moment (field-independent basis, Debye):
    X=             -3.6376    Y=             -3.8428    Z=             -0.0000  Tot=              5.2914
 Quadrupole moment (field-independent basis, Debye-Ang):
   XX=            -10.4882   YY=             -7.9807   ZZ=            -14.9926
   XY=             -3.5671   XZ=              0.0000   YZ=             -0.0000

 2986\MP4DQ=-33.894044\MP4SDQ=-33.8961008\CCSD=-33.8971364\CCSD(T)=-33.
 Normal termination of Gaussian 16 at Sun Dec 10 06:19:27 2023.
