 Gaussian 16, Revision A.03,
 Gaussian 16:  ES64L-G16RevA.03 25-Dec-2016

 ------------------
 #p CCSD(T)/CEP-31G
 ------------------

 -----------
 H2O_H2O_652
 -----------
 Symbolic Z-matrix:
 Charge =  0 Multiplicity = 1

                         Standard orientation:
 ---------------------------------------------------------------------
 Center     Atomic      Atomic             Coordinates (Angstroms)
 Number     Number       Type             X           Y           Z
 ---------------------------------------------------------------------
      1          8           0        0.088242   -1.352394    0.000000
      2          1           0        0.087929   -0.369793    0.000000
      3          1           0       -0.841150   -1.671356    0.000000
      4          8           0        0.088242    1.208099    0.000000
      5          1           0        0.216187    2.182335    0.000000
      6          1           0       -0.874832    1.013175    0.000000
 ---------------------------------------------------------------------

 SCF Done:  E(RHF) =  -33.6440384516     A.U. after   11 cycles
 E2 =    -0.2290343562D+00 EUMP2 =    -0.33873072807781D+02
 CCSD(T)
 CCSD(T)= -0.33889653185D+02

 The electronic state is 1-A'.
 Alpha  occ. eigenvalues --   -1.40770  -1.31955  -0.77805  -0.68625  -0.59273
 Alpha  occ. eigenvalues --   -0.54954  -0.51126  -0.46344
 Alpha virt. eigenvalues --    0.16507   0.25201   0.27837   0.49277   0.73978
 Alpha virt. eigenvalues --    0.77746   0.85352   0.87287   0.93855   1.10968
 Alpha virt. eigenvalues --    1.14145   1.23592   1.32615   1.38469   2.60479

 Mulliken charges:
               1
     1  O   -0.723255
     2  H    0.356676
     3  H    0.333839
     4  O   -0.789119
     5  H    0.448313
     6  H    0.373547
 Sum of Mulliken charges =  -0.00000

 Dipole moment (field-independent basis, Debye):
    X=             -3.8267    Y=              4.1141    Z=              0.0000  Tot=              5.6187
 Quadrupole moment (field-independent basis, Debye-Ang):
   XX=            -11.0465   YY=             -9.5943   ZZ=            -14.9839
   XY=              2.5674   XZ=              0.0000   YZ=              0.0000

 29\MP4DQ=-33.8835388\MP4SDQ=-33.88586\CCSD=-33.886744\CCSD(T)=-33.8896
 Normal termination of Gaussian 16 at Sun Dec 10 06:30:47 2023.
