 Gaussian 16, Revision A.03,
 Gaussian 16:  ES64L-G16RevA.03 25-Dec-2016

 ------------------
 #p CCSD(T)/CEP-31G
 ------------------

 -----------
 H2O_H2O_796
 -----------
 Symbolic Z-matrix:
 Charge =  0 Multiplicity = 1

                         Standard orientation:
 ---------------------------------------------------------------------
 Center     Atomic      Atomic             Coordinates (Angstroms)
 Number     Number       Type             X           Y           Z
 ---------------------------------------------------------------------
      1          8           0       -0.023368    1.416395    0.000000
      2          1           0       -0.018922    0.433804    0.000000
      3          1           0        0.904674    1.739264    0.000000
      4          8           0       -0.023368   -1.246095    0.000000
      5          1           0       -0.986212   -1.442150    0.000000
      6          1           0        0.474350   -2.093317    0.000000
 ---------------------------------------------------------------------

 SCF Done:  E(RHF) =  -33.6608318840     A.U. after   11 cycles
 E2 =    -0.2286726554D+00 EUMP2 =    -0.33889504539404D+02
 CCSD(T)
 CCSD(T)= -0.33905755730D+02

 The electronic state is 1-A'.
 Alpha  occ. eigenvalues --   -1.39675  -1.30640  -0.75527  -0.68645  -0.59466
 Alpha  occ. eigenvalues --   -0.54336  -0.49967  -0.45269
 Alpha virt. eigenvalues --    0.17500   0.27114   0.27582   0.48738   0.74752
 Alpha virt. eigenvalues --    0.76582   0.86398   0.87520   0.93430   1.05123
 Alpha virt. eigenvalues --    1.16052   1.20077   1.24310   1.37267   2.58534

 Mulliken charges:
               1
     1  O   -0.780798
     2  H    0.417919
     3  H    0.351207
     4  O   -0.826551
     5  H    0.405845
     6  H    0.432377
 Sum of Mulliken charges =  -0.00000

 Dipole moment (field-independent basis, Debye):
    X=              1.0411    Y=             -4.6365    Z=              0.0000  Tot=              4.7520
 Quadrupole moment (field-independent basis, Debye-Ang):
   XX=             -9.5367   YY=             -9.1349   ZZ=            -15.0170
   XY=              4.5569   XZ=              0.0000   YZ=              0.0000

 845\MP4DQ=-33.8998564\MP4SDQ=-33.9020076\CCSD=-33.9029109\CCSD(T)=-33.
 Normal termination of Gaussian 16 at Sun Dec 10 06:33:29 2023.
