 Gaussian 16, Revision A.03,
 Gaussian 16:  ES64L-G16RevA.03 25-Dec-2016

 ------------------
 #p CCSD(T)/CEP-31G
 ------------------

 ------------
 H2O_H2O_1144
 ------------
 Symbolic Z-matrix:
 Charge =  0 Multiplicity = 1

                         Standard orientation:
 ---------------------------------------------------------------------
 Center     Atomic      Atomic             Coordinates (Angstroms)
 Number     Number       Type             X           Y           Z
 ---------------------------------------------------------------------
      1          8           0        0.030302    1.558839    0.000000
      2          1           0        0.026681    0.576244    0.000000
      3          1           0       -0.898010    1.880929    0.000000
      4          8           0        0.030302   -1.383310   -0.000000
      5          1           0        0.959586   -1.702584   -0.000000
      6          1           0       -0.573091   -2.158824   -0.000000
 ---------------------------------------------------------------------

 SCF Done:  E(RHF) =  -33.6630445769     A.U. after   11 cycles
 E2 =    -0.2288905951D+00 EUMP2 =    -0.33891935172045D+02
 CCSD(T)
 CCSD(T)= -0.33908515040D+02

 The electronic state is 1-A'.
 Alpha  occ. eigenvalues --   -1.38598  -1.31569  -0.74264  -0.68060  -0.59160
 Alpha  occ. eigenvalues --   -0.53325  -0.51226  -0.46245
 Alpha virt. eigenvalues --    0.17738   0.26206   0.28161   0.43302   0.75969
 Alpha virt. eigenvalues --    0.78278   0.85790   0.86268   0.92362   1.03360
 Alpha virt. eigenvalues --    1.15546   1.18225   1.22592   1.35541   2.51385

 Mulliken charges:
               1
     1  O   -0.786524
     2  H    0.428717
     3  H    0.354939
     4  O   -0.802979
     5  H    0.398176
     6  H    0.407672
 Sum of Mulliken charges =  -0.00000

 Dipole moment (field-independent basis, Debye):
    X=             -1.3485    Y=             -4.5613    Z=             -0.0000  Tot=              4.7565
 Quadrupole moment (field-independent basis, Debye-Ang):
   XX=             -9.4290   YY=             -8.5976   ZZ=            -15.0158
   XY=             -4.8238   XZ=             -0.0000   YZ=              0.0000

 943\MP4DQ=-33.9026912\MP4SDQ=-33.9048006\CCSD=-33.9057656\CCSD(T)=-33.
 Normal termination of Gaussian 16 at Sun Dec 10 06:40:02 2023.
