 Gaussian 16, Revision A.03,
 Gaussian 16:  ES64L-G16RevA.03 25-Dec-2016

 ------------------
 #p CCSD(T)/CEP-31G
 ------------------

 ------------
 H2O_H2O_3738
 ------------
 Symbolic Z-matrix:
 Charge =  0 Multiplicity = 1

                         Standard orientation:
 ---------------------------------------------------------------------
 Center     Atomic      Atomic             Coordinates (Angstroms)
 Number     Number       Type             X           Y           Z
 ---------------------------------------------------------------------
      1          8           0        0.052285    2.598286   -0.000000
      2          1           0        0.050909    1.615686   -0.000000
      3          1           0       -0.876761    2.918254   -0.000000
      4          8           0        0.052285   -2.418380    0.000000
      5          1           0        0.790136   -3.067287    0.000000
      6          1           0       -0.800843   -2.905904    0.000000
 ---------------------------------------------------------------------

 SCF Done:  E(RHF) =  -33.6539454895     A.U. after   11 cycles
 E2 =    -0.2282942421D+00 EUMP2 =    -0.33882239731585D+02
 CCSD(T)
 CCSD(T)= -0.33899178550D+02

 The electronic state is 1-A'.
 Alpha  occ. eigenvalues --   -1.36443  -1.34400  -0.72085  -0.70023  -0.56304
 Alpha  occ. eigenvalues --   -0.54196  -0.51045  -0.49003
 Alpha virt. eigenvalues --    0.19333   0.21618   0.29692   0.31859   0.79515
 Alpha virt. eigenvalues --    0.81499   0.82278   0.84526   0.85515   0.87655
 Alpha virt. eigenvalues --    1.16551   1.18645   1.20983   1.23406   2.56516

 Mulliken charges:
               1
     1  O   -0.749528
     2  H    0.382619
     3  H    0.366763
     4  O   -0.748630
     5  H    0.376173
     6  H    0.372603
 Sum of Mulliken charges =   0.00000

 Dipole moment (field-independent basis, Debye):
    X=             -2.3945    Y=             -4.2481    Z=              0.0000  Tot=              4.8765
 Quadrupole moment (field-independent basis, Debye-Ang):
   XX=             -9.5140   YY=             -5.8353   ZZ=            -14.9930
   XY=             -6.2289   XZ=              0.0000   YZ=             -0.0000

 967\MP4DQ=-33.8935464\MP4SDQ=-33.8955717\CCSD=-33.8966204\CCSD(T)=-33.
 Normal termination of Gaussian 16 at Sun Dec 10 06:40:16 2023.
