 Gaussian 16, Revision A.03,
 Gaussian 16:  ES64L-G16RevA.03 25-Dec-2016

 ------------------
 #p CCSD(T)/CEP-31G
 ------------------

 ------------
 H2O_H2O_2741
 ------------
 Symbolic Z-matrix:
 Charge =  0 Multiplicity = 1

                         Standard orientation:
 ---------------------------------------------------------------------
 Center     Atomic      Atomic             Coordinates (Angstroms)
 Number     Number       Type             X           Y           Z
 ---------------------------------------------------------------------
      1          8           0        0.041154    2.199416   -0.000000
      2          1           0        0.039069    1.216816   -0.000000
      3          1           0       -0.887661    2.520054   -0.000000
      4          8           0        0.041154   -2.019503    0.000000
      5          1           0        0.891067   -2.512608    0.000000
      6          1           0       -0.700935   -2.663561    0.000000
 ---------------------------------------------------------------------

 SCF Done:  E(RHF) =  -33.6560589896     A.U. after   11 cycles
 E2 =    -0.2283608360D+00 EUMP2 =    -0.33884419825574D+02
 CCSD(T)
 CCSD(T)= -0.33901314630D+02

 The electronic state is 1-A'.
 Alpha  occ. eigenvalues --   -1.36849  -1.33805  -0.72495  -0.69430  -0.56842
 Alpha  occ. eigenvalues --   -0.53646  -0.51481  -0.48437
 Alpha virt. eigenvalues --    0.18640   0.22656   0.29403   0.32791   0.79077
 Alpha virt. eigenvalues --    0.82048   0.83362   0.84514   0.85539   0.88153
 Alpha virt. eigenvalues --    1.16220   1.19598   1.20645   1.27227   2.55262

 Mulliken charges:
               1
     1  O   -0.758231
     2  H    0.391866
     3  H    0.365069
     4  O   -0.754575
     5  H    0.379623
     6  H    0.376247
 Sum of Mulliken charges =  -0.00000

 Dipole moment (field-independent basis, Debye):
    X=             -1.8707    Y=             -4.3252    Z=              0.0000  Tot=              4.7124
 Quadrupole moment (field-independent basis, Debye-Ang):
   XX=             -9.4066   YY=             -6.7293   ZZ=            -14.9971
   XY=             -6.1146   XZ=              0.0000   YZ=             -0.0000

 77\MP4DQ=-33.895663\MP4SDQ=-33.8977082\CCSD=-33.8987426\CCSD(T)=-33.90
 Normal termination of Gaussian 16 at Sun Dec 10 06:22:20 2023.
