 Gaussian 16, Revision A.03,
 Gaussian 16:  ES64L-G16RevA.03 25-Dec-2016

 ------------------
 #p CCSD(T)/CEP-31G
 ------------------

 ------------
 H2O_H2O_4689
 ------------
 Symbolic Z-matrix:
 Charge =  0 Multiplicity = 1

                         Standard orientation:
 ---------------------------------------------------------------------
 Center     Atomic      Atomic             Coordinates (Angstroms)
 Number     Number       Type             X           Y           Z
 ---------------------------------------------------------------------
      1          8           0        0.048550    2.977500    0.000000
      2          1           0        0.047245    1.994899    0.000000
      3          1           0       -0.880519    3.297400    0.000000
      4          8           0        0.048550   -2.797076   -0.000000
      5          1           0        0.827305   -3.396281   -0.000000
      6          1           0       -0.770826   -3.339413   -0.000000
 ---------------------------------------------------------------------

 SCF Done:  E(RHF) =  -33.6531685828     A.U. after   10 cycles
 E2 =    -0.2283058201D+00 EUMP2 =    -0.33881474402959D+02
 CCSD(T)
 CCSD(T)= -0.33898435573D+02

 The electronic state is 1-A'.
 Alpha  occ. eigenvalues --   -1.36223  -1.34712  -0.71862  -0.70341  -0.56036
 Alpha  occ. eigenvalues --   -0.54491  -0.50815  -0.49305
 Alpha virt. eigenvalues --    0.19617   0.21178   0.29873   0.31457   0.79737
 Alpha virt. eigenvalues --    0.81215   0.82611   0.84207   0.85788   0.87325
 Alpha virt. eigenvalues --    1.16739   1.18250   1.21184   1.22746   2.56715

 Mulliken charges:
               1
     1  O   -0.746502
     2  H    0.378214
     3  H    0.368282
     4  O   -0.746034
     5  H    0.374140
     6  H    0.371900
 Sum of Mulliken charges =  -0.00000

 Dipole moment (field-independent basis, Debye):
    X=             -2.2311    Y=             -4.2272    Z=             -0.0000  Tot=              4.7799
 Quadrupole moment (field-independent basis, Debye-Ang):
   XX=             -9.4627   YY=             -4.9357   ZZ=            -14.9914
   XY=             -7.2947   XZ=             -0.0000   YZ=              0.0000

 7\MP4DQ=-33.8928014\MP4SDQ=-33.8948255\CCSD=-33.8958781\CCSD(T)=-33.89
 Normal termination of Gaussian 16 at Sun Dec 10 06:57:24 2023.
