 Gaussian 16, Revision A.03,
 Gaussian 16:  ES64L-G16RevA.03 25-Dec-2016

 ------------------
 #p CCSD(T)/CEP-31G
 ------------------

 ------------
 H2O_H2O_4204
 ------------
 Symbolic Z-matrix:
 Charge =  0 Multiplicity = 1

                         Standard orientation:
 ---------------------------------------------------------------------
 Center     Atomic      Atomic             Coordinates (Angstroms)
 Number     Number       Type             X           Y           Z
 ---------------------------------------------------------------------
      1          8           0        0.082799    2.773965    0.000000
      2          1           0        0.082479    1.791364    0.000000
      3          1           0       -0.846590    3.092933   -0.000000
      4          8           0        0.082799   -2.619437    0.000000
      5          1           0        0.336806   -3.568640    0.000000
      6          1           0       -0.897478   -2.551881   -0.000000
 ---------------------------------------------------------------------

 SCF Done:  E(RHF) =  -33.6525543440     A.U. after   11 cycles
 E2 =    -0.2283377561D+00 EUMP2 =    -0.33880892100125D+02
 CCSD(T)
 CCSD(T)= -0.33897871652D+02

 The electronic state is 1-A'.
 Alpha  occ. eigenvalues --   -1.36353  -1.34897  -0.72001  -0.70514  -0.56136
 Alpha  occ. eigenvalues --   -0.54648  -0.50934  -0.49477
 Alpha virt. eigenvalues --    0.19368   0.21022   0.29702   0.31240   0.79628
 Alpha virt. eigenvalues --    0.81054   0.82529   0.84066   0.85629   0.87261
 Alpha virt. eigenvalues --    1.16573   1.18055   1.21022   1.22626   2.56501

 Mulliken charges:
               1
     1  O   -0.744178
     2  H    0.377373
     3  H    0.366783
     4  O   -0.744354
     5  H    0.375238
     6  H    0.369138
 Sum of Mulliken charges =  -0.00000

 Dipole moment (field-independent basis, Debye):
    X=             -3.8042    Y=             -3.6346    Z=             -0.0000  Tot=              5.2614
 Quadrupole moment (field-independent basis, Debye-Ang):
   XX=            -10.6386   YY=             -7.5975   ZZ=            -14.9898
   XY=             -3.6358   XZ=              0.0000   YZ=             -0.0000

 88\MP4DQ=-33.8922315\MP4SDQ=-33.8942578\CCSD=-33.8953111\CCSD(T)=-33.8
 Normal termination of Gaussian 16 at Sun Dec 10 06:48:40 2023.
