 Gaussian 16, Revision A.03,
 Gaussian 16:  ES64L-G16RevA.03 25-Dec-2016

 ------------------
 #p CCSD(T)/CEP-31G
 ------------------

 -----------
 H2O_H2O_649
 -----------
 Symbolic Z-matrix:
 Charge =  0 Multiplicity = 1

                         Standard orientation:
 ---------------------------------------------------------------------
 Center     Atomic      Atomic             Coordinates (Angstroms)
 Number     Number       Type             X           Y           Z
 ---------------------------------------------------------------------
      1          8           0        0.013708   -1.350537    0.000000
      2          1           0        0.008405   -0.367949    0.000000
      3          1           0       -0.914052   -1.674215    0.000000
      4          8           0        0.013708    1.191339    0.000000
      5          1           0        0.996294    1.196642    0.000000
      6          1           0       -0.309971    2.119100    0.000000
 ---------------------------------------------------------------------

 SCF Done:  E(RHF) =  -33.6549225848     A.U. after   11 cycles
 E2 =    -0.2282628346D+00 EUMP2 =    -0.33883185419353D+02
 CCSD(T)
 CCSD(T)= -0.33899355428D+02

 The electronic state is 1-A'.
 Alpha  occ. eigenvalues --   -1.40425  -1.30487  -0.76922  -0.68671  -0.59602
 Alpha  occ. eigenvalues --   -0.54886  -0.49593  -0.45084
 Alpha virt. eigenvalues --    0.17430   0.26655   0.27918   0.51032   0.74242
 Alpha virt. eigenvalues --    0.76822   0.86896   0.88108   0.92359   1.08148
 Alpha virt. eigenvalues --    1.15155   1.22383   1.28911   1.38375   2.64665

 Mulliken charges:
               1
     1  O   -0.766422
     2  H    0.385176
     3  H    0.354224
     4  O   -0.830881
     5  H    0.407360
     6  H    0.450543
 Sum of Mulliken charges =  -0.00000

 Dipole moment (field-independent basis, Debye):
    X=             -0.6146    Y=              4.4900    Z=              0.0000  Tot=              4.5319
 Quadrupole moment (field-independent basis, Debye-Ang):
   XX=             -9.8141   YY=             -9.3989   ZZ=            -15.0084
   XY=              4.6973   XZ=              0.0000   YZ=              0.0000

 89\MP4DQ=-33.8933897\MP4SDQ=-33.8955967\CCSD=-33.8964758\CCSD(T)=-33.8
 Normal termination of Gaussian 16 at Sun Dec 10 06:30:44 2023.
