 Gaussian 16, Revision A.03,
 Gaussian 16:  ES64L-G16RevA.03 25-Dec-2016

 ------------------
 #p CCSD(T)/CEP-31G
 ------------------

 ------------
 H2O_H2O_1956
 ------------
 Symbolic Z-matrix:
 Charge =  0 Multiplicity = 1

                         Standard orientation:
 ---------------------------------------------------------------------
 Center     Atomic      Atomic             Coordinates (Angstroms)
 Number     Number       Type             X           Y           Z
 ---------------------------------------------------------------------
      1          8           0        0.076771    1.881195    0.000000
      2          1           0        0.076008    0.898594    0.000000
      3          1           0       -0.852474    2.200583    0.000000
      4          8           0        0.076771   -1.718011   -0.000000
      5          1           0        0.452091   -2.626108   -0.000000
      6          1           0       -0.903964   -1.778541   -0.000000
 ---------------------------------------------------------------------

 SCF Done:  E(RHF) =  -33.6561142200     A.U. after   11 cycles
 E2 =    -0.2286935890D+00 EUMP2 =    -0.33884807808980D+02
 CCSD(T)
 CCSD(T)= -0.33901765617D+02

 The electronic state is 1-A'.
 Alpha  occ. eigenvalues --   -1.37483  -1.33595  -0.73192  -0.69185  -0.57538
 Alpha  occ. eigenvalues --   -0.53355  -0.52099  -0.48199
 Alpha virt. eigenvalues --    0.17549   0.23767   0.28780   0.34819   0.78163
 Alpha virt. eigenvalues --    0.82560   0.82650   0.85165   0.88899   0.93059
 Alpha virt. eigenvalues --    1.15398   1.19379   1.20584   1.35390   2.52422

 Mulliken charges:
               1
     1  O   -0.760558
     2  H    0.400780
     3  H    0.357474
     4  O   -0.759247
     5  H    0.389426
     6  H    0.372126
 Sum of Mulliken charges =   0.00000

 Dipole moment (field-independent basis, Debye):
    X=             -3.4692    Y=             -4.0351    Z=             -0.0000  Tot=              5.3214
 Quadrupole moment (field-independent basis, Debye-Ang):
   XX=            -10.3352   YY=             -8.1418   ZZ=            -14.9960
   XY=             -3.6195   XZ=             -0.0000   YZ=              0.0000

 286\MP4DQ=-33.8960222\MP4SDQ=-33.8981157\CCSD=-33.8991406\CCSD(T)=-33.
 Normal termination of Gaussian 16 at Sun Dec 10 06:55:48 2023.
