 Gaussian 16, Revision A.03,
 Gaussian 16:  ES64L-G16RevA.03 25-Dec-2016

 ------------------
 #p CCSD(T)/CEP-31G
 ------------------

 ------------
 H2O_H2O_3678
 ------------
 Symbolic Z-matrix:
 Charge =  0 Multiplicity = 1

                         Standard orientation:
 ---------------------------------------------------------------------
 Center     Atomic      Atomic             Coordinates (Angstroms)
 Number     Number       Type             X           Y           Z
 ---------------------------------------------------------------------
      1          8           0        0.085599   -2.561878    0.000000
      2          1           0        0.085348   -1.579277    0.000000
      3          1           0       -0.843813   -2.880782    0.000000
      4          8           0        0.085599    2.412277    0.000000
      5          1           0        0.277050    3.376048    0.000000
      6          1           0       -0.888169    2.280820    0.000000
 ---------------------------------------------------------------------

 SCF Done:  E(RHF) =  -33.6526491988     A.U. after   11 cycles
 E2 =    -0.2283492357D+00 EUMP2 =    -0.33880998434446D+02
 CCSD(T)
 CCSD(T)= -0.33897976307D+02

 The electronic state is 1-A'.
 Alpha  occ. eigenvalues --   -1.36504  -1.34833  -0.72158  -0.70442  -0.56294
 Alpha  occ. eigenvalues --   -0.54581  -0.51084  -0.49411
 Alpha virt. eigenvalues --    0.18956   0.21290   0.29555   0.31341   0.79487
 Alpha virt. eigenvalues --    0.81117   0.82354   0.84129   0.85448   0.87437
 Alpha virt. eigenvalues --    1.16366   1.18230   1.20870   1.23135   2.56231

 Mulliken charges:
               1
     1  O   -0.744567
     2  H    0.378700
     3  H    0.365765
     4  O   -0.744918
     5  H    0.376555
     6  H    0.368465
 Sum of Mulliken charges =  -0.00000

 Dipole moment (field-independent basis, Debye):
    X=             -3.9262    Y=              3.5370    Z=              0.0000  Tot=              5.2845
 Quadrupole moment (field-independent basis, Debye-Ang):
   XX=            -10.8066   YY=             -8.2027   ZZ=            -14.9897
   XY=              3.2257   XZ=              0.0000   YZ=              0.0000

 5901\MP4DQ=-33.8923335\MP4SDQ=-33.894362\CCSD=-33.8954133\CCSD(T)=-33.
 Normal termination of Gaussian 16 at Sun Dec 10 06:39:11 2023.
