 Gaussian 16, Revision A.03,
 Gaussian 16:  ES64L-G16RevA.03 25-Dec-2016

 ------------------
 #p CCSD(T)/CEP-31G
 ------------------

 -----------
 H2O_H2O_259
 -----------
 Symbolic Z-matrix:
 Charge =  0 Multiplicity = 1

                         Standard orientation:
 ---------------------------------------------------------------------
 Center     Atomic      Atomic             Coordinates (Angstroms)
 Number     Number       Type             X           Y           Z
 ---------------------------------------------------------------------
      1          8           0        0.066848    1.208425   -0.000000
      2          1           0        0.064867    0.225826   -0.000000
      3          1           0       -0.862000    1.528965   -0.000000
      4          8           0        0.066848   -1.035457    0.000000
      5          1           0        0.611105   -1.853559    0.000000
      6          1           0       -0.883543   -1.284977    0.000000
 ---------------------------------------------------------------------

 SCF Done:  E(RHF) =  -33.6283567372     A.U. after   11 cycles
 E2 =    -0.2284526743D+00 EUMP2 =    -0.33856809411493D+02
 CCSD(T)
 CCSD(T)= -0.33871959313D+02

 The electronic state is 1-A'.
 Alpha  occ. eigenvalues --   -1.43548  -1.28386  -0.79426  -0.73959  -0.57399
 Alpha  occ. eigenvalues --   -0.56457  -0.46388  -0.42561
 Alpha virt. eigenvalues --    0.16392   0.25228   0.29362   0.59261   0.73398
 Alpha virt. eigenvalues --    0.74219   0.87030   0.90533   0.95184   1.06826
 Alpha virt. eigenvalues --    1.12855   1.19862   1.25623   1.34692   2.88704

 Mulliken charges:
               1
     1  O   -0.740975
     2  H    0.365871
     3  H    0.311619
     4  O   -0.823649
     5  H    0.474692
     6  H    0.412442
 Sum of Mulliken charges =  -0.00000

 Dipole moment (field-independent basis, Debye):
    X=             -2.7310    Y=             -5.2701    Z=              0.0000  Tot=              5.9357
 Quadrupole moment (field-independent basis, Debye-Ang):
   XX=             -9.8386   YY=            -10.2088   ZZ=            -14.9643
   XY=             -3.3041   XZ=              0.0000   YZ=             -0.0000

 9\MP4DQ=-33.8657952\MP4SDQ=-33.8681242\CCSD=-33.8688185\CCSD(T)=-33.87
 Normal termination of Gaussian 16 at Sun Dec 10 06:23:09 2023.
