 Gaussian 16, Revision A.03,
 Gaussian 16:  ES64L-G16RevA.03 25-Dec-2016

 ------------------
 #p CCSD(T)/CEP-31G
 ------------------

 ------------
 H2O_H2O_3748
 ------------
 Symbolic Z-matrix:
 Charge =  0 Multiplicity = 1

                         Standard orientation:
 ---------------------------------------------------------------------
 Center     Atomic      Atomic             Coordinates (Angstroms)
 Number     Number       Type             X           Y           Z
 ---------------------------------------------------------------------
      1          8           0       -0.016603    2.589326    0.000000
      2          1           0       -0.014021    1.606728    0.000000
      3          1           0        0.912049    2.910434    0.000000
      4          8           0       -0.016603   -2.425926    0.000000
      5          1           0       -0.996928   -2.492768    0.000000
      6          1           0        0.364555   -3.331590    0.000000
 ---------------------------------------------------------------------

 SCF Done:  E(RHF) =  -33.6541048322     A.U. after   11 cycles
 E2 =    -0.2282726938D+00 EUMP2 =    -0.33882377525985D+02
 CCSD(T)
 CCSD(T)= -0.33899314695D+02

 The electronic state is 1-A'.
 Alpha  occ. eigenvalues --   -1.36424  -1.34582  -0.72069  -0.70223  -0.56289
 Alpha  occ. eigenvalues --   -0.54396  -0.51028  -0.49193
 Alpha virt. eigenvalues --    0.19284   0.21481   0.29703   0.31685   0.79529
 Alpha virt. eigenvalues --    0.81311   0.82290   0.84273   0.85521   0.87436
 Alpha virt. eigenvalues --    1.16563   1.18498   1.20972   1.23331   2.56498

 Mulliken charges:
               1
     1  O   -0.750157
     2  H    0.380383
     3  H    0.369661
     4  O   -0.749502
     5  H    0.374467
     6  H    0.375148
 Sum of Mulliken charges =  -0.00000

 Dipole moment (field-independent basis, Debye):
    X=              0.7599    Y=             -3.8524    Z=              0.0000  Tot=              3.9267
 Quadrupole moment (field-independent basis, Debye-Ang):
   XX=             -9.7711   YY=             -7.0409   ZZ=            -14.9931
   XY=              9.0730   XZ=              0.0000   YZ=              0.0000

 327\MP4DQ=-33.8936832\MP4SDQ=-33.8957077\CCSD=-33.8967567\CCSD(T)=-33.
 Normal termination of Gaussian 16 at Sun Dec 10 06:40:27 2023.
