 Gaussian 16, Revision A.03,
 Gaussian 16:  ES64L-G16RevA.03 25-Dec-2016

 ------------------
 #p CCSD(T)/CEP-31G
 ------------------

 ------------
 H2O_H2O_1008
 ------------
 Symbolic Z-matrix:
 Charge =  0 Multiplicity = 1

                         Standard orientation:
 ---------------------------------------------------------------------
 Center     Atomic      Atomic             Coordinates (Angstroms)
 Number     Number       Type             X           Y           Z
 ---------------------------------------------------------------------
      1          8           0        0.070242    1.506061    0.000000
      2          1           0        0.068883    0.523460    0.000000
      3          1           0       -0.858809    1.826012    0.000000
      4          8           0        0.070242   -1.335888    0.000000
      5          1           0        0.560366   -2.187525    0.000000
      6          1           0       -0.894317   -1.523327    0.000000
 ---------------------------------------------------------------------

 SCF Done:  E(RHF) =  -33.6594157059     A.U. after   11 cycles
 E2 =    -0.2290585218D+00 EUMP2 =    -0.33888474227732D+02
 CCSD(T)
 CCSD(T)= -0.33905083561D+02

 The electronic state is 1-A'.
 Alpha  occ. eigenvalues --   -1.39054  -1.31691  -0.74857  -0.68358  -0.59153
 Alpha  occ. eigenvalues --   -0.53700  -0.51188  -0.46267
 Alpha virt. eigenvalues --    0.17269   0.26131   0.27706   0.44603   0.75435
 Alpha virt. eigenvalues --    0.78006   0.85258   0.86172   0.93935   1.07829
 Alpha virt. eigenvalues --    1.16420   1.17745   1.22121   1.36429   2.52927

 Mulliken charges:
               1
     1  O   -0.771468
     2  H    0.424652
     3  H    0.343124
     4  O   -0.804974
     5  H    0.424419
     6  H    0.384247
 Sum of Mulliken charges =   0.00000

 Dipole moment (field-independent basis, Debye):
    X=             -3.0679    Y=             -4.5072    Z=              0.0000  Tot=              5.4522
 Quadrupole moment (field-independent basis, Debye-Ang):
   XX=            -10.0311   YY=             -8.8334   ZZ=            -15.0089
   XY=             -3.6260   XZ=              0.0000   YZ=              0.0000

 083\MP4DQ=-33.8991867\MP4SDQ=-33.9013447\CCSD=-33.9022975\CCSD(T)=-33.
 Normal termination of Gaussian 16 at Sun Dec 10 06:37:28 2023.
