 Gaussian 16, Revision A.03,
 Gaussian 16:  ES64L-G16RevA.03 25-Dec-2016

 ------------------
 #p CCSD(T)/CEP-31G
 ------------------

 ------------
 H2O_H2O_2914
 ------------
 Symbolic Z-matrix:
 Charge =  0 Multiplicity = 1

                         Standard orientation:
 ---------------------------------------------------------------------
 Center     Atomic      Atomic             Coordinates (Angstroms)
 Number     Number       Type             X           Y           Z
 ---------------------------------------------------------------------
      1          8           0        0.048589    2.269473   -0.000000
      2          1           0        0.046860    1.286873   -0.000000
      3          1           0       -0.880343    2.589773   -0.000000
      4          8           0        0.048589   -2.089090    0.000000
      5          1           0        0.827086   -2.688630    0.000000
      6          1           0       -0.771020   -2.631074    0.000000
 ---------------------------------------------------------------------

 SCF Done:  E(RHF) =  -33.6554550439     A.U. after   11 cycles
 E2 =    -0.2283426836D+00 EUMP2 =    -0.33883797727458D+02
 CCSD(T)
 CCSD(T)= -0.33900702569D+02

 The electronic state is 1-A'.
 Alpha  occ. eigenvalues --   -1.36764  -1.33938  -0.72411  -0.69557  -0.56717
 Alpha  occ. eigenvalues --   -0.53764  -0.51388  -0.48560
 Alpha virt. eigenvalues --    0.18773   0.22406   0.29455   0.32520   0.79180
 Alpha virt. eigenvalues --    0.81922   0.82828   0.84713   0.85324   0.88093
 Alpha virt. eigenvalues --    1.16286   1.19391   1.20712   1.26096   2.55739

 Mulliken charges:
               1
     1  O   -0.755643
     2  H    0.389743
     3  H    0.364918
     4  O   -0.752878
     5  H    0.379116
     6  H    0.374745
 Sum of Mulliken charges =  -0.00000

 Dipole moment (field-independent basis, Debye):
    X=             -2.2132    Y=             -4.3194    Z=              0.0000  Tot=              4.8534
 Quadrupole moment (field-independent basis, Debye-Ang):
   XX=             -9.4589   YY=             -6.5468   ZZ=            -14.9959
   XY=             -5.8325   XZ=              0.0000   YZ=             -0.0000

 34\MP4DQ=-33.8950576\MP4SDQ=-33.8970973\CCSD=-33.8981349\CCSD(T)=-33.9
 Normal termination of Gaussian 16 at Sun Dec 10 06:25:27 2023.
