 Gaussian 16, Revision A.03,
 Gaussian 16:  ES64L-G16RevA.03 25-Dec-2016

 ------------------
 #p CCSD(T)/CEP-31G
 ------------------

 ---------
 H2O_H2O_8
 ---------
 Symbolic Z-matrix:
 Charge =  0 Multiplicity = 1

                         Standard orientation:
 ---------------------------------------------------------------------
 Center     Atomic      Atomic             Coordinates (Angstroms)
 Number     Number       Type             X           Y           Z
 ---------------------------------------------------------------------
      1          8           0        0.070288    1.107146    0.000000
      2          1           0        0.068399    0.124547    0.000000
      3          1           0       -0.858591    1.427599    0.000000
      4          8           0        0.070288   -0.937050   -0.000000
      5          1           0        0.559952   -1.788950   -0.000000
      6          1           0       -0.894371   -1.123968   -0.000000
 ---------------------------------------------------------------------

 SCF Done:  E(RHF) =  -33.5733634760     A.U. after   11 cycles
 E2 =    -0.2275035043D+00 EUMP2 =    -0.33800866980346D+02
 CCSD(T)
 CCSD(T)= -0.33815479349D+02

 The electronic state is 1-A'.
 Alpha  occ. eigenvalues --   -1.47600  -1.26931  -0.84087  -0.76863  -0.59825
 Alpha  occ. eigenvalues --   -0.53901  -0.43561  -0.40719
 Alpha virt. eigenvalues --    0.15803   0.23655   0.30750   0.62240   0.73076
 Alpha virt. eigenvalues --    0.73854   0.89116   0.91940   0.93247   1.08622
 Alpha virt. eigenvalues --    1.09703   1.19784   1.30135   1.39771   3.10500

 Mulliken charges:
               1
     1  O   -0.709608
     2  H    0.239281
     3  H    0.291581
     4  O   -0.740225
     5  H    0.497093
     6  H    0.421878
 Sum of Mulliken charges =  -0.00000

 Dipole moment (field-independent basis, Debye):
    X=             -2.7878    Y=             -5.6587    Z=             -0.0000  Tot=              6.3082
 Quadrupole moment (field-independent basis, Debye-Ang):
   XX=             -9.9420   YY=            -10.7895   ZZ=            -14.8858
   XY=             -3.0222   XZ=              0.0000   YZ=              0.0000

 MP4DQ=-33.8090991\MP4SDQ=-33.8116143\CCSD=-33.812187\CCSD(T)=-33.81547
 Normal termination of Gaussian 16 at Sun Dec 10 06:18:10 2023.
