 Gaussian 16, Revision A.03,
 Gaussian 16:  ES64L-G16RevA.03 25-Dec-2016

 ------------------
 #p CCSD(T)/CEP-31G
 ------------------

 ------------
 H2O_H2O_1479
 ------------
 Symbolic Z-matrix:
 Charge =  0 Multiplicity = 1

                         Standard orientation:
 ---------------------------------------------------------------------
 Center     Atomic      Atomic             Coordinates (Angstroms)
 Number     Number       Type             X           Y           Z
 ---------------------------------------------------------------------
      1          8           0        0.082816   -1.687006    0.000000
      2          1           0        0.082281   -0.704405    0.000000
      3          1           0       -0.846504   -2.006179    0.000000
      4          8           0        0.082816    1.532515    0.000000
      5          1           0        0.336616    2.481773    0.000000
      6          1           0       -0.897446    1.464743    0.000000
 ---------------------------------------------------------------------

 SCF Done:  E(RHF) =  -33.6560888644     A.U. after   11 cycles
 E2 =    -0.2289537903D+00 EUMP2 =    -0.33885042654682D+02
 CCSD(T)
 CCSD(T)= -0.33902021064D+02

 The electronic state is 1-A'.
 Alpha  occ. eigenvalues --   -1.38114  -1.33317  -0.73968  -0.68930  -0.58214
 Alpha  occ. eigenvalues --   -0.52989  -0.52707  -0.47893
 Alpha virt. eigenvalues --    0.17110   0.24672   0.28219   0.37990   0.76943
 Alpha virt. eigenvalues --    0.80993   0.83721   0.85066   0.89982   1.04918
 Alpha virt. eigenvalues --    1.15127   1.17830   1.21480   1.38913   2.50589

 Mulliken charges:
               1
     1  O   -0.761171
     2  H    0.405106
     3  H    0.352118
     4  O   -0.769305
     5  H    0.402148
     6  H    0.371104
 Sum of Mulliken charges =   0.00000

 Dipole moment (field-independent basis, Debye):
    X=             -3.7104    Y=              3.9349    Z=              0.0000  Tot=              5.4084
 Quadrupole moment (field-independent basis, Debye-Ang):
   XX=            -10.6750   YY=             -8.7516   ZZ=            -14.9960
   XY=              3.1011   XZ=              0.0000   YZ=              0.0000

 4711\MP4DQ=-33.896184\MP4SDQ=-33.8983272\CCSD=-33.8993365\CCSD(T)=-33.
 Normal termination of Gaussian 16 at Sun Dec 10 06:46:40 2023.
