 Gaussian 16, Revision A.03,
 Gaussian 16:  ES64L-G16RevA.03 25-Dec-2016

 ------------------
 #p CCSD(T)/CEP-31G
 ------------------

 ------------
 H2O_H2O_4224
 ------------
 Symbolic Z-matrix:
 Charge =  0 Multiplicity = 1

                         Standard orientation:
 ---------------------------------------------------------------------
 Center     Atomic      Atomic             Coordinates (Angstroms)
 Number     Number       Type             X           Y           Z
 ---------------------------------------------------------------------
      1          8           0       -0.013481    2.776552    0.000000
      2          1           0       -0.010981    1.793954    0.000000
      3          1           0        0.915199    3.097581    0.000000
      4          8           0       -0.013481   -2.617277    0.000000
      5          1           0       -0.996079   -2.619776    0.000000
      6          1           0        0.307550   -3.545957    0.000000
 ---------------------------------------------------------------------

 SCF Done:  E(RHF) =  -33.6535733069     A.U. after   11 cycles
 E2 =    -0.2282817911D+00 EUMP2 =    -0.33881855098072D+02
 CCSD(T)
 CCSD(T)= -0.33898807024D+02

 The electronic state is 1-A'.
 Alpha  occ. eigenvalues --   -1.36305  -1.34780  -0.71948  -0.70421  -0.56139
 Alpha  occ. eigenvalues --   -0.54579  -0.50902  -0.49383
 Alpha virt. eigenvalues --    0.19499   0.21165   0.29813   0.31415   0.79651
 Alpha virt. eigenvalues --    0.81132   0.82475   0.84112   0.85645   0.87220
 Alpha virt. eigenvalues --    1.16669   1.18221   1.21104   1.22769   2.56591

 Mulliken charges:
               1
     1  O   -0.748077
     2  H    0.377868
     3  H    0.370185
     4  O   -0.747709
     5  H    0.373434
     6  H    0.374298
 Sum of Mulliken charges =   0.00000

 Dipole moment (field-independent basis, Debye):
    X=              0.6185    Y=             -3.7386    Z=              0.0000  Tot=              3.7894
 Quadrupole moment (field-independent basis, Debye-Ang):
   XX=             -9.8759   YY=             -7.1273   ZZ=            -14.9920
   XY=             10.0611   XZ=              0.0000   YZ=              0.0000

 59\MP4DQ=-33.8931743\MP4SDQ=-33.8951979\CCSD=-33.8962496\CCSD(T)=-33.8
 Normal termination of Gaussian 16 at Sun Dec 10 06:49:02 2023.
