 Gaussian 16, Revision A.03,
 Gaussian 16:  ES64L-G16RevA.03 25-Dec-2016

 ------------------
 #p CCSD(T)/CEP-31G
 ------------------

 -----------
 H2O_H2O_356
 -----------
 Symbolic Z-matrix:
 Charge =  0 Multiplicity = 1

                         Standard orientation:
 ---------------------------------------------------------------------
 Center     Atomic      Atomic             Coordinates (Angstroms)
 Number     Number       Type             X           Y           Z
 ---------------------------------------------------------------------
      1          8           0        0.076806   -1.242959    0.000000
      2          1           0        0.075623   -0.260358    0.000000
      3          1           0       -0.852303   -1.562744    0.000000
      4          8           0        0.076806    1.079840    0.000000
      5          1           0        0.451738    1.988098    0.000000
      6          1           0       -0.903955    1.139951    0.000000
 ---------------------------------------------------------------------

 SCF Done:  E(RHF) =  -33.6340785037     A.U. after   11 cycles
 E2 =    -0.2285441167D+00 EUMP2 =    -0.33862622620386D+02
 CCSD(T)
 CCSD(T)= -0.33878279888D+02

 The electronic state is 1-A'.
 Alpha  occ. eigenvalues --   -1.42702  -1.29570  -0.79387  -0.71462  -0.57627
 Alpha  occ. eigenvalues --   -0.56628  -0.48042  -0.43832
 Alpha virt. eigenvalues --    0.16426   0.25044   0.28818   0.56653   0.73478
 Alpha virt. eigenvalues --    0.75349   0.86664   0.89579   0.96795   1.07597
 Alpha virt. eigenvalues --    1.14217   1.24028   1.24455   1.36682   2.82726

 Mulliken charges:
               1
     1  O   -0.728539
     2  H    0.361935
     3  H    0.317955
     4  O   -0.825559
     5  H    0.477669
     6  H    0.396539
 Sum of Mulliken charges =  -0.00000

 Dipole moment (field-independent basis, Debye):
    X=             -3.1969    Y=              4.9001    Z=              0.0000  Tot=              5.8507
 Quadrupole moment (field-independent basis, Debye-Ang):
   XX=            -10.3267   YY=             -9.9030   ZZ=            -14.9716
   XY=              3.0930   XZ=              0.0000   YZ=              0.0000

 967\MP4DQ=-33.8721163\MP4SDQ=-33.8744556\CCSD=-33.8752234\CCSD(T)=-33.
 Normal termination of Gaussian 16 at Sun Dec 10 06:25:04 2023.
