 Gaussian 16, Revision A.03,
 Gaussian 16:  ES64L-G16RevA.03 25-Dec-2016

 ------------------
 #p CCSD(T)/CEP-31G
 ------------------

 ------------
 H2O_H2O_3569
 ------------
 Symbolic Z-matrix:
 Charge =  0 Multiplicity = 1

                         Standard orientation:
 ---------------------------------------------------------------------
 Center     Atomic      Atomic             Coordinates (Angstroms)
 Number     Number       Type             X           Y           Z
 ---------------------------------------------------------------------
      1          8           0        0.030174    2.526157   -0.000000
      2          1           0        0.027989    1.543558   -0.000000
      3          1           0       -0.898608    2.846889   -0.000000
      4          8           0        0.030174   -2.350539    0.000000
      5          1           0        0.959925   -2.668454    0.000000
      6          1           0       -0.572085   -3.126935    0.000000
 ---------------------------------------------------------------------

 SCF Done:  E(RHF) =  -33.6544435281     A.U. after   11 cycles
 E2 =    -0.2282788776D+00 EUMP2 =    -0.33882722405675D+02
 CCSD(T)
 CCSD(T)= -0.33899648644D+02

 The electronic state is 1-A'.
 Alpha  occ. eigenvalues --   -1.36482  -1.34356  -0.72125  -0.69990  -0.56369
 Alpha  occ. eigenvalues --   -0.54174  -0.51092  -0.48970
 Alpha virt. eigenvalues --    0.19250   0.21726   0.29665   0.31947   0.79469
 Alpha virt. eigenvalues --    0.81524   0.82228   0.84501   0.85497   0.87652
 Alpha virt. eigenvalues --    1.16530   1.18752   1.20932   1.23740   2.56490

 Mulliken charges:
               1
     1  O   -0.751465
     2  H    0.383142
     3  H    0.368101
     4  O   -0.750266
     5  H    0.375800
     6  H    0.374688
 Sum of Mulliken charges =   0.00000

 Dipole moment (field-independent basis, Debye):
    X=             -1.3797    Y=             -4.1526    Z=              0.0000  Tot=              4.3758
 Quadrupole moment (field-independent basis, Debye-Ang):
   XX=             -9.4718   YY=             -6.2732   ZZ=            -14.9939
   XY=             -7.7209   XZ=              0.0000   YZ=             -0.0000

 8\MP4DQ=-33.8940177\MP4SDQ=-33.8960436\CCSD=-33.8970903\CCSD(T)=-33.89
 Normal termination of Gaussian 16 at Sun Dec 10 06:37:14 2023.
