 Gaussian 16, Revision A.03,
 Gaussian 16:  ES64L-G16RevA.03 25-Dec-2016

 ------------------
 #p CCSD(T)/CEP-31G
 ------------------

 ------------
 H2O_H2O_3729
 ------------
 Symbolic Z-matrix:
 Charge =  0 Multiplicity = 1

                         Standard orientation:
 ---------------------------------------------------------------------
 Center     Atomic      Atomic             Coordinates (Angstroms)
 Number     Number       Type             X           Y           Z
 ---------------------------------------------------------------------
      1          8           0        0.082801    2.584496   -0.000000
      2          1           0        0.082457    1.601895   -0.000000
      3          1           0       -0.846581    2.903488   -0.000000
      4          8           0        0.082801   -2.429972    0.000000
      5          1           0        0.336785   -3.379181    0.000000
      6          1           0       -0.897475   -2.362392    0.000000
 ---------------------------------------------------------------------

 SCF Done:  E(RHF) =  -33.6527942088     A.U. after   11 cycles
 E2 =    -0.2283407237D+00 EUMP2 =    -0.33881134932512D+02
 CCSD(T)
 CCSD(T)= -0.33898108114D+02

 The electronic state is 1-A'.
 Alpha  occ. eigenvalues --   -1.36482  -1.34777  -0.72135  -0.70388  -0.56280
 Alpha  occ. eigenvalues --   -0.54530  -0.51065  -0.49358
 Alpha virt. eigenvalues --    0.19070   0.21291   0.29576   0.31411   0.79504
 Alpha virt. eigenvalues --    0.81167   0.82357   0.84182   0.85468   0.87459
 Alpha virt. eigenvalues --    1.16423   1.18260   1.20883   1.23120   2.56340

 Mulliken charges:
               1
     1  O   -0.745122
     2  H    0.379173
     3  H    0.365853
     4  O   -0.745348
     5  H    0.376450
     6  H    0.368996
 Sum of Mulliken charges =  -0.00000

 Dipole moment (field-independent basis, Debye):
    X=             -3.7979    Y=             -3.6512    Z=              0.0000  Tot=              5.2683
 Quadrupole moment (field-independent basis, Debye-Ang):
   XX=            -10.6415   YY=             -7.7862   ZZ=            -14.9901
   XY=             -3.5444   XZ=              0.0000   YZ=             -0.0000

 228\MP4DQ=-33.892467\MP4SDQ=-33.8944948\CCSD=-33.895546\CCSD(T)=-33.89
 Normal termination of Gaussian 16 at Sun Dec 10 06:40:06 2023.
