 Gaussian 16, Revision A.03,
 Gaussian 16:  ES64L-G16RevA.03 25-Dec-2016

 ------------------
 #p CCSD(T)/CEP-31G
 ------------------

 -----------
 H2O_H2O_295
 -----------
 Symbolic Z-matrix:
 Charge =  0 Multiplicity = 1

                         Standard orientation:
 ---------------------------------------------------------------------
 Center     Atomic      Atomic             Coordinates (Angstroms)
 Number     Number       Type             X           Y           Z
 ---------------------------------------------------------------------
      1          8           0        0.026876    1.218475   -0.000000
      2          1           0        0.021905    0.235886   -0.000000
      3          1           0       -0.900994    1.541839   -0.000000
      4          8           0        0.026876   -1.045385    0.000000
      5          1           0        0.974697   -1.304499    0.000000
      6          1           0       -0.525620   -1.857945    0.000000
 ---------------------------------------------------------------------

 SCF Done:  E(RHF) =  -33.6351979988     A.U. after   11 cycles
 E2 =    -0.2279177585D+00 EUMP2 =    -0.33863115757265D+02
 CCSD(T)
 CCSD(T)= -0.33878226180D+02

 The electronic state is 1-A'.
 Alpha  occ. eigenvalues --   -1.43057  -1.28085  -0.78955  -0.73298  -0.57097
 Alpha  occ. eigenvalues --   -0.57083  -0.46111  -0.42396
 Alpha virt. eigenvalues --    0.16925   0.25806   0.29332   0.59200   0.73551
 Alpha virt. eigenvalues --    0.74305   0.87719   0.90592   0.93725   1.01236
 Alpha virt. eigenvalues --    1.14826   1.19928   1.27904   1.36893   2.82969

 Mulliken charges:
               1
     1  O   -0.760799
     2  H    0.363607
     3  H    0.329976
     4  O   -0.828590
     5  H    0.431043
     6  H    0.464762
 Sum of Mulliken charges =   0.00000

 Dipole moment (field-independent basis, Debye):
    X=             -1.1598    Y=             -5.2389    Z=              0.0000  Tot=              5.3657
 Quadrupole moment (field-independent basis, Debye-Ang):
   XX=             -9.4052   YY=            -10.1265   ZZ=            -14.9798
   XY=             -3.7494   XZ=              0.0000   YZ=             -0.0000

 46\MP4DQ=-33.8721744\MP4SDQ=-33.8744164\CCSD=-33.8751272\CCSD(T)=-33.8
 Normal termination of Gaussian 16 at Sun Dec 10 06:23:52 2023.
