 Gaussian 16, Revision A.03,
 Gaussian 16:  ES64L-G16RevA.03 25-Dec-2016

 ------------------
 #p CCSD(T)/CEP-31G
 ------------------

 ------------
 H2O_H2O_2273
 ------------
 Symbolic Z-matrix:
 Charge =  0 Multiplicity = 1

                         Standard orientation:
 ---------------------------------------------------------------------
 Center     Atomic      Atomic             Coordinates (Angstroms)
 Number     Number       Type             X           Y           Z
 ---------------------------------------------------------------------
      1          8           0       -0.016669    2.000971    0.000000
      2          1           0       -0.013295    1.018375    0.000000
      3          1           0        0.911724    2.322828    0.000000
      4          8           0       -0.016669   -1.837599    0.000000
      5          1           0       -0.996941   -1.905230    0.000000
      6          1           0        0.365218   -2.742954    0.000000
 ---------------------------------------------------------------------

 SCF Done:  E(RHF) =  -33.6573188085     A.U. after   11 cycles
 E2 =    -0.2284492368D+00 EUMP2 =    -0.33885768045313D+02
 CCSD(T)
 CCSD(T)= -0.33902669064D+02

 The electronic state is 1-A'.
 Alpha  occ. eigenvalues --   -1.37125  -1.33714  -0.72798  -0.69372  -0.57212
 Alpha  occ. eigenvalues --   -0.53583  -0.51768  -0.48370
 Alpha virt. eigenvalues --    0.17945   0.23402   0.29203   0.33692   0.78669
 Alpha virt. eigenvalues --    0.82237   0.82842   0.85298   0.87767   0.89114
 Alpha virt. eigenvalues --    1.15894   1.19834   1.20528   1.32494   2.54223

 Mulliken charges:
               1
     1  O   -0.764561
     2  H    0.394866
     3  H    0.367717
     4  O   -0.760355
     5  H    0.379948
     6  H    0.382385
 Sum of Mulliken charges =  -0.00000

 Dipole moment (field-independent basis, Debye):
    X=              0.7519    Y=             -3.9756    Z=              0.0000  Tot=              4.0460
 Quadrupole moment (field-independent basis, Debye-Ang):
   XX=             -9.7593   YY=             -7.9015   ZZ=            -14.9989
   XY=              6.9889   XZ=              0.0000   YZ=              0.0000

 262\MP4DQ=-33.8969789\MP4SDQ=-33.8990467\CCSD=-33.9000739\CCSD(T)=-33.
 Normal termination of Gaussian 16 at Sun Dec 10 07:03:15 2023.
