 Gaussian 16, Revision A.03,
 Gaussian 16:  ES64L-G16RevA.03 25-Dec-2016

 ------------------
 #p CCSD(T)/CEP-31G
 ------------------

 ------------
 H2O_H2O_1773
 ------------
 Symbolic Z-matrix:
 Charge =  0 Multiplicity = 1

                         Standard orientation:
 ---------------------------------------------------------------------
 Center     Atomic      Atomic             Coordinates (Angstroms)
 Number     Number       Type             X           Y           Z
 ---------------------------------------------------------------------
      1          8           0       -0.016702    1.801527    0.000000
      2          1           0       -0.012936    0.818933    0.000000
      3          1           0        0.911563    2.123753    0.000000
      4          8           0       -0.016702   -1.638168    0.000000
      5          1           0       -0.996946   -1.706189    0.000000
      6          1           0        0.365546   -2.543371    0.000000
 ---------------------------------------------------------------------

 SCF Done:  E(RHF) =  -33.6593746900     A.U. after   11 cycles
 E2 =    -0.2286111289D+00 EUMP2 =    -0.33887985818870D+02
 CCSD(T)
 CCSD(T)= -0.33904868903D+02

 The electronic state is 1-A'.
 Alpha  occ. eigenvalues --   -1.37579  -1.33147  -0.73292  -0.68860  -0.57875
 Alpha  occ. eigenvalues --   -0.53003  -0.52243  -0.47826
 Alpha virt. eigenvalues --    0.17783   0.24480   0.28875   0.36290   0.77803
 Alpha virt. eigenvalues --    0.81622   0.83199   0.86134   0.88221   0.97145
 Alpha virt. eigenvalues --    1.15646   1.19281   1.21000   1.36446   2.51941

 Mulliken charges:
               1
     1  O   -0.774179
     2  H    0.405389
     3  H    0.365895
     4  O   -0.771823
     5  H    0.383979
     6  H    0.390740
 Sum of Mulliken charges =  -0.00000

 Dipole moment (field-independent basis, Debye):
    X=              0.7495    Y=             -4.0645    Z=              0.0000  Tot=              4.1330
 Quadrupole moment (field-independent basis, Debye-Ang):
   XX=             -9.7516   YY=             -8.2369   ZZ=            -15.0032
   XY=              6.2702   XZ=              0.0000   YZ=              0.0000

 82\MP4DQ=-33.8991194\MP4SDQ=-33.9012151\CCSD=-33.9022323\CCSD(T)=-33.9
 Normal termination of Gaussian 16 at Sun Dec 10 06:52:21 2023.
