 Gaussian 16, Revision A.03,
 Gaussian 16:  ES64L-G16RevA.03 25-Dec-2016

 ------------------
 #p CCSD(T)/CEP-31G
 ------------------

 -----------
 H2O_H2O_412
 -----------
 Symbolic Z-matrix:
 Charge =  0 Multiplicity = 1

                         Standard orientation:
 ---------------------------------------------------------------------
 Center     Atomic      Atomic             Coordinates (Angstroms)
 Number     Number       Type             X           Y           Z
 ---------------------------------------------------------------------
      1          8           0        0.056105    1.271407    0.000000
      2          1           0        0.053451    0.288809    0.000000
      3          1           0       -0.872524    1.592583   -0.000000
      4          8           0        0.056105   -1.092643    0.000000
      5          1           0        0.749031   -1.789322    0.000000
      6          1           0       -0.827641   -1.522178   -0.000000
 ---------------------------------------------------------------------

 SCF Done:  E(RHF) =  -33.6465445225     A.U. after   11 cycles
 E2 =    -0.2287997869D+00 EUMP2 =    -0.33875344309458D+02
 CCSD(T)
 CCSD(T)= -0.33890730282D+02

 The electronic state is 1-A'.
 Alpha  occ. eigenvalues --   -1.41939  -1.28831  -0.77053  -0.72891  -0.57507
 Alpha  occ. eigenvalues --   -0.56322  -0.47315  -0.43178
 Alpha virt. eigenvalues --    0.16787   0.26281   0.28724   0.56837   0.73713
 Alpha virt. eigenvalues --    0.73976   0.85741   0.89858   0.95163   1.04125
 Alpha virt. eigenvalues --    1.13540   1.17672   1.24943   1.35712   2.76175

 Mulliken charges:
               1
     1  O   -0.763876
     2  H    0.407290
     3  H    0.322570
     4  O   -0.833420
     5  H    0.450388
     6  H    0.417047
 Sum of Mulliken charges =   0.00000

 Dipole moment (field-independent basis, Debye):
    X=             -2.3351    Y=             -5.1920    Z=             -0.0000  Tot=              5.6929
 Quadrupole moment (field-independent basis, Debye-Ang):
   XX=             -9.5071   YY=             -9.9449   ZZ=            -14.9959
   XY=             -3.5847   XZ=              0.0000   YZ=             -0.0000

 1\MP4DQ=-33.8846852\MP4SDQ=-33.8869193\CCSD=-33.8876637\CCSD(T)=-33.89
 Normal termination of Gaussian 16 at Sun Dec 10 06:26:10 2023.
