 Gaussian 16, Revision A.03,
 Gaussian 16:  ES64L-G16RevA.03 25-Dec-2016

 ------------------
 #p CCSD(T)/CEP-31G
 ------------------

 ------------
 H2O_H2O_2945
 ------------
 Symbolic Z-matrix:
 Charge =  0 Multiplicity = 1

                         Standard orientation:
 ---------------------------------------------------------------------
 Center     Atomic      Atomic             Coordinates (Angstroms)
 Number     Number       Type             X           Y           Z
 ---------------------------------------------------------------------
      1          8           0        0.026664    2.275558    0.000000
      2          1           0        0.024094    1.292960    0.000000
      3          1           0       -0.901992    2.596655    0.000000
      4          8           0        0.026664   -2.102338   -0.000000
      5          1           0        0.975117   -2.359136   -0.000000
      6          1           0       -0.523845   -2.916245   -0.000000
 ---------------------------------------------------------------------

 SCF Done:  E(RHF) =  -33.6556137918     A.U. after   11 cycles
 E2 =    -0.2283166215D+00 EUMP2 =    -0.33883930413273D+02
 CCSD(T)
 CCSD(T)= -0.33900832930D+02

 The electronic state is 1-A'.
 Alpha  occ. eigenvalues --   -1.36730  -1.34049  -0.72378  -0.69685  -0.56688
 Alpha  occ. eigenvalues --   -0.53892  -0.51356  -0.48680
 Alpha virt. eigenvalues --    0.18720   0.22343   0.29463   0.32441   0.79207
 Alpha virt. eigenvalues --    0.81803   0.82651   0.84499   0.85627   0.87896
 Alpha virt. eigenvalues --    1.16307   1.19323   1.20715   1.26217   2.55938

 Mulliken charges:
               1
     1  O   -0.756298
     2  H    0.387981
     3  H    0.367449
     4  O   -0.753742
     5  H    0.377678
     6  H    0.376932
 Sum of Mulliken charges =  -0.00000

 Dipole moment (field-independent basis, Debye):
    X=             -1.2133    Y=             -4.1403    Z=             -0.0000  Tot=              4.3145
 Quadrupole moment (field-independent basis, Debye-Ang):
   XX=             -9.5218   YY=             -6.9162   ZZ=            -14.9961
   XY=             -7.2262   XZ=             -0.0000   YZ=              0.0000

 349\MP4DQ=-33.8951902\MP4SDQ=-33.8972282\CCSD=-33.8982662\CCSD(T)=-33.
 Normal termination of Gaussian 16 at Sun Dec 10 06:26:00 2023.
