 Gaussian 16, Revision A.03,
 Gaussian 16:  ES64L-G16RevA.03 25-Dec-2016

 ------------------
 #p CCSD(T)/CEP-31G
 ------------------

 ------------
 H2O_H2O_4998
 ------------
 Symbolic Z-matrix:
 Charge =  0 Multiplicity = 1

                         Standard orientation:
 ---------------------------------------------------------------------
 Center     Atomic      Atomic             Coordinates (Angstroms)
 Number     Number       Type             X           Y           Z
 ---------------------------------------------------------------------
      1          8           0       -0.016568    3.087928    0.000000
      2          1           0       -0.014413    2.105329    0.000000
      3          1           0        0.912224    3.408632    0.000000
      4          8           0       -0.016568   -2.924515    0.000000
      5          1           0       -0.996922   -2.990928    0.000000
      6          1           0        0.364196   -3.830343    0.000000
 ---------------------------------------------------------------------

 SCF Done:  E(RHF) =  -33.6530869524     A.U. after   11 cycles
 E2 =    -0.2283028607D+00 EUMP2 =    -0.33881389813157D+02
 CCSD(T)
 CCSD(T)= -0.33898354530D+02

 The electronic state is 1-A'.
 Alpha  occ. eigenvalues --   -1.36165  -1.34921  -0.71805  -0.70559  -0.55971
 Alpha  occ. eigenvalues --   -0.54703  -0.50756  -0.49516
 Alpha virt. eigenvalues --    0.19676   0.20946   0.29929   0.31216   0.79793
 Alpha virt. eigenvalues --    0.81010   0.82692   0.83997   0.85839   0.87089
 Alpha virt. eigenvalues --    1.16793   1.18040   1.21240   1.22512   2.56772

 Mulliken charges:
               1
     1  O   -0.746154
     2  H    0.376002
     3  H    0.370151
     4  O   -0.745866
     5  H    0.372791
     6  H    0.373077
 Sum of Mulliken charges =  -0.00000

 Dipole moment (field-independent basis, Debye):
    X=              0.7618    Y=             -3.8198    Z=              0.0000  Tot=              3.8951
 Quadrupole moment (field-independent basis, Debye-Ang):
   XX=             -9.7751   YY=             -6.3227   ZZ=            -14.9911
   XY=             10.8373   XZ=              0.0000   YZ=              0.0000

 73\MP4DQ=-33.8927195\MP4SDQ=-33.8947437\CCSD=-33.8957969\CCSD(T)=-33.8
 Normal termination of Gaussian 16 at Sun Dec 10 07:04:14 2023.
