 Gaussian 16, Revision A.03,
 Gaussian 16:  ES64L-G16RevA.03 25-Dec-2016

 ------------------
 #p CCSD(T)/CEP-31G
 ------------------

 ------------
 H2O_H2O_2129
 ------------
 Symbolic Z-matrix:
 Charge =  0 Multiplicity = 1

                         Standard orientation:
 ---------------------------------------------------------------------
 Center     Atomic      Atomic             Coordinates (Angstroms)
 Number     Number       Type             X           Y           Z
 ---------------------------------------------------------------------
      1          8           0        0.082810   -1.946283    0.000000
      2          1           0        0.082349   -0.963681    0.000000
      3          1           0       -0.846534   -2.265385    0.000000
      4          8           0        0.082810    1.791778    0.000000
      5          1           0        0.336681    2.741018    0.000000
      6          1           0       -0.897457    1.724082    0.000000
 ---------------------------------------------------------------------

 SCF Done:  E(RHF) =  -33.6547609793     A.U. after   11 cycles
 E2 =    -0.2286518601D+00 EUMP2 =    -0.33883412839407D+02
 CCSD(T)
 CCSD(T)= -0.33900396597D+02

 The electronic state is 1-A'.
 Alpha  occ. eigenvalues --   -1.37340  -1.34007  -0.73055  -0.69575  -0.57288
 Alpha  occ. eigenvalues --   -0.53754  -0.51938  -0.48595
 Alpha virt. eigenvalues --    0.17336   0.23359   0.28856   0.33731   0.78438
 Alpha virt. eigenvalues --    0.82153   0.82813   0.84875   0.88330   0.90940
 Alpha virt. eigenvalues --    1.15454   1.19189   1.20525   1.34519   2.53831

 Mulliken charges:
               1
     1  O   -0.754907
     2  H    0.393900
     3  H    0.359003
     4  O   -0.753729
     5  H    0.386328
     6  H    0.369405
 Sum of Mulliken charges =  -0.00000

 Dipole moment (field-independent basis, Debye):
    X=             -3.7559    Y=              3.7914    Z=              0.0000  Tot=              5.3367
 Quadrupole moment (field-independent basis, Debye-Ang):
   XX=            -10.6597   YY=             -8.4327   ZZ=            -14.9928
   XY=              3.2293   XZ=              0.0000   YZ=              0.0000

 13\MP4DQ=-33.8946691\MP4SDQ=-33.8967552\CCSD=-33.8977836\CCSD(T)=-33.9
 Normal termination of Gaussian 16 at Sun Dec 10 06:59:08 2023.
