 Gaussian 16, Revision A.03,
 Gaussian 16:  ES64L-G16RevA.03 25-Dec-2016

 ------------------
 #p CCSD(T)/CEP-31G
 ------------------

 ------------
 H2O_H2O_3442
 ------------
 Symbolic Z-matrix:
 Charge =  0 Multiplicity = 1

                         Standard orientation:
 ---------------------------------------------------------------------
 Center     Atomic      Atomic             Coordinates (Angstroms)
 Number     Number       Type             X           Y           Z
 ---------------------------------------------------------------------
      1          8           0        0.037436    2.478118   -0.000000
      2          1           0        0.035464    1.495519   -0.000000
      3          1           0       -0.891415    2.798650   -0.000000
      4          8           0        0.037436   -2.299146    0.000000
      5          1           0        0.917830   -2.735508    0.000000
      6          1           0       -0.660861   -2.990440    0.000000
 ---------------------------------------------------------------------

 SCF Done:  E(RHF) =  -33.6546074660     A.U. after   11 cycles
 E2 =    -0.2282871620D+00 EUMP2 =    -0.33882894627928D+02
 CCSD(T)
 CCSD(T)= -0.33899816028D+02

 The electronic state is 1-A'.
 Alpha  occ. eigenvalues --   -1.36529  -1.34256  -0.72172  -0.69885  -0.56427
 Alpha  occ. eigenvalues --   -0.54074  -0.51142  -0.48871
 Alpha virt. eigenvalues --    0.19183   0.21860   0.29638   0.32054   0.79422
 Alpha virt. eigenvalues --    0.81619   0.82225   0.84607   0.85451   0.87759
 Alpha virt. eigenvalues --    1.16491   1.18887   1.20908   1.24012   2.56436

 Mulliken charges:
               1
     1  O   -0.752103
     2  H    0.384542
     3  H    0.367241
     4  O   -0.750646
     5  H    0.376539
     6  H    0.374428
 Sum of Mulliken charges =  -0.00000

 Dipole moment (field-independent basis, Debye):
    X=             -1.7108    Y=             -4.2409    Z=              0.0000  Tot=              4.5730
 Quadrupole moment (field-independent basis, Debye-Ang):
   XX=             -9.4128   YY=             -6.1555   ZZ=            -14.9943
   XY=             -7.0501   XZ=              0.0000   YZ=             -0.0000

 4316\MP4DQ=-33.8941841\MP4SDQ=-33.8962116\CCSD=-33.8972568\CCSD(T)=-33
 Normal termination of Gaussian 16 at Sun Dec 10 06:34:58 2023.
