 Gaussian 16, Revision A.03,
 Gaussian 16:  ES64L-G16RevA.03 25-Dec-2016

 ------------------
 #p CCSD(T)/CEP-31G
 ------------------

 -----------
 H2O_H2O_918
 -----------
 Symbolic Z-matrix:
 Charge =  0 Multiplicity = 1

                         Standard orientation:
 ---------------------------------------------------------------------
 Center     Atomic      Atomic             Coordinates (Angstroms)
 Number     Number       Type             X           Y           Z
 ---------------------------------------------------------------------
      1          8           0        0.033918    1.470122    0.000000
      2          1           0        0.030283    0.487527    0.000000
      3          1           0       -0.894389    1.792225    0.000000
      4          8           0        0.033918   -1.292696    0.000000
      5          1           0        0.940327   -1.672077    0.000000
      6          1           0       -0.618915   -2.027078    0.000000
 ---------------------------------------------------------------------

 SCF Done:  E(RHF) =  -33.6629477276     A.U. after   11 cycles
 E2 =    -0.2289578562D+00 EUMP2 =    -0.33891905583839D+02
 CCSD(T)
 CCSD(T)= -0.33908237280D+02

 The electronic state is 1-A'.
 Alpha  occ. eigenvalues --   -1.39224  -1.30845  -0.74821  -0.68431  -0.59377
 Alpha  occ. eigenvalues --   -0.53957  -0.50309  -0.45487
 Alpha virt. eigenvalues --    0.17579   0.26908   0.27782   0.46941   0.75190
 Alpha virt. eigenvalues --    0.76717   0.85994   0.86982   0.94506   1.01769
 Alpha virt. eigenvalues --    1.15647   1.18383   1.23314   1.36423   2.54863

 Mulliken charges:
               1
     1  O   -0.786312
     2  H    0.432371
     3  H    0.349042
     4  O   -0.817352
     5  H    0.406666
     6  H    0.415585
 Sum of Mulliken charges =   0.00000

 Dipole moment (field-independent basis, Debye):
    X=             -1.4961    Y=             -4.7202    Z=              0.0000  Tot=              4.9516
 Quadrupole moment (field-independent basis, Debye-Ang):
   XX=             -9.3769   YY=             -8.9346   ZZ=            -15.0193
   XY=             -4.4417   XZ=              0.0000   YZ=              0.0000

 MP4DQ=-33.9023742\MP4SDQ=-33.904497\CCSD=-33.9054164\CCSD(T)=-33.90823
 Normal termination of Gaussian 16 at Sun Dec 10 06:35:47 2023.
