 Gaussian 16, Revision A.03,
 Gaussian 16:  ES64L-G16RevA.03 25-Dec-2016

 ------------------
 #p CCSD(T)/CEP-31G
 ------------------

 -----------
 H2O_H2O_952
 -----------
 Symbolic Z-matrix:
 Charge =  0 Multiplicity = 1

                         Standard orientation:
 ---------------------------------------------------------------------
 Center     Atomic      Atomic             Coordinates (Angstroms)
 Number     Number       Type             X           Y           Z
 ---------------------------------------------------------------------
      1          8           0        0.088240   -1.472059    0.000000
      2          1           0        0.087954   -0.489458    0.000000
      3          1           0       -0.841160   -1.790996    0.000000
      4          8           0        0.088240    1.327760    0.000000
      5          1           0        0.216211    2.301992    0.000000
      6          1           0       -0.874840    1.132861    0.000000
 ---------------------------------------------------------------------

 SCF Done:  E(RHF) =  -33.6516987289     A.U. after   11 cycles
 E2 =    -0.2291642304D+00 EUMP2 =    -0.33880862959296D+02
 CCSD(T)
 CCSD(T)= -0.33897741007D+02

 The electronic state is 1-A'.
 Alpha  occ. eigenvalues --   -1.39420  -1.32808  -0.75882  -0.68586  -0.59096
 Alpha  occ. eigenvalues --   -0.53862  -0.52252  -0.47289
 Alpha virt. eigenvalues --    0.16673   0.25368   0.27611   0.44006   0.74997
 Alpha virt. eigenvalues --    0.79045   0.84909   0.85707   0.91940   1.11827
 Alpha virt. eigenvalues --    1.15017   1.22961   1.27489   1.37501   2.52188

 Mulliken charges:
               1
     1  O   -0.743589
     2  H    0.384854
     3  H    0.342917
     4  O   -0.780340
     5  H    0.426279
     6  H    0.369880
 Sum of Mulliken charges =   0.00000

 Dipole moment (field-independent basis, Debye):
    X=             -3.8913    Y=              3.9004    Z=              0.0000  Tot=              5.5096
 Quadrupole moment (field-independent basis, Debye-Ang):
   XX=            -11.0374   YY=             -9.3475   ZZ=            -14.9921
   XY=              2.6205   XZ=              0.0000   YZ=              0.0000

 2\MP4DQ=-33.8917422\MP4SDQ=-33.8939867\CCSD=-33.8949387\CCSD(T)=-33.89
 Normal termination of Gaussian 16 at Sun Dec 10 06:36:25 2023.
