 Gaussian 16, Revision A.03,
 Gaussian 16:  ES64L-G16RevA.03 25-Dec-2016

 ------------------
 #p CCSD(T)/CEP-31G
 ------------------

 ------------
 H2O_H2O_1140
 ------------
 Symbolic Z-matrix:
 Charge =  0 Multiplicity = 1

                         Standard orientation:
 ---------------------------------------------------------------------
 Center     Atomic      Atomic             Coordinates (Angstroms)
 Number     Number       Type             X           Y           Z
 ---------------------------------------------------------------------
      1          8           0        0.044947    1.561433   -0.000000
      2          1           0        0.042173    0.578835   -0.000000
      3          1           0       -0.883642    1.882722   -0.000000
      4          8           0        0.044947   -1.381122    0.000000
      5          1           0        0.860407   -1.929330    0.000000
      6          1           0       -0.738092   -1.974717    0.000000
 ---------------------------------------------------------------------

 SCF Done:  E(RHF) =  -33.6630092249     A.U. after   11 cycles
 E2 =    -0.2290443719D+00 EUMP2 =    -0.33892053596829D+02
 CCSD(T)
 CCSD(T)= -0.33908599024D+02

 The electronic state is 1-A'.
 Alpha  occ. eigenvalues --   -1.38625  -1.31468  -0.74214  -0.68059  -0.59138
 Alpha  occ. eigenvalues --   -0.53363  -0.51102  -0.46124
 Alpha virt. eigenvalues --    0.17712   0.26194   0.28158   0.43544   0.75971
 Alpha virt. eigenvalues --    0.78098   0.85817   0.85873   0.94105   0.99842
 Alpha virt. eigenvalues --    1.14974   1.19191   1.22150   1.34822   2.51093

 Mulliken charges:
               1
     1  O   -0.785837
     2  H    0.434293
     3  H    0.350238
     4  O   -0.801225
     5  H    0.404754
     6  H    0.397778
 Sum of Mulliken charges =  -0.00000

 Dipole moment (field-independent basis, Debye):
    X=             -1.9805    Y=             -4.6748    Z=              0.0000  Tot=              5.0770
 Quadrupole moment (field-independent basis, Debye-Ang):
   XX=             -9.3854   YY=             -8.5706   ZZ=            -15.0160
   XY=             -4.4321   XZ=              0.0000   YZ=             -0.0000

 854\MP4DQ=-33.9027755\MP4SDQ=-33.9048798\CCSD=-33.9058384\CCSD(T)=-33.
 Normal termination of Gaussian 16 at Sun Dec 10 06:39:57 2023.
