 Gaussian 16, Revision A.03,
 Gaussian 16:  ES64L-G16RevA.03 25-Dec-2016

 ------------------
 #p CCSD(T)/CEP-31G
 ------------------

 ------------
 H2O_H2O_1799
 ------------
 Symbolic Z-matrix:
 Charge =  0 Multiplicity = 1

                         Standard orientation:
 ---------------------------------------------------------------------
 Center     Atomic      Atomic             Coordinates (Angstroms)
 Number     Number       Type             X           Y           Z
 ---------------------------------------------------------------------
      1          8           0       -0.013594    1.809260    0.000000
      2          1           0       -0.009697    0.826667    0.000000
      3          1           0        0.914628    2.131610    0.000000
      4          8           0       -0.013594   -1.650024    0.000000
      5          1           0       -0.996188   -1.653920    0.000000
      6          1           0        0.308756   -2.578246    0.000000
 ---------------------------------------------------------------------

 SCF Done:  E(RHF) =  -33.6589876915     A.U. after   11 cycles
 E2 =    -0.2286001127D+00 EUMP2 =    -0.33887587804245D+02
 CCSD(T)
 CCSD(T)= -0.33904486228D+02

 The electronic state is 1-A'.
 Alpha  occ. eigenvalues --   -1.37550  -1.33295  -0.73279  -0.68995  -0.57809
 Alpha  occ. eigenvalues --   -0.53154  -0.52206  -0.47973
 Alpha virt. eigenvalues --    0.17694   0.24402   0.28892   0.35990   0.77852
 Alpha virt. eigenvalues --    0.81714   0.83045   0.85950   0.88030   0.97138
 Alpha virt. eigenvalues --    1.15707   1.19283   1.20909   1.36891   2.52408

 Mulliken charges:
               1
     1  O   -0.772783
     2  H    0.402714
     3  H    0.367079
     4  O   -0.770566
     5  H    0.383032
     6  H    0.390525
 Sum of Mulliken charges =  -0.00000

 Dipole moment (field-independent basis, Debye):
    X=              0.6098    Y=             -3.9557    Z=              0.0000  Tot=              4.0024
 Quadrupole moment (field-independent basis, Debye-Ang):
   XX=             -9.8557   YY=             -8.3688   ZZ=            -15.0021
   XY=              6.4914   XZ=              0.0000   YZ=              0.0000

 44\MP4DQ=-33.8987367\MP4SDQ=-33.9008341\CCSD=-33.9018521\CCSD(T)=-33.9
 Normal termination of Gaussian 16 at Sun Dec 10 06:52:50 2023.
