 Gaussian 16, Revision A.03,
 Gaussian 16:  ES64L-G16RevA.03 25-Dec-2016

 ------------------
 #p CCSD(T)/CEP-31G
 ------------------

 ------------
 H2O_H2O_2503
 ------------
 Symbolic Z-matrix:
 Charge =  0 Multiplicity = 1

                         Standard orientation:
 ---------------------------------------------------------------------
 Center     Atomic      Atomic             Coordinates (Angstroms)
 Number     Number       Type             X           Y           Z
 ---------------------------------------------------------------------
      1          8           0        0.085603   -2.093193    0.000000
      2          1           0        0.085294   -1.110591    0.000000
      3          1           0       -0.843789   -2.412151    0.000000
      4          8           0        0.085603    1.943602    0.000000
      5          1           0        0.276997    2.907383    0.000000
      6          1           0       -0.888157    1.812087    0.000000
 ---------------------------------------------------------------------

 SCF Done:  E(RHF) =  -33.6537195361     A.U. after   11 cycles
 E2 =    -0.2285245376D+00 EUMP2 =    -0.33882244073694D+02
 CCSD(T)
 CCSD(T)= -0.33899223716D+02

 The electronic state is 1-A'.
 Alpha  occ. eigenvalues --   -1.37060  -1.34380  -0.72752  -0.69957  -0.56924
 Alpha  occ. eigenvalues --   -0.54127  -0.51649  -0.48962
 Alpha virt. eigenvalues --    0.17450   0.22702   0.29071   0.32464   0.78879
 Alpha virt. eigenvalues --    0.81630   0.82961   0.84597   0.86935   0.88091
 Alpha virt. eigenvalues --    1.15653   1.19097   1.20464   1.30452   2.55536

 Mulliken charges:
               1
     1  O   -0.749777
     2  H    0.386999
     3  H    0.361550
     4  O   -0.749031
     5  H    0.382158
     6  H    0.368102
 Sum of Mulliken charges =  -0.00000

 Dipole moment (field-independent basis, Debye):
    X=             -3.8994    Y=              3.6212    Z=              0.0000  Tot=              5.3215
 Quadrupole moment (field-independent basis, Debye-Ang):
   XX=            -10.8198   YY=             -8.5519   ZZ=            -14.9909
   XY=              3.0547   XZ=              0.0000   YZ=              0.0000

 7938\MP4DQ=-33.8935356\MP4SDQ=-33.8955977\CCSD=-33.8966331\CCSD(T)=-33
 Normal termination of Gaussian 16 at Sun Dec 10 06:18:04 2023.
