 Gaussian 16, Revision A.03,
 Gaussian 16:  ES64L-G16RevA.03 25-Dec-2016

 ------------------
 #p CCSD(T)/CEP-31G
 ------------------

 -----------
 H2O_H2O_183
 -----------
 Symbolic Z-matrix:
 Charge =  0 Multiplicity = 1

                         Standard orientation:
 ---------------------------------------------------------------------
 Center     Atomic      Atomic             Coordinates (Angstroms)
 Number     Number       Type             X           Y           Z
 ---------------------------------------------------------------------
      1          8           0        0.070278    1.176958    0.000000
      2          1           0        0.068509    0.194358    0.000000
      3          1           0       -0.858640    1.497297   -0.000000
      4          8           0        0.070278   -1.006844    0.000000
      5          1           0        0.560047   -1.858685    0.000000
      6          1           0       -0.894358   -1.193882   -0.000000
 ---------------------------------------------------------------------

 SCF Done:  E(RHF) =  -33.6152854496     A.U. after   11 cycles
 E2 =    -0.2282246385D+00 EUMP2 =    -0.33843510088085D+02
 CCSD(T)
 CCSD(T)= -0.33858536997D+02

 The electronic state is 1-A'.
 Alpha  occ. eigenvalues --   -1.44585  -1.28109  -0.80899  -0.74457  -0.58033
 Alpha  occ. eigenvalues --   -0.55851  -0.45815  -0.42188
 Alpha virt. eigenvalues --    0.16205   0.24657   0.29731   0.60359   0.73275
 Alpha virt. eigenvalues --    0.74271   0.87870   0.90872   0.95177   1.07384
 Alpha virt. eigenvalues --    1.12029   1.20906   1.26436   1.35500   2.95730

 Mulliken charges:
               1
     1  O   -0.728461
     2  H    0.334853
     3  H    0.306126
     4  O   -0.809759
     5  H    0.485041
     6  H    0.412201
 Sum of Mulliken charges =   0.00000

 Dipole moment (field-independent basis, Debye):
    X=             -2.8498    Y=             -5.3257    Z=             -0.0000  Tot=              6.0403
 Quadrupole moment (field-independent basis, Debye-Ang):
   XX=             -9.9749   YY=            -10.3507   ZZ=            -14.9434
   XY=             -3.1754   XZ=              0.0000   YZ=             -0.0000

 034\MP4DQ=-33.8523056\MP4SDQ=-33.85469\CCSD=-33.855356\CCSD(T)=-33.858
 Normal termination of Gaussian 16 at Sun Dec 10 06:21:39 2023.
