 Gaussian 16, Revision A.03,
 Gaussian 16:  ES64L-G16RevA.03 25-Dec-2016

 ------------------
 #p CCSD(T)/CEP-31G
 ------------------

 -----------
 H2O_H2O_275
 -----------
 Symbolic Z-matrix:
 Charge =  0 Multiplicity = 1

                         Standard orientation:
 ---------------------------------------------------------------------
 Center     Atomic      Atomic             Coordinates (Angstroms)
 Number     Number       Type             X           Y           Z
 ---------------------------------------------------------------------
      1          8           0        0.092949   -1.196563    0.000000
      2          1           0        0.092949   -0.213962    0.000000
      3          1           0       -0.836544   -1.515229    0.000000
      4          8           0        0.092949    1.063776    0.000000
      5          1           0        0.092949    2.046377    0.000000
      6          1           0       -0.836544    0.745109    0.000000
 ---------------------------------------------------------------------

 SCF Done:  E(RHF) =  -33.6040916828     A.U. after   11 cycles
 E2 =    -0.2290298432D+00 EUMP2 =    -0.33833121525952D+02
 CCSD(T)
 CCSD(T)= -0.33849058432D+02

 The electronic state is 1-A'.
 Alpha  occ. eigenvalues --   -1.44431  -1.30968  -0.82859  -0.69324  -0.58368
 Alpha  occ. eigenvalues --   -0.57183  -0.49482  -0.45140
 Alpha virt. eigenvalues --    0.16178   0.23614   0.29055   0.56440   0.73011
 Alpha virt. eigenvalues --    0.76850   0.87715   0.88964   0.94783   1.11327
 Alpha virt. eigenvalues --    1.12251   1.24235   1.26448   1.47700   2.78558

 Mulliken charges:
               1
     1  O   -0.669366
     2  H    0.248897
     3  H    0.317642
     4  O   -0.738051
     5  H    0.470441
     6  H    0.370436
 Sum of Mulliken charges =  -0.00000

 Dipole moment (field-independent basis, Debye):
    X=             -3.9365    Y=              4.2417    Z=              0.0000  Tot=              5.7869
 Quadrupole moment (field-independent basis, Debye-Ang):
   XX=            -11.3608   YY=            -10.2977   ZZ=            -14.9244
   XY=              2.1095   XZ=              0.0000   YZ=              0.0000

 856\MP4DQ=-33.8426539\MP4SDQ=-33.8451828\CCSD=-33.8458879\CCSD(T)=-33.
 Normal termination of Gaussian 16 at Sun Dec 10 06:23:28 2023.
