 Gaussian 16, Revision A.03,
 Gaussian 16:  ES64L-G16RevA.03 25-Dec-2016

 ------------------
 #p CCSD(T)/CEP-31G
 ------------------

 ------------
 H2O_H2O_2671
 ------------
 Symbolic Z-matrix:
 Charge =  0 Multiplicity = 1

                         Standard orientation:
 ---------------------------------------------------------------------
 Center     Atomic      Atomic             Coordinates (Angstroms)
 Number     Number       Type             X           Y           Z
 ---------------------------------------------------------------------
      1          8           0       -0.023229    2.164323    0.000000
      2          1           0       -0.020383    1.181726    0.000000
      3          1           0        0.905337    2.485681    0.000000
      4          8           0       -0.023229   -1.993947    0.000000
      5          1           0       -0.986391   -2.188435    0.000000
      6          1           0        0.473108   -2.841978    0.000000
 ---------------------------------------------------------------------

 SCF Done:  E(RHF) =  -33.6562719095     A.U. after   11 cycles
 E2 =    -0.2283568052D+00 EUMP2 =    -0.33884628714710D+02
 CCSD(T)
 CCSD(T)= -0.33901525599D+02

 The electronic state is 1-A'.
 Alpha  occ. eigenvalues --   -1.36872  -1.33905  -0.72525  -0.69547  -0.56874
 Alpha  occ. eigenvalues --   -0.53761  -0.51506  -0.48546
 Alpha virt. eigenvalues --    0.18414   0.22717   0.29363   0.32805   0.79040
 Alpha virt. eigenvalues --    0.81952   0.83124   0.84590   0.86088   0.87948
 Alpha virt. eigenvalues --    1.16160   1.19594   1.20620   1.28303   2.55333

 Mulliken charges:
               1
     1  O   -0.759303
     2  H    0.390623
     3  H    0.367371
     4  O   -0.755850
     5  H    0.378594
     6  H    0.378565
 Sum of Mulliken charges =  -0.00000

 Dipole moment (field-independent basis, Debye):
    X=              1.0537    Y=             -4.0985    Z=              0.0000  Tot=              4.2318
 Quadrupole moment (field-independent basis, Debye-Ang):
   XX=             -9.5881   YY=             -7.2799   ZZ=            -14.9973
   XY=              7.1065   XZ=              0.0000   YZ=              0.0000

 1136\MP4DQ=-33.8958692\MP4SDQ=-33.8979171\CCSD=-33.8989505\CCSD(T)=-33
 Normal termination of Gaussian 16 at Sun Dec 10 06:21:05 2023.
