 Gaussian 16, Revision A.03,
 Gaussian 16:  ES64L-G16RevA.03 25-Dec-2016

 ------------------
 #p CCSD(T)/CEP-31G
 ------------------

 ------------
 H2O_H2O_2922
 ------------
 Symbolic Z-matrix:
 Charge =  0 Multiplicity = 1

                         Standard orientation:
 ---------------------------------------------------------------------
 Center     Atomic      Atomic             Coordinates (Angstroms)
 Number     Number       Type             X           Y           Z
 ---------------------------------------------------------------------
      1          8           0       -0.019870    2.262263    0.000000
      2          1           0       -0.017023    1.279666    0.000000
      3          1           0        0.908696    2.583621    0.000000
      4          8           0       -0.019870   -2.095163    0.000000
      5          1           0       -0.993690   -2.226241    0.000000
      6          1           0        0.419941   -2.973840    0.000000
 ---------------------------------------------------------------------

 SCF Done:  E(RHF) =  -33.6555723431     A.U. after   11 cycles
 E2 =    -0.2283150495D+00 EUMP2 =    -0.33883887392591D+02
 CCSD(T)
 CCSD(T)= -0.33900793566D+02

 The electronic state is 1-A'.
 Alpha  occ. eigenvalues --   -1.36737  -1.34134  -0.72389  -0.69776  -0.56690
 Alpha  occ. eigenvalues --   -0.53980  -0.51361  -0.48766
 Alpha virt. eigenvalues --    0.18586   0.22341   0.29445   0.32376   0.79200
 Alpha virt. eigenvalues --    0.81722   0.82630   0.84421   0.85729   0.87810
 Alpha virt. eigenvalues --    1.16267   1.19285   1.20704   1.26518   2.56022

 Mulliken charges:
               1
     1  O   -0.756203
     2  H    0.386958
     3  H    0.368405
     4  O   -0.753937
     5  H    0.377148
     6  H    0.377629
 Sum of Mulliken charges =  -0.00000

 Dipole moment (field-independent basis, Debye):
    X=              0.9036    Y=             -3.9936    Z=              0.0000  Tot=              4.0946
 Quadrupole moment (field-independent basis, Debye-Ang):
   XX=             -9.6723   YY=             -7.2891   ZZ=            -14.9959
   XY=              7.6677   XZ=              0.0000   YZ=              0.0000

 942\MP4DQ=-33.8951491\MP4SDQ=-33.8971877\CCSD=-33.8982258\CCSD(T)=-33.
 Normal termination of Gaussian 16 at Sun Dec 10 06:25:35 2023.
