 Gaussian 16, Revision A.03,
 Gaussian 16:  ES64L-G16RevA.03 25-Dec-2016

 ------------------
 #p CCSD(T)/CEP-31G
 ------------------

 ------------
 H2O_H2O_2622
 ------------
 Symbolic Z-matrix:
 Charge =  0 Multiplicity = 1

                         Standard orientation:
 ---------------------------------------------------------------------
 Center     Atomic      Atomic             Coordinates (Angstroms)
 Number     Number       Type             X           Y           Z
 ---------------------------------------------------------------------
      1          8           0       -0.019884    2.142597    0.000000
      2          1           0       -0.016872    1.160000    0.000000
      3          1           0        0.908628    2.464111    0.000000
      4          8           0       -0.019884   -1.975504    0.000000
      5          1           0       -0.993682   -2.106745    0.000000
      6          1           0        0.420074   -2.854106    0.000000
 ---------------------------------------------------------------------

 SCF Done:  E(RHF) =  -33.6563353470     A.U. after   11 cycles
 E2 =    -0.2283642878D+00 EUMP2 =    -0.33884699634771D+02
 CCSD(T)
 CCSD(T)= -0.33901598915D+02

 The electronic state is 1-A'.
 Alpha  occ. eigenvalues --   -1.36898  -1.33929  -0.72554  -0.69575  -0.56904
 Alpha  occ. eigenvalues --   -0.53787  -0.51531  -0.48572
 Alpha virt. eigenvalues --    0.18295   0.22784   0.29343   0.32837   0.79006
 Alpha virt. eigenvalues --    0.81936   0.83082   0.84650   0.86351   0.87898
 Alpha virt. eigenvalues --    1.16114   1.19608   1.20607   1.28883   2.55310

 Mulliken charges:
               1
     1  O   -0.759687
     2  H    0.390474
     3  H    0.367856
     4  O   -0.756293
     5  H    0.378464
     6  H    0.379186
 Sum of Mulliken charges =  -0.00000

 Dipole moment (field-independent basis, Debye):
    X=              0.9012    Y=             -4.0235    Z=              0.0000  Tot=              4.1232
 Quadrupole moment (field-independent basis, Debye-Ang):
   XX=             -9.6696   YY=             -7.4880   ZZ=            -14.9973
   XY=              7.2613   XZ=              0.0000   YZ=              0.0000

 34\MP4DQ=-33.8959387\MP4SDQ=-33.8979888\CCSD=-33.8990216\CCSD(T)=-33.9
 Normal termination of Gaussian 16 at Sun Dec 10 06:20:12 2023.
