 Gaussian 16, Revision A.03,
 Gaussian 16:  ES64L-G16RevA.03 25-Dec-2016

 ------------------
 #p CCSD(T)/CEP-31G
 ------------------

 ------------
 H2O_H2O_1917
 ------------
 Symbolic Z-matrix:
 Charge =  0 Multiplicity = 1

                         Standard orientation:
 ---------------------------------------------------------------------
 Center     Atomic      Atomic             Coordinates (Angstroms)
 Number     Number       Type             X           Y           Z
 ---------------------------------------------------------------------
      1          8           0        0.037498    1.869806   -0.000000
      2          1           0        0.034851    0.887208   -0.000000
      3          1           0       -0.891134    2.190975   -0.000000
      4          8           0        0.037498   -1.690885    0.000000
      5          1           0        0.917593   -2.127850    0.000000
      6          1           0       -0.661273   -2.381701    0.000000
 ---------------------------------------------------------------------

 SCF Done:  E(RHF) =  -33.6592353371     A.U. after   11 cycles
 E2 =    -0.2286070718D+00 EUMP2 =    -0.33887842408884D+02
 CCSD(T)
 CCSD(T)= -0.33904694438D+02

 The electronic state is 1-A'.
 Alpha  occ. eigenvalues --   -1.37446  -1.32967  -0.73095  -0.68650  -0.57729
 Alpha  occ. eigenvalues --   -0.52819  -0.52119  -0.47633
 Alpha virt. eigenvalues --    0.18130   0.24209   0.28976   0.35776   0.78129
 Alpha virt. eigenvalues --    0.82419   0.83155   0.86287   0.88680   0.91679
 Alpha virt. eigenvalues --    1.15673   1.19945   1.20706   1.33124   2.51327

 Mulliken charges:
               1
     1  O   -0.772583
     2  H    0.408835
     3  H    0.361434
     4  O   -0.766961
     5  H    0.385918
     6  H    0.383358
 Sum of Mulliken charges =   0.00000

 Dipole moment (field-independent basis, Debye):
    X=             -1.6867    Y=             -4.4203    Z=              0.0000  Tot=              4.7312
 Quadrupole moment (field-independent basis, Debye-Ang):
   XX=             -9.3980   YY=             -7.5923   ZZ=            -15.0035
   XY=             -5.4664   XZ=              0.0000   YZ=             -0.0000

 \MP4DQ=-33.8989759\MP4SDQ=-33.9010518\CCSD=-33.9020722\CCSD(T)=-33.904
 Normal termination of Gaussian 16 at Sun Dec 10 06:55:04 2023.
