 Gaussian 16, Revision A.03,
 Gaussian 16:  ES64L-G16RevA.03 25-Dec-2016

 ------------------
 #p CCSD(T)/CEP-31G
 ------------------

 ------------
 H2O_H2O_2134
 ------------
 Symbolic Z-matrix:
 Charge =  0 Multiplicity = 1

                         Standard orientation:
 ---------------------------------------------------------------------
 Center     Atomic      Atomic             Coordinates (Angstroms)
 Number     Number       Type             X           Y           Z
 ---------------------------------------------------------------------
      1          8           0        0.066779    1.956373   -0.000000
      2          1           0        0.065590    0.973772   -0.000000
      3          1           0       -0.862328    2.276163   -0.000000
      4          8           0        0.066779   -1.783297    0.000000
      5          1           0        0.611694   -2.600960    0.000000
      6          1           0       -0.883412   -2.033585    0.000000
 ---------------------------------------------------------------------

 SCF Done:  E(RHF) =  -33.6567090550     A.U. after   11 cycles
 E2 =    -0.2285811130D+00 EUMP2 =    -0.33885290167984D+02
 CCSD(T)
 CCSD(T)= -0.33902208396D+02

 The electronic state is 1-A'.
 Alpha  occ. eigenvalues --   -1.37296  -1.33481  -0.72967  -0.69087  -0.57375
 Alpha  occ. eigenvalues --   -0.53281  -0.51929  -0.48103
 Alpha virt. eigenvalues --    0.17966   0.23532   0.28980   0.34302   0.78472
 Alpha virt. eigenvalues --    0.82564   0.83189   0.85337   0.88820   0.89271
 Alpha virt. eigenvalues --    1.15695   1.19927   1.20335   1.32681   2.52807

 Mulliken charges:
               1
     1  O   -0.762219
     2  H    0.400724
     3  H    0.359360
     4  O   -0.758545
     5  H    0.386240
     6  H    0.374440
 Sum of Mulliken charges =  -0.00000

 Dipole moment (field-independent basis, Debye):
    X=             -3.0210    Y=             -4.2453    Z=              0.0000  Tot=              5.2105
 Quadrupole moment (field-independent basis, Debye-Ang):
   XX=             -9.8988   YY=             -7.6002   ZZ=            -14.9979
   XY=             -4.2853   XZ=              0.0000   YZ=             -0.0000

 44\MP4DQ=-33.8964986\MP4SDQ=-33.8985743\CCSD=-33.8996013\CCSD(T)=-33.9
 Normal termination of Gaussian 16 at Sun Dec 10 06:59:14 2023.
