 Gaussian 16, Revision A.03,
 Gaussian 16:  ES64L-G16RevA.03 25-Dec-2016

 ------------------
 #p CCSD(T)/CEP-31G
 ------------------

 ------------
 H2O_H2O_3594
 ------------
 Symbolic Z-matrix:
 Charge =  0 Multiplicity = 1

                         Standard orientation:
 ---------------------------------------------------------------------
 Center     Atomic      Atomic             Coordinates (Angstroms)
 Number     Number       Type             X           Y           Z
 ---------------------------------------------------------------------
      1          8           0        0.030173    2.536129   -0.000000
      2          1           0        0.027997    1.553530   -0.000000
      3          1           0       -0.898612    2.856853   -0.000000
      4          8           0        0.030173   -2.360511    0.000000
      5          1           0        0.959926   -2.678418    0.000000
      6          1           0       -0.572079   -3.136912    0.000000
 ---------------------------------------------------------------------

 SCF Done:  E(RHF) =  -33.6544064537     A.U. after   11 cycles
 E2 =    -0.2282784701D+00 EUMP2 =    -0.33882684923828D+02
 CCSD(T)
 CCSD(T)= -0.33899612136D+02

 The electronic state is 1-A'.
 Alpha  occ. eigenvalues --   -1.36474  -1.34368  -0.72116  -0.70001  -0.56359
 Alpha  occ. eigenvalues --   -0.54184  -0.51083  -0.48981
 Alpha virt. eigenvalues --    0.19265   0.21707   0.29672   0.31932   0.79477
 Alpha virt. eigenvalues --    0.81514   0.82233   0.84494   0.85502   0.87641
 Alpha virt. eigenvalues --    1.16537   1.18733   1.20940   1.23687   2.56497

 Mulliken charges:
               1
     1  O   -0.751320
     2  H    0.382976
     3  H    0.368135
     4  O   -0.750152
     5  H    0.375732
     6  H    0.374628
 Sum of Mulliken charges =   0.00000

 Dipole moment (field-independent basis, Debye):
    X=             -1.3798    Y=             -4.1513    Z=              0.0000  Tot=              4.3746
 Quadrupole moment (field-independent basis, Debye-Ang):
   XX=             -9.4720   YY=             -6.2529   ZZ=            -14.9939
   XY=             -7.7500   XZ=              0.0000   YZ=             -0.0000

 2295\MP4DQ=-33.8939813\MP4SDQ=-33.896007\CCSD=-33.897054\CCSD(T)=-33.8
 Normal termination of Gaussian 16 at Sun Dec 10 06:37:40 2023.
