 Gaussian 16, Revision A.03,
 Gaussian 16:  ES64L-G16RevA.03 25-Dec-2016

 ------------------
 #p CCSD(T)/CEP-31G
 ------------------

 ------------
 H2O_H2O_4734
 ------------
 Symbolic Z-matrix:
 Charge =  0 Multiplicity = 1

                         Standard orientation:
 ---------------------------------------------------------------------
 Center     Atomic      Atomic             Coordinates (Angstroms)
 Number     Number       Type             X           Y           Z
 ---------------------------------------------------------------------
      1          8           0        0.066741    2.993482    0.000000
      2          1           0        0.065976    2.010881    0.000000
      3          1           0       -0.862504    3.312872    0.000000
      4          8           0        0.066741   -2.820349    0.000000
      5          1           0        0.612009   -3.637777    0.000000
      6          1           0       -0.883342   -3.071046    0.000000
 ---------------------------------------------------------------------

 SCF Done:  E(RHF) =  -33.6528302992     A.U. after   11 cycles
 E2 =    -0.2283212958D+00 EUMP2 =    -0.33881151595009D+02
 CCSD(T)
 CCSD(T)= -0.33898122396D+02

 The electronic state is 1-A'.
 Alpha  occ. eigenvalues --   -1.36227  -1.34809  -0.71868  -0.70435  -0.56022
 Alpha  occ. eigenvalues --   -0.54575  -0.50813  -0.49396
 Alpha virt. eigenvalues --    0.19591   0.21063   0.29848   0.31334   0.79741
 Alpha virt. eigenvalues --    0.81130   0.82647   0.84130   0.85788   0.87267
 Alpha virt. eigenvalues --    1.16721   1.18135   1.21166   1.22636   2.56706

 Mulliken charges:
               1
     1  O   -0.745205
     2  H    0.377449
     3  H    0.367752
     4  O   -0.745005
     5  H    0.374287
     6  H    0.370722
 Sum of Mulliken charges =  -0.00000

 Dipole moment (field-independent basis, Debye):
    X=             -3.0690    Y=             -4.0568    Z=              0.0000  Tot=              5.0869
 Quadrupole moment (field-independent basis, Debye-Ang):
   XX=             -9.8927   YY=             -5.5758   ZZ=            -14.9906
   XY=             -5.5549   XZ=              0.0000   YZ=              0.0000

 05\MP4DQ=-33.8924856\MP4SDQ=-33.8945105\CCSD=-33.8955639\CCSD(T)=-33.8
 Normal termination of Gaussian 16 at Sun Dec 10 06:58:13 2023.
