 Gaussian 16, Revision A.03,
 Gaussian 16:  ES64L-G16RevA.03 25-Dec-2016

 ------------------
 #p CCSD(T)/CEP-31G
 ------------------

 -----------
 H2O_H2O_163
 -----------
 Symbolic Z-matrix:
 Charge =  0 Multiplicity = 1

                         Standard orientation:
 ---------------------------------------------------------------------
 Center     Atomic      Atomic             Coordinates (Angstroms)
 Number     Number       Type             X           Y           Z
 ---------------------------------------------------------------------
      1          8           0        0.052451    1.172206   -0.000000
      2          1           0        0.049263    0.189610   -0.000000
      3          1           0       -0.876004    1.493887   -0.000000
      4          8           0        0.052451   -0.992493    0.000000
      5          1           0        0.789104   -1.642761    0.000000
      6          1           0       -0.801574   -1.478444    0.000000
 ---------------------------------------------------------------------

 SCF Done:  E(RHF) =  -33.6171794316     A.U. after   11 cycles
 E2 =    -0.2280646848D+00 EUMP2 =    -0.33845244116404D+02
 CCSD(T)
 CCSD(T)= -0.33859946983D+02

 The electronic state is 1-A'.
 Alpha  occ. eigenvalues --   -1.44649  -1.27229  -0.78948  -0.77382  -0.58286
 Alpha  occ. eigenvalues --   -0.55253  -0.44620  -0.41275
 Alpha virt. eigenvalues --    0.16330   0.25327   0.29971   0.61319   0.73315
 Alpha virt. eigenvalues --    0.73422   0.86336   0.91467   0.92549   1.06829
 Alpha virt. eigenvalues --    1.12363   1.16427   1.28151   1.34835   2.91427

 Mulliken charges:
               1
     1  O   -0.750585
     2  H    0.345215
     3  H    0.307478
     4  O   -0.799554
     5  H    0.462119
     6  H    0.435327
 Sum of Mulliken charges =   0.00000

 Dipole moment (field-independent basis, Debye):
    X=             -2.1272    Y=             -5.5999    Z=              0.0000  Tot=              5.9903
 Quadrupole moment (field-independent basis, Debye-Ang):
   XX=             -9.3944   YY=            -10.5592   ZZ=            -14.9504
   XY=             -3.3673   XZ=             -0.0000   YZ=             -0.0000

 797\MP4DQ=-33.853781\MP4SDQ=-33.8561071\CCSD=-33.8567273\CCSD(T)=-33.8
 Normal termination of Gaussian 16 at Sun Dec 10 06:21:15 2023.
