 Gaussian 16, Revision A.03,
 Gaussian 16:  ES64L-G16RevA.03 25-Dec-2016

 ------------------
 #p CCSD(T)/CEP-31G
 ------------------

 ------------
 H2O_H2O_1688
 ------------
 Symbolic Z-matrix:
 Charge =  0 Multiplicity = 1

                         Standard orientation:
 ---------------------------------------------------------------------
 Center     Atomic      Atomic             Coordinates (Angstroms)
 Number     Number       Type             X           Y           Z
 ---------------------------------------------------------------------
      1          8           0        0.052346    1.780554   -0.000000
      2          1           0        0.050305    0.797954   -0.000000
      3          1           0       -0.876483    2.101150   -0.000000
      4          8           0        0.052346   -1.600718    0.000000
      5          1           0        0.789758   -2.250125    0.000000
      6          1           0       -0.801111   -2.087665    0.000000
 ---------------------------------------------------------------------

 SCF Done:  E(RHF) =  -33.6598809240     A.U. after   11 cycles
 E2 =    -0.2287631059D+00 EUMP2 =    -0.33888644029932D+02
 CCSD(T)
 CCSD(T)= -0.33905469206D+02

 The electronic state is 1-A'.
 Alpha  occ. eigenvalues --   -1.37717  -1.32659  -0.73365  -0.68395  -0.58091
 Alpha  occ. eigenvalues --   -0.52464  -0.52397  -0.47315
 Alpha virt. eigenvalues --    0.17983   0.24682   0.28741   0.37384   0.77632
 Alpha virt. eigenvalues --    0.81579   0.83728   0.85933   0.90400   0.94404
 Alpha virt. eigenvalues --    1.15371   1.19951   1.20735   1.33760   2.50135

 Mulliken charges:
               1
     1  O   -0.775167
     2  H    0.416499
     3  H    0.356771
     4  O   -0.772541
     5  H    0.392297
     6  H    0.382142
 Sum of Mulliken charges =  -0.00000

 Dipole moment (field-independent basis, Debye):
    X=             -2.3433    Y=             -4.4934    Z=              0.0000  Tot=              5.0677
 Quadrupole moment (field-independent basis, Debye-Ang):
   XX=             -9.5005   YY=             -7.8319   ZZ=            -15.0053
   XY=             -4.6739   XZ=              0.0000   YZ=             -0.0000

 MP4DQ=-33.8997203\MP4SDQ=-33.901805\CCSD=-33.9028181\CCSD(T)=-33.90546
 Normal termination of Gaussian 16 at Sun Dec 10 06:50:45 2023.
