 Gaussian 16, Revision A.03,
 Gaussian 16:  ES64L-G16RevA.03 25-Dec-2016

 ------------------
 #p CCSD(T)/CEP-31G
 ------------------

 ------------
 H2O_H2O_1564
 ------------
 Symbolic Z-matrix:
 Charge =  0 Multiplicity = 1

                         Standard orientation:
 ---------------------------------------------------------------------
 Center     Atomic      Atomic             Coordinates (Angstroms)
 Number     Number       Type             X           Y           Z
 ---------------------------------------------------------------------
      1          8           0        0.048641    1.730961   -0.000000
      2          1           0        0.046345    0.748363   -0.000000
      3          1           0       -0.880105    2.051798   -0.000000
      4          8           0        0.048641   -1.550635    0.000000
      5          1           0        0.826791   -2.150625    0.000000
      6          1           0       -0.771282   -2.092146    0.000000
 ---------------------------------------------------------------------

 SCF Done:  E(RHF) =  -33.6608023768     A.U. after   11 cycles
 E2 =    -0.2288264421D+00 EUMP2 =    -0.33889628818929D+02
 CCSD(T)
 CCSD(T)= -0.33906411827D+02

 The electronic state is 1-A'.
 Alpha  occ. eigenvalues --   -1.37870  -1.32417  -0.73509  -0.68238  -0.58331
 Alpha  occ. eigenvalues --   -0.52566  -0.52208  -0.47080
 Alpha virt. eigenvalues --    0.17951   0.25019   0.28647   0.38524   0.77313
 Alpha virt. eigenvalues --    0.80875   0.84135   0.86018   0.91007   0.96070
 Alpha virt. eigenvalues --    1.15249   1.19814   1.21003   1.33832   2.49736

 Mulliken charges:
               1
     1  O   -0.778660
     2  H    0.421069
     3  H    0.355964
     4  O   -0.777950
     5  H    0.394142
     6  H    0.385434
 Sum of Mulliken charges =  -0.00000

 Dipole moment (field-independent basis, Debye):
    X=             -2.1708    Y=             -4.5347    Z=              0.0000  Tot=              5.0275
 Quadrupole moment (field-independent basis, Debye-Ang):
   XX=             -9.4410   YY=             -7.9741   ZZ=            -15.0077
   XY=             -4.7071   XZ=              0.0000   YZ=             -0.0000

 9262\MP4DQ=-33.9006496\MP4SDQ=-33.9027366\CCSD=-33.9037423\CCSD(T)=-33
 Normal termination of Gaussian 16 at Sun Dec 10 06:48:22 2023.
