 Gaussian 16, Revision A.03,
 Gaussian 16:  ES64L-G16RevA.03 25-Dec-2016

 ------------------
 #p CCSD(T)/CEP-31G
 ------------------

 -----------
 H2O_H2O_457
 -----------
 Symbolic Z-matrix:
 Charge =  0 Multiplicity = 1

                         Standard orientation:
 ---------------------------------------------------------------------
 Center     Atomic      Atomic             Coordinates (Angstroms)
 Number     Number       Type             X           Y           Z
 ---------------------------------------------------------------------
      1          8           0        0.073590    1.284871    0.000000
      2          1           0        0.072219    0.302271    0.000000
      3          1           0       -0.855457    1.604835    0.000000
      4          8           0        0.073590   -1.118026   -0.000000
      5          1           0        0.506954   -1.999900   -0.000000
      6          1           0       -0.901163   -1.241967   -0.000000
 ---------------------------------------------------------------------

 SCF Done:  E(RHF) =  -33.6440606798     A.U. after   11 cycles
 E2 =    -0.2287353463D+00 EUMP2 =    -0.33872796026142D+02
 CCSD(T)
 CCSD(T)= -0.33888605154D+02

 The electronic state is 1-A'.
 Alpha  occ. eigenvalues --   -1.41751  -1.29857  -0.78022  -0.70891  -0.58144
 Alpha  occ. eigenvalues --   -0.55985  -0.48568  -0.44203
 Alpha virt. eigenvalues --    0.16624   0.25649   0.28406   0.54773   0.73714
 Alpha virt. eigenvalues --    0.75428   0.85994   0.89124   0.96624   1.07128
 Alpha virt. eigenvalues --    1.15033   1.22716   1.24021   1.35741   2.75322

 Mulliken charges:
               1
     1  O   -0.743084
     2  H    0.388791
     3  H    0.323232
     4  O   -0.831838
     5  H    0.466496
     6  H    0.396405
 Sum of Mulliken charges =  -0.00000

 Dipole moment (field-independent basis, Debye):
    X=             -3.0851    Y=             -4.8632    Z=             -0.0000  Tot=              5.7592
 Quadrupole moment (field-independent basis, Debye-Ang):
   XX=            -10.1672   YY=             -9.7198   ZZ=            -14.9883
   XY=             -3.2591   XZ=             -0.0000   YZ=              0.0000

 33\MP4DQ=-33.8825122\MP4SDQ=-33.8847972\CCSD=-33.8855995\CCSD(T)=-33.8
 Normal termination of Gaussian 16 at Sun Dec 10 06:27:06 2023.
