 Gaussian 16, Revision A.03,
 Gaussian 16:  ES64L-G16RevA.03 25-Dec-2016

 ------------------
 #p CCSD(T)/CEP-31G
 ------------------

 ------------
 H2O_H2O_1166
 ------------
 Symbolic Z-matrix:
 Charge =  0 Multiplicity = 1

                         Standard orientation:
 ---------------------------------------------------------------------
 Center     Atomic      Atomic             Coordinates (Angstroms)
 Number     Number       Type             X           Y           Z
 ---------------------------------------------------------------------
      1          8           0        0.041235    1.571149    0.000000
      2          1           0        0.038266    0.588552    0.000000
      3          1           0       -0.887291    1.892622    0.000000
      4          8           0        0.041235   -1.391311   -0.000000
      5          1           0        0.890705   -1.885180   -0.000000
      6          1           0       -0.701433   -2.034701   -0.000000
 ---------------------------------------------------------------------

 SCF Done:  E(RHF) =  -33.6630802268     A.U. after   11 cycles
 E2 =    -0.2290066137D+00 EUMP2 =    -0.33892086840499D+02
 CCSD(T)
 CCSD(T)= -0.33908652494D+02

 The electronic state is 1-A'.
 Alpha  occ. eigenvalues --   -1.38559  -1.31531  -0.74159  -0.68035  -0.59109
 Alpha  occ. eigenvalues --   -0.53297  -0.51187  -0.46195
 Alpha virt. eigenvalues --    0.17747   0.26138   0.28205   0.43177   0.76060
 Alpha virt. eigenvalues --    0.78272   0.85752   0.85960   0.93539   1.00187
 Alpha virt. eigenvalues --    1.15051   1.19050   1.22212   1.34790   2.50875

 Mulliken charges:
               1
     1  O   -0.786297
     2  H    0.433086
     3  H    0.351732
     4  O   -0.800092
     5  H    0.402143
     6  H    0.399428
 Sum of Mulliken charges =  -0.00000

 Dipole moment (field-independent basis, Debye):
    X=             -1.8224    Y=             -4.6526    Z=             -0.0000  Tot=              4.9968
 Quadrupole moment (field-independent basis, Debye-Ang):
   XX=             -9.3689   YY=             -8.5331   ZZ=            -15.0158
   XY=             -4.5503   XZ=              0.0000   YZ=              0.0000

 14\MP4DQ=-33.9028351\MP4SDQ=-33.9049371\CCSD=-33.9059004\CCSD(T)=-33.9
 Normal termination of Gaussian 16 at Sun Dec 10 06:40:28 2023.
