 Gaussian 16, Revision A.03,
 Gaussian 16:  ES64L-G16RevA.03 25-Dec-2016

 ------------------
 #p CCSD(T)/CEP-31G
 ------------------

 ------------
 H2O_H2O_4058
 ------------
 Symbolic Z-matrix:
 Charge =  0 Multiplicity = 1

                         Standard orientation:
 ---------------------------------------------------------------------
 Center     Atomic      Atomic             Coordinates (Angstroms)
 Number     Number       Type             X           Y           Z
 ---------------------------------------------------------------------
      1          8           0        0.070188    2.722680    0.000000
      2          1           0        0.069456    1.740079    0.000000
      3          1           0       -0.859067    3.042039   -0.000000
      4          8           0        0.070188   -2.552418    0.000000
      5          1           0        0.560855   -3.403742    0.000000
      6          1           0       -0.894251   -2.740473   -0.000000
 ---------------------------------------------------------------------

 SCF Done:  E(RHF) =  -33.6531337208     A.U. after   11 cycles
 E2 =    -0.2283156019D+00 EUMP2 =    -0.33881449322733D+02
 CCSD(T)
 CCSD(T)= -0.33898411532D+02

 The electronic state is 1-A'.
 Alpha  occ. eigenvalues --   -1.36372  -1.34660  -0.72017  -0.70280  -0.56186
 Alpha  occ. eigenvalues --   -0.54430  -0.50962  -0.49250
 Alpha virt. eigenvalues --    0.19400   0.21282   0.29708   0.31541   0.79598
 Alpha virt. eigenvalues --    0.81269   0.82435   0.84281   0.85602   0.87451
 Alpha virt. eigenvalues --    1.16587   1.18315   1.21010   1.22948   2.56551

 Mulliken charges:
               1
     1  O   -0.746410
     2  H    0.379696
     3  H    0.366667
     4  O   -0.746190
     5  H    0.375607
     6  H    0.370629
 Sum of Mulliken charges =   0.00000

 Dipole moment (field-independent basis, Debye):
    X=             -3.2212    Y=             -4.0088    Z=             -0.0000  Tot=              5.1426
 Quadrupole moment (field-independent basis, Debye-Ang):
   XX=            -10.0251   YY=             -6.3255   ZZ=            -14.9912
   XY=             -4.9075   XZ=              0.0000   YZ=             -0.0000

 93\MP4DQ=-33.8927755\MP4SDQ=-33.8948008\CCSD=-33.8958524\CCSD(T)=-33.8
 Normal termination of Gaussian 16 at Sun Dec 10 06:46:02 2023.
