 Gaussian 16, Revision A.03,
 Gaussian 16:  ES64L-G16RevA.03 25-Dec-2016

 ------------------
 #p CCSD(T)/CEP-31G
 ------------------

 ------------
 H2O_H2O_4309
 ------------
 Symbolic Z-matrix:
 Charge =  0 Multiplicity = 1

                         Standard orientation:
 ---------------------------------------------------------------------
 Center     Atomic      Atomic             Coordinates (Angstroms)
 Number     Number       Type             X           Y           Z
 ---------------------------------------------------------------------
      1          8           0        0.066745    2.823956   -0.000000
      2          1           0        0.065933    1.841355   -0.000000
      3          1           0       -0.862484    3.143391   -0.000000
      4          8           0        0.066745   -2.650829    0.000000
      5          1           0        0.611974   -3.468283    0.000000
      6          1           0       -0.883350   -2.901480    0.000000
 ---------------------------------------------------------------------

 SCF Done:  E(RHF) =  -33.6530660455     A.U. after   11 cycles
 E2 =    -0.2283140234D+00 EUMP2 =    -0.33881380068887D+02
 CCSD(T)
 CCSD(T)= -0.33898344127D+02

 The electronic state is 1-A'.
 Alpha  occ. eigenvalues --   -1.36310  -1.34699  -0.71953  -0.70321  -0.56120
 Alpha  occ. eigenvalues --   -0.54469  -0.50899  -0.49288
 Alpha virt. eigenvalues --    0.19498   0.21210   0.29774   0.31482   0.79658
 Alpha virt. eigenvalues --    0.81232   0.82519   0.84237   0.85682   0.87385
 Alpha virt. eigenvalues --    1.16648   1.18262   1.21083   1.22813   2.56618

 Mulliken charges:
               1
     1  O   -0.746137
     2  H    0.378944
     3  H    0.367173
     4  O   -0.745870
     5  H    0.375035
     6  H    0.370856
 Sum of Mulliken charges =  -0.00000

 Dipole moment (field-independent basis, Debye):
    X=             -3.0654    Y=             -4.0676    Z=              0.0000  Tot=              5.0934
 Quadrupole moment (field-independent basis, Debye-Ang):
   XX=             -9.8934   YY=             -5.9007   ZZ=            -14.9911
   XY=             -5.3481   XZ=              0.0000   YZ=             -0.0000

 25\MP4DQ=-33.8927085\MP4SDQ=-33.8947333\CCSD=-33.8957856\CCSD(T)=-33.8
 Normal termination of Gaussian 16 at Sun Dec 10 06:50:33 2023.
