 Gaussian 16, Revision A.03,
 Gaussian 16:  ES64L-G16RevA.03 25-Dec-2016

 ------------------
 #p CCSD(T)/CEP-31G
 ------------------

 ------------
 H2O_H2O_1835
 ------------
 Symbolic Z-matrix:
 Charge =  0 Multiplicity = 1

                         Standard orientation:
 ---------------------------------------------------------------------
 Center     Atomic      Atomic             Coordinates (Angstroms)
 Number     Number       Type             X           Y           Z
 ---------------------------------------------------------------------
      1          8           0        0.063265    1.838009   -0.000000
      2          1           0        0.061824    0.855409   -0.000000
      3          1           0       -0.865759    2.158038   -0.000000
      4          8           0        0.063265   -1.662543    0.000000
      5          1           0        0.660291   -2.442970    0.000000
      6          1           0       -0.868602   -1.974201    0.000000
 ---------------------------------------------------------------------

 SCF Done:  E(RHF) =  -33.6582270353     A.U. after   11 cycles
 E2 =    -0.2287059497D+00 EUMP2 =    -0.33886932984946D+02
 CCSD(T)
 CCSD(T)= -0.33903820296D+02

 The electronic state is 1-A'.
 Alpha  occ. eigenvalues --   -1.37572  -1.33050  -0.73243  -0.68702  -0.57798
 Alpha  occ. eigenvalues --   -0.52844  -0.52224  -0.47685
 Alpha virt. eigenvalues --    0.17895   0.24215   0.28796   0.36046   0.77952
 Alpha virt. eigenvalues --    0.82281   0.83215   0.85598   0.89703   0.93214
 Alpha virt. eigenvalues --    1.15442   1.19882   1.20520   1.34228   2.51059

 Mulliken charges:
               1
     1  O   -0.768741
     2  H    0.409565
     3  H    0.356998
     4  O   -0.766020
     5  H    0.391060
     6  H    0.377138
 Sum of Mulliken charges =   0.00000

 Dipole moment (field-independent basis, Debye):
    X=             -2.8447    Y=             -4.3581    Z=              0.0000  Tot=              5.2044
 Quadrupole moment (field-independent basis, Debye-Ang):
   XX=             -9.7762   YY=             -7.7946   ZZ=            -15.0012
   XY=             -4.3121   XZ=              0.0000   YZ=             -0.0000

 33\MP4DQ=-33.8980787\MP4SDQ=-33.900166\CCSD=-33.9011864\CCSD(T)=-33.90
 Normal termination of Gaussian 16 at Sun Dec 10 06:53:31 2023.
