 Gaussian 16, Revision A.03,
 Gaussian 16:  ES64L-G16RevA.03 25-Dec-2016

 ------------------
 #p CCSD(T)/CEP-31G
 ------------------

 -----------
 H2O_H2O_271
 -----------
 Symbolic Z-matrix:
 Charge =  0 Multiplicity = 1

                         Standard orientation:
 ---------------------------------------------------------------------
 Center     Atomic      Atomic             Coordinates (Angstroms)
 Number     Number       Type             X           Y           Z
 ---------------------------------------------------------------------
      1          8           0       -0.023440    1.206967    0.000000
      2          1           0       -0.018164    0.224380    0.000000
      3          1           0        0.904329    1.530620    0.000000
      4          8           0       -0.023440   -1.036707    0.000000
      5          1           0       -0.986119   -1.233575    0.000000
      6          1           0        0.474993   -1.883507    0.000000
 ---------------------------------------------------------------------

 SCF Done:  E(RHF) =  -33.6312224701     A.U. after   11 cycles
 E2 =    -0.2277188430D+00 EUMP2 =    -0.33858941313116D+02
 CCSD(T)
 CCSD(T)= -0.33874037086D+02

 The electronic state is 1-A'.
 Alpha  occ. eigenvalues --   -1.43363  -1.28037  -0.79637  -0.73077  -0.57246
 Alpha  occ. eigenvalues --   -0.57084  -0.45970  -0.42338
 Alpha virt. eigenvalues --    0.16944   0.25604   0.29428   0.59529   0.73517
 Alpha virt. eigenvalues --    0.74524   0.88263   0.90672   0.93613   1.01698
 Alpha virt. eigenvalues --    1.14569   1.20376   1.28662   1.37791   2.85267

 Mulliken charges:
               1
     1  O   -0.756541
     2  H    0.349270
     3  H    0.331439
     4  O   -0.826739
     5  H    0.430503
     6  H    0.472068
 Sum of Mulliken charges =  -0.00000

 Dipole moment (field-independent basis, Debye):
    X=              1.0170    Y=             -5.2105    Z=              0.0000  Tot=              5.3088
 Quadrupole moment (field-independent basis, Debye-Ang):
   XX=             -9.4712   YY=            -10.1450   ZZ=            -14.9736
   XY=              3.7849   XZ=              0.0000   YZ=              0.0000

 86\MP4DQ=-33.8679705\MP4SDQ=-33.8702271\CCSD=-33.8709359\CCSD(T)=-33.8
 Normal termination of Gaussian 16 at Sun Dec 10 06:23:23 2023.
