 Gaussian 16, Revision A.03,
 Gaussian 16:  ES64L-G16RevA.03 25-Dec-2016

 ------------------
 #p CCSD(T)/CEP-31G
 ------------------

 ------------
 H2O_H2O_3485
 ------------
 Symbolic Z-matrix:
 Charge =  0 Multiplicity = 1

                         Standard orientation:
 ---------------------------------------------------------------------
 Center     Atomic      Atomic             Coordinates (Angstroms)
 Number     Number       Type             X           Y           Z
 ---------------------------------------------------------------------
      1          8           0        0.063230    2.496181    0.000000
      2          1           0        0.062183    1.513580    0.000000
      3          1           0       -0.865923    2.815838    0.000000
      4          8           0        0.063230   -2.320665    0.000000
      5          1           0        0.660570   -3.100852    0.000000
      6          1           0       -0.868512   -2.632696    0.000000
 ---------------------------------------------------------------------

 SCF Done:  E(RHF) =  -33.6539506937     A.U. after   11 cycles
 E2 =    -0.2283129491D+00 EUMP2 =    -0.33882263642835D+02
 CCSD(T)
 CCSD(T)= -0.33899202909D+02

 The electronic state is 1-A'.
 Alpha  occ. eigenvalues --   -1.36535  -1.34365  -0.72182  -0.69981  -0.56397
 Alpha  occ. eigenvalues --   -0.54155  -0.51137  -0.48966
 Alpha virt. eigenvalues --    0.19134   0.21723   0.29575   0.31929   0.79430
 Alpha virt. eigenvalues --    0.81535   0.82249   0.84584   0.85394   0.87763
 Alpha virt. eigenvalues --    1.16456   1.18730   1.20857   1.23868   2.56432

 Mulliken charges:
               1
     1  O   -0.749571
     2  H    0.383640
     3  H    0.365663
     4  O   -0.748765
     5  H    0.377190
     6  H    0.371843
 Sum of Mulliken charges =  -0.00000

 Dipole moment (field-independent basis, Debye):
    X=             -2.8935    Y=             -4.1594    Z=              0.0000  Tot=              5.0669
 Quadrupole moment (field-independent basis, Debye-Ang):
   XX=             -9.7764   YY=             -6.3617   ZZ=            -14.9929
   XY=             -5.2247   XZ=              0.0000   YZ=              0.0000

 8177\MP4DQ=-33.8935672\MP4SDQ=-33.8955954\CCSD=-33.8966423\CCSD(T)=-33
 Normal termination of Gaussian 16 at Sun Dec 10 06:35:44 2023.
