 Gaussian 16, Revision A.03,
 Gaussian 16:  ES64L-G16RevA.03 25-Dec-2016

 ------------------
 #p CCSD(T)/CEP-31G
 ------------------

 ------------
 H2O_H2O_2147
 ------------
 Symbolic Z-matrix:
 Charge =  0 Multiplicity = 1

                         Standard orientation:
 ---------------------------------------------------------------------
 Center     Atomic      Atomic             Coordinates (Angstroms)
 Number     Number       Type             X           Y           Z
 ---------------------------------------------------------------------
      1          8           0       -0.019910    1.953125    0.000000
      2          1           0       -0.016593    0.970529    0.000000
      3          1           0        0.908502    2.274928    0.000000
      4          8           0       -0.019910   -1.786045    0.000000
      5          1           0       -0.993667   -1.917588    0.000000
      6          1           0        0.420321   -2.664510    0.000000
 ---------------------------------------------------------------------

 SCF Done:  E(RHF) =  -33.6579345571     A.U. after   11 cycles
 E2 =    -0.2284891966D+00 EUMP2 =    -0.33886423753678D+02
 CCSD(T)
 CCSD(T)= -0.33903316350D+02

 The electronic state is 1-A'.
 Alpha  occ. eigenvalues --   -1.37225  -1.33505  -0.72896  -0.69169  -0.57368
 Alpha  occ. eigenvalues --   -0.53376  -0.51876  -0.48168
 Alpha virt. eigenvalues --    0.17981   0.23664   0.29139   0.34272   0.78503
 Alpha virt. eigenvalues --    0.82493   0.82702   0.85674   0.87853   0.90342
 Alpha virt. eigenvalues --    1.15833   1.19896   1.20563   1.33314   2.53398

 Mulliken charges:
               1
     1  O   -0.767313
     2  H    0.398549
     3  H    0.366534
     4  O   -0.762565
     5  H    0.381305
     6  H    0.383491
 Sum of Mulliken charges =   0.00000

 Dipole moment (field-independent basis, Debye):
    X=              0.8972    Y=             -4.0865    Z=              0.0000  Tot=              4.1838
 Quadrupole moment (field-independent basis, Debye-Ang):
   XX=             -9.6640   YY=             -7.8222   ZZ=            -15.0003
   XY=              6.6136   XZ=              0.0000   YZ=              0.0000

 639\MP4DQ=-33.897615\MP4SDQ=-33.8996882\CCSD=-33.9007133\CCSD(T)=-33.9
 Normal termination of Gaussian 16 at Sun Dec 10 06:59:30 2023.
