 Gaussian 16, Revision A.03,
 Gaussian 16:  ES64L-G16RevA.03 25-Dec-2016

 ------------------
 #p CCSD(T)/CEP-31G
 ------------------

 ------------
 H2O_H2O_2356
 ------------
 Symbolic Z-matrix:
 Charge =  0 Multiplicity = 1

                         Standard orientation:
 ---------------------------------------------------------------------
 Center     Atomic      Atomic             Coordinates (Angstroms)
 Number     Number       Type             X           Y           Z
 ---------------------------------------------------------------------
      1          8           0        0.076766    2.040750    0.000000
      2          1           0        0.076065    1.058149    0.000000
      3          1           0       -0.852499    2.360080    0.000000
      4          8           0        0.076766   -1.877557   -0.000000
      5          1           0        0.452143   -2.785631   -0.000000
      6          1           0       -0.903966   -1.938149   -0.000000
 ---------------------------------------------------------------------

 SCF Done:  E(RHF) =  -33.6550665624     A.U. after   11 cycles
 E2 =    -0.2285338684D+00 EUMP2 =    -0.33883600430867D+02
 CCSD(T)
 CCSD(T)= -0.33900551850D+02

 The electronic state is 1-A'.
 Alpha  occ. eigenvalues --   -1.37142  -1.33952  -0.72824  -0.69538  -0.57094
 Alpha  occ. eigenvalues --   -0.53727  -0.51751  -0.48553
 Alpha virt. eigenvalues --    0.17787   0.23004   0.29036   0.33185   0.78741
 Alpha virt. eigenvalues --    0.82047   0.83217   0.84951   0.87572   0.88457
 Alpha virt. eigenvalues --    1.15736   1.19513   1.20411   1.31504   2.54396

 Mulliken charges:
               1
     1  O   -0.755320
     2  H    0.393070
     3  H    0.360550
     4  O   -0.753188
     5  H    0.383759
     6  H    0.371128
 Sum of Mulliken charges =   0.00000

 Dipole moment (field-independent basis, Debye):
    X=             -3.4880    Y=             -3.9713    Z=             -0.0000  Tot=              5.2855
 Quadrupole moment (field-independent basis, Debye-Ang):
   XX=            -10.3305   YY=             -7.8860   ZZ=            -14.9941
   XY=             -3.7410   XZ=             -0.0000   YZ=              0.0000

 112\MP4DQ=-33.8948567\MP4SDQ=-33.896925\CCSD=-33.8979565\CCSD(T)=-33.9
 Normal termination of Gaussian 16 at Sun Dec 10 07:04:48 2023.
