 Gaussian 16, Revision A.03,
 Gaussian 16:  ES64L-G16RevA.03 25-Dec-2016

 ------------------
 #p CCSD(T)/CEP-31G
 ------------------

 -----------
 H2O_H2O_337
 -----------
 Symbolic Z-matrix:
 Charge =  0 Multiplicity = 1

                         Standard orientation:
 ---------------------------------------------------------------------
 Center     Atomic      Atomic             Coordinates (Angstroms)
 Number     Number       Type             X           Y           Z
 ---------------------------------------------------------------------
      1          8           0        0.056111    1.241487    0.000000
      2          1           0        0.053388    0.258890    0.000000
      3          1           0       -0.872495    1.562729    0.000000
      4          8           0        0.056111   -1.062732   -0.000000
      5          1           0        0.748987   -1.759458   -0.000000
      6          1           0       -0.827665   -1.492204   -0.000000
 ---------------------------------------------------------------------

 SCF Done:  E(RHF) =  -33.6401870174     A.U. after   11 cycles
 E2 =    -0.2286490529D+00 EUMP2 =    -0.33868836070338D+02
 CCSD(T)
 CCSD(T)= -0.33884027290D+02

 The electronic state is 1-A'.
 Alpha  occ. eigenvalues --   -1.42613  -1.28413  -0.77593  -0.74021  -0.56928
 Alpha  occ. eigenvalues --   -0.56838  -0.46639  -0.42687
 Alpha virt. eigenvalues --    0.16655   0.25999   0.29068   0.58341   0.73569
 Alpha virt. eigenvalues --    0.73754   0.86065   0.90318   0.94449   1.05061
 Alpha virt. eigenvalues --    1.13011   1.17444   1.25606   1.35242   2.80801

 Mulliken charges:
               1
     1  O   -0.759521
     2  H    0.394356
     3  H    0.318250
     4  O   -0.829283
     5  H    0.455311
     6  H    0.420888
 Sum of Mulliken charges =  -0.00000

 Dipole moment (field-independent basis, Debye):
    X=             -2.3167    Y=             -5.2923    Z=             -0.0000  Tot=              5.7772
 Quadrupole moment (field-independent basis, Debye-Ang):
   XX=             -9.4985   YY=            -10.1186   ZZ=            -14.9855
   XY=             -3.5162   XZ=              0.0000   YZ=              0.0000

 99\MP4DQ=-33.8779469\MP4SDQ=-33.8802061\CCSD=-33.8809159\CCSD(T)=-33.8
 Normal termination of Gaussian 16 at Sun Dec 10 06:24:41 2023.
