 Gaussian 16, Revision A.03,
 Gaussian 16:  ES64L-G16RevA.03 25-Dec-2016

 ------------------
 #p CCSD(T)/CEP-31G
 ------------------

 ------------
 H2O_H2O_1796
 ------------
 Symbolic Z-matrix:
 Charge =  0 Multiplicity = 1

                         Standard orientation:
 ---------------------------------------------------------------------
 Center     Atomic      Atomic             Coordinates (Angstroms)
 Number     Number       Type             X           Y           Z
 ---------------------------------------------------------------------
      1          8           0       -0.023279    1.815294    0.000000
      2          1           0       -0.019858    0.832698    0.000000
      3          1           0        0.905099    2.137194    0.000000
      4          8           0       -0.023279   -1.644945    0.000000
      5          1           0       -0.986327   -1.839995    0.000000
      6          1           0        0.473554   -2.492685    0.000000
 ---------------------------------------------------------------------

 SCF Done:  E(RHF) =  -33.6596618368     A.U. after   11 cycles
 E2 =    -0.2286183050D+00 EUMP2 =    -0.33888280141881D+02
 CCSD(T)
 CCSD(T)= -0.33905141742D+02

 The electronic state is 1-A'.
 Alpha  occ. eigenvalues --   -1.37556  -1.32994  -0.73236  -0.68711  -0.57877
 Alpha  occ. eigenvalues --   -0.52850  -0.52229  -0.47672
 Alpha virt. eigenvalues --    0.17935   0.24460   0.28901   0.36340   0.77871
 Alpha virt. eigenvalues --    0.81730   0.83283   0.86323   0.88471   0.95488
 Alpha virt. eigenvalues --    1.15597   1.19482   1.21003   1.35197   2.51440

 Mulliken charges:
               1
     1  O   -0.774923
     2  H    0.408340
     3  H    0.363991
     4  O   -0.771370
     5  H    0.385000
     6  H    0.388962
 Sum of Mulliken charges =   0.00000

 Dipole moment (field-independent basis, Debye):
    X=              1.0456    Y=             -4.2330    Z=              0.0000  Tot=              4.3602
 Quadrupole moment (field-independent basis, Debye-Ang):
   XX=             -9.5755   YY=             -7.9838   ZZ=            -15.0041
   XY=              5.9577   XZ=              0.0000   YZ=              0.0000

 609\MP4DQ=-33.899402\MP4SDQ=-33.90149\CCSD=-33.9025076\CCSD(T)=-33.905
 Normal termination of Gaussian 16 at Sun Dec 10 06:52:47 2023.
