 Gaussian 16, Revision A.03,
 Gaussian 16:  ES64L-G16RevA.03 25-Dec-2016

 ------------------
 #p CCSD(T)/CEP-31G
 ------------------

 -----------
 H2O_H2O_444
 -----------
 Symbolic Z-matrix:
 Charge =  0 Multiplicity = 1

                         Standard orientation:
 ---------------------------------------------------------------------
 Center     Atomic      Atomic             Coordinates (Angstroms)
 Number     Number       Type             X           Y           Z
 ---------------------------------------------------------------------
      1          8           0        0.030378    1.279601    0.000000
      2          1           0        0.025908    0.297010    0.000000
      3          1           0       -0.897656    1.602492    0.000000
      4          8           0        0.030378   -1.104124   -0.000000
      5          1           0        0.959386   -1.424199   -0.000000
      6          1           0       -0.573685   -1.879118   -0.000000
 ---------------------------------------------------------------------

 SCF Done:  E(RHF) =  -33.6493214930     A.U. after   11 cycles
 E2 =    -0.2284128671D+00 EUMP2 =    -0.33877734360075D+02
 CCSD(T)
 CCSD(T)= -0.33893195137D+02

 The electronic state is 1-A'.
 Alpha  occ. eigenvalues --   -1.41657  -1.28872  -0.77217  -0.71841  -0.58050
 Alpha  occ. eigenvalues --   -0.56074  -0.47436  -0.43309
 Alpha virt. eigenvalues --    0.17098   0.26470   0.28675   0.56287   0.73818
 Alpha virt. eigenvalues --    0.74460   0.86678   0.89721   0.94790   1.00695
 Alpha virt. eigenvalues --    1.15523   1.19248   1.25971   1.36928   2.73674

 Mulliken charges:
               1
     1  O   -0.770798
     2  H    0.399078
     3  H    0.334994
     4  O   -0.836831
     5  H    0.425030
     6  H    0.448527
 Sum of Mulliken charges =   0.00000

 Dipole moment (field-independent basis, Debye):
    X=             -1.3174    Y=             -5.0876    Z=             -0.0000  Tot=              5.2554
 Quadrupole moment (field-independent basis, Debye-Ang):
   XX=             -9.3724   YY=             -9.8266   ZZ=            -15.0021
   XY=             -3.8945   XZ=             -0.0000   YZ=              0.0000

 63\MP4DQ=-33.8872034\MP4SDQ=-33.8894011\CCSD=-33.8901706\CCSD(T)=-33.8
 Normal termination of Gaussian 16 at Sun Dec 10 06:26:50 2023.
