 Gaussian 16, Revision A.03,
 Gaussian 16:  ES64L-G16RevA.03 25-Dec-2016

 ------------------
 #p CCSD(T)/CEP-31G
 ------------------

 ------------
 H2O_H2O_1183
 ------------
 Symbolic Z-matrix:
 Charge =  0 Multiplicity = 1

                         Standard orientation:
 ---------------------------------------------------------------------
 Center     Atomic      Atomic             Coordinates (Angstroms)
 Number     Number       Type             X           Y           Z
 ---------------------------------------------------------------------
      1          8           0        0.070237    1.575869   -0.000000
      2          1           0        0.068941    0.593268   -0.000000
      3          1           0       -0.858835    1.895760   -0.000000
      4          8           0        0.070237   -1.405687    0.000000
      5          1           0        0.560416   -2.257292    0.000000
      6          1           0       -0.894310   -1.593189    0.000000
 ---------------------------------------------------------------------

 SCF Done:  E(RHF) =  -33.6596209705     A.U. after   11 cycles
 E2 =    -0.2290197799D+00 EUMP2 =    -0.33888640750362D+02
 CCSD(T)
 CCSD(T)= -0.33905380708D+02

 The electronic state is 1-A'.
 Alpha  occ. eigenvalues --   -1.38607  -1.32126  -0.74374  -0.68281  -0.58909
 Alpha  occ. eigenvalues --   -0.53262  -0.51732  -0.46725
 Alpha virt. eigenvalues --    0.17395   0.25686   0.27974   0.42101   0.76055
 Alpha virt. eigenvalues --    0.79049   0.85330   0.85339   0.92736   1.06668
 Alpha virt. eigenvalues --    1.15340   1.17974   1.21742   1.36364   2.50798

 Mulliken charges:
               1
     1  O   -0.772933
     2  H    0.423382
     3  H    0.347042
     4  O   -0.793543
     5  H    0.414816
     6  H    0.381236
 Sum of Mulliken charges =   0.00000

 Dipole moment (field-independent basis, Debye):
    X=             -3.0959    Y=             -4.4254    Z=              0.0000  Tot=              5.4008
 Quadrupole moment (field-independent basis, Debye-Ang):
   XX=            -10.0331   YY=             -8.6165   ZZ=            -15.0070
   XY=             -3.6984   XZ=              0.0000   YZ=             -0.0000

 81\MP4DQ=-33.8995218\MP4SDQ=-33.9016608\CCSD=-33.9026401\CCSD(T)=-33.9
 Normal termination of Gaussian 16 at Sun Dec 10 06:40:48 2023.
