 Gaussian 16, Revision A.03,
 Gaussian 16:  ES64L-G16RevA.03 25-Dec-2016

 ------------------
 #p CCSD(T)/CEP-31G
 ------------------

 ------------
 H2O_H2O_4642
 ------------
 Symbolic Z-matrix:
 Charge =  0 Multiplicity = 1

                         Standard orientation:
 ---------------------------------------------------------------------
 Center     Atomic      Atomic             Coordinates (Angstroms)
 Number     Number       Type             X           Y           Z
 ---------------------------------------------------------------------
      1          8           0        0.037406    2.956783    0.000000
      2          1           0        0.035763    1.974183    0.000000
      3          1           0       -0.891553    3.277003    0.000000
      4          8           0        0.037406   -2.777785   -0.000000
      5          1           0        0.917947   -3.213851   -0.000000
      6          1           0       -0.660659   -3.469313   -0.000000
 ---------------------------------------------------------------------

 SCF Done:  E(RHF) =  -33.6533042652     A.U. after   11 cycles
 E2 =    -0.2282986217D+00 EUMP2 =    -0.33881602886865D+02
 CCSD(T)
 CCSD(T)= -0.33898560483D+02

 The electronic state is 1-A'.
 Alpha  occ. eigenvalues --   -1.36226  -1.34704  -0.71865  -0.70336  -0.56047
 Alpha  occ. eigenvalues --   -0.54489  -0.50820  -0.49300
 Alpha virt. eigenvalues --    0.19621   0.21193   0.29877   0.31473   0.79731
 Alpha virt. eigenvalues --    0.81218   0.82592   0.84206   0.85778   0.87313
 Alpha virt. eigenvalues --    1.16741   1.18265   1.21184   1.22760   2.56712

 Mulliken charges:
               1
     1  O   -0.747024
     2  H    0.378264
     3  H    0.368752
     4  O   -0.746486
     5  H    0.373958
     6  H    0.372534
 Sum of Mulliken charges =  -0.00000

 Dipole moment (field-independent basis, Debye):
    X=             -1.7184    Y=             -4.1939    Z=             -0.0000  Tot=              4.5323
 Quadrupole moment (field-independent basis, Debye-Ang):
   XX=             -9.4166   YY=             -5.1012   ZZ=            -14.9917
   XY=             -8.2852   XZ=             -0.0000   YZ=              0.0000

 799\MP4DQ=-33.8929272\MP4SDQ=-33.894951\CCSD=-33.8960033\CCSD(T)=-33.8
 Normal termination of Gaussian 16 at Sun Dec 10 06:56:33 2023.
