 Gaussian 16, Revision A.03,
 Gaussian 16:  ES64L-G16RevA.03 25-Dec-2016

 ------------------
 #p CCSD(T)/CEP-31G
 ------------------

 ------------
 H2O_H2O_2982
 ------------
 Symbolic Z-matrix:
 Charge =  0 Multiplicity = 1

                         Standard orientation:
 ---------------------------------------------------------------------
 Center     Atomic      Atomic             Coordinates (Angstroms)
 Number     Number       Type             X           Y           Z
 ---------------------------------------------------------------------
      1          8           0        0.073537    2.292083    0.000000
      2          1           0        0.072791    1.309482    0.000000
      3          1           0       -0.855713    2.611455    0.000000
      4          8           0        0.073537   -2.125144   -0.000000
      5          1           0        0.507461   -3.006743   -0.000000
      6          1           0       -0.901138   -2.249705   -0.000000
 ---------------------------------------------------------------------

 SCF Done:  E(RHF) =  -33.6541583641     A.U. after   11 cycles
 E2 =    -0.2283752809D+00 EUMP2 =    -0.33882533645008D+02
 CCSD(T)
 CCSD(T)= -0.33899474753D+02

 The electronic state is 1-A'.
 Alpha  occ. eigenvalues --   -1.36760  -1.34272  -0.72419  -0.69874  -0.56637
 Alpha  occ. eigenvalues --   -0.54053  -0.51361  -0.48869
 Alpha virt. eigenvalues --    0.18526   0.22110   0.29327   0.32162   0.79212
 Alpha virt. eigenvalues --    0.81636   0.82581   0.84690   0.85268   0.87992
 Alpha virt. eigenvalues --    1.16186   1.19037   1.20619   1.25969   2.56056

 Mulliken charges:
               1
     1  O   -0.750616
     2  H    0.386173
     3  H    0.363727
     4  O   -0.749611
     5  H    0.379377
     6  H    0.370951
 Sum of Mulliken charges =  -0.00000

 Dipole moment (field-independent basis, Debye):
    X=             -3.3578    Y=             -3.9930    Z=             -0.0000  Tot=              5.2171
 Quadrupole moment (field-independent basis, Debye-Ang):
   XX=            -10.1723   YY=             -7.2851   ZZ=            -14.9929
   XY=             -4.1944   XZ=             -0.0000   YZ=              0.0000

 0754\MP4DQ=-33.8938241\MP4SDQ=-33.8958636\CCSD=-33.8969049\CCSD(T)=-33
 Normal termination of Gaussian 16 at Sun Dec 10 06:26:41 2023.
