 Gaussian 16, Revision A.03,
 Gaussian 16:  ES64L-G16RevA.03 25-Dec-2016

 ------------------
 #p CCSD(T)/CEP-31G
 ------------------

 ------------
 H2O_H2O_1829
 ------------
 Symbolic Z-matrix:
 Charge =  0 Multiplicity = 1

                         Standard orientation:
 ---------------------------------------------------------------------
 Center     Atomic      Atomic             Coordinates (Angstroms)
 Number     Number       Type             X           Y           Z
 ---------------------------------------------------------------------
      1          8           0        0.082813   -1.826617    0.000000
      2          1           0        0.082320   -0.844016    0.000000
      3          1           0       -0.846521   -2.145749    0.000000
      4          8           0        0.082813    1.672118    0.000000
      5          1           0        0.336653    2.621366    0.000000
      6          1           0       -0.897453    1.604389    0.000000
 ---------------------------------------------------------------------

 SCF Done:  E(RHF) =  -33.6554104845     A.U. after   11 cycles
 E2 =    -0.2287919585D+00 EUMP2 =    -0.33884202443064D+02
 CCSD(T)
 CCSD(T)= -0.33901196044D+02

 The electronic state is 1-A'.
 Alpha  occ. eigenvalues --   -1.37639  -1.33738  -0.73397  -0.69305  -0.57658
 Alpha  occ. eigenvalues --   -0.53464  -0.52237  -0.48324
 Alpha virt. eigenvalues --    0.17213   0.23941   0.28608   0.35273   0.77880
 Alpha virt. eigenvalues --    0.82178   0.82716   0.85002   0.88867   0.96325
 Alpha virt. eigenvalues --    1.15229   1.18757   1.20856   1.37367   2.52243

 Mulliken charges:
               1
     1  O   -0.758325
     2  H    0.399329
     3  H    0.356343
     4  O   -0.759037
     5  H    0.391776
     6  H    0.369914
 Sum of Mulliken charges =   0.00000

 Dipole moment (field-independent basis, Debye):
    X=             -3.7389    Y=              3.8459    Z=              0.0000  Tot=              5.3638
 Quadrupole moment (field-independent basis, Debye-Ang):
   XX=            -10.6659   YY=             -8.5714   ZZ=            -14.9940
   XY=              3.1700   XZ=              0.0000   YZ=              0.0000

 944\MP4DQ=-33.8954237\MP4SDQ=-33.8975336\CCSD=-33.8985559\CCSD(T)=-33.
 Normal termination of Gaussian 16 at Sun Dec 10 06:53:24 2023.
