 Gaussian 16, Revision A.03,
 Gaussian 16:  ES64L-G16RevA.03 25-Dec-2016

 ------------------
 #p CCSD(T)/CEP-31G
 ------------------

 ------------
 H2O_H2O_4238
 ------------
 Symbolic Z-matrix:
 Charge =  0 Multiplicity = 1

                         Standard orientation:
 ---------------------------------------------------------------------
 Center     Atomic      Atomic             Coordinates (Angstroms)
 Number     Number       Type             X           Y           Z
 ---------------------------------------------------------------------
      1          8           0        0.052276    2.797730   -0.000000
      2          1           0        0.051001    1.815130   -0.000000
      3          1           0       -0.876803    3.117602   -0.000000
      4          8           0        0.052276   -2.617813    0.000000
      5          1           0        0.790194   -3.266645    0.000000
      6          1           0       -0.800801   -3.105425    0.000000
 ---------------------------------------------------------------------

 SCF Done:  E(RHF) =  -33.6534394435     A.U. after   11 cycles
 E2 =    -0.2282985865D+00 EUMP2 =    -0.33881738029996D+02
 CCSD(T)
 CCSD(T)= -0.33898691356D+02

 The electronic state is 1-A'.
 Alpha  occ. eigenvalues --   -1.36314  -1.34586  -0.71954  -0.70213  -0.56144
 Alpha  occ. eigenvalues --   -0.54371  -0.50909  -0.49183
 Alpha virt. eigenvalues --    0.19517   0.21343   0.29796   0.31620   0.79646
 Alpha virt. eigenvalues --    0.81331   0.82468   0.84331   0.85676   0.87455
 Alpha virt. eigenvalues --    1.16659   1.18394   1.21100   1.22940   2.56622

 Mulliken charges:
               1
     1  O   -0.747571
     2  H    0.379957
     3  H    0.367584
     4  O   -0.746984
     5  H    0.374985
     6  H    0.372029
 Sum of Mulliken charges =   0.00000

 Dipole moment (field-independent basis, Debye):
    X=             -2.3991    Y=             -4.2281    Z=             -0.0000  Tot=              4.8613
 Quadrupole moment (field-independent basis, Debye-Ang):
   XX=             -9.5146   YY=             -5.3869   ZZ=            -14.9919
   XY=             -6.6061   XZ=              0.0000   YZ=             -0.0000

 107\MP4DQ=-33.8930584\MP4SDQ=-33.8950824\CCSD=-33.8961339\CCSD(T)=-33.
 Normal termination of Gaussian 16 at Sun Dec 10 06:49:17 2023.
