 Gaussian 16, Revision A.03,
 Gaussian 16:  ES64L-G16RevA.03 25-Dec-2016

 ------------------
 #p CCSD(T)/CEP-31G
 ------------------

 ---------
 H2O_H2O_4
 ---------
 Symbolic Z-matrix:
 Charge =  0 Multiplicity = 1

                         Standard orientation:
 ---------------------------------------------------------------------
 Center     Atomic      Atomic             Coordinates (Angstroms)
 Number     Number       Type             X           Y           Z
 ---------------------------------------------------------------------
      1          8           0        0.082840   -1.098636    0.000000
      2          1           0        0.081997   -0.116035    0.000000
      3          1           0       -0.846379   -1.418100    0.000000
      4          8           0        0.082840    0.944197    0.000000
      5          1           0        0.336342    1.893535    0.000000
      6          1           0       -0.897400    0.876118    0.000000
 ---------------------------------------------------------------------

 SCF Done:  E(RHF) =  -33.5596516382     A.U. after   11 cycles
 E2 =    -0.2276437298D+00 EUMP2 =    -0.33787295368093D+02
 CCSD(T)
 CCSD(T)= -0.33802243524D+02

 The electronic state is 1-A'.
 Alpha  occ. eigenvalues --   -1.48313  -1.27898  -0.85891  -0.74403  -0.59797
 Alpha  occ. eigenvalues --   -0.54652  -0.44921  -0.41765
 Alpha virt. eigenvalues --    0.15743   0.22658   0.30645   0.61571   0.72984
 Alpha virt. eigenvalues --    0.74633   0.90767   0.91277   0.96607   1.08059
 Alpha virt. eigenvalues --    1.09437   1.20272   1.29128   1.48781   3.13192

 Mulliken charges:
               1
     1  O   -0.673812
     2  H    0.180222
     3  H    0.293230
     4  O   -0.712689
     5  H    0.510077
     6  H    0.402972
 Sum of Mulliken charges =  -0.00000

 Dipole moment (field-independent basis, Debye):
    X=             -3.3351    Y=              5.2785    Z=              0.0000  Tot=              6.2439
 Quadrupole moment (field-independent basis, Debye-Ang):
   XX=            -10.6167   YY=            -10.6791   ZZ=            -14.8649
   XY=              2.6383   XZ=              0.0000   YZ=              0.0000

 MP4DQ=-33.7957445\MP4SDQ=-33.7983547\CCSD=-33.7989495\CCSD(T)=-33.8022
 Normal termination of Gaussian 16 at Sun Dec 10 06:18:05 2023.
