 Gaussian 16, Revision A.03,
 Gaussian 16:  ES64L-G16RevA.03 25-Dec-2016

 ------------------
 #p CCSD(T)/CEP-31G
 ------------------

 ------------
 H2O_H2O_3503
 ------------
 Symbolic Z-matrix:
 Charge =  0 Multiplicity = 1

                         Standard orientation:
 ---------------------------------------------------------------------
 Center     Atomic      Atomic             Coordinates (Angstroms)
 Number     Number       Type             X           Y           Z
 ---------------------------------------------------------------------
      1          8           0        0.085600   -2.492074    0.000000
      2          1           0        0.085342   -1.509473    0.000000
      3          1           0       -0.843810   -2.810985    0.000000
      4          8           0        0.085600    2.342474    0.000000
      5          1           0        0.277043    3.306246    0.000000
      6          1           0       -0.888168    2.211011    0.000000
 ---------------------------------------------------------------------

 SCF Done:  E(RHF) =  -33.6527521337     A.U. after   11 cycles
 E2 =    -0.2283561050D+00 EUMP2 =    -0.33881108238786D+02
 CCSD(T)
 CCSD(T)= -0.33898083848D+02

 The electronic state is 1-A'.
 Alpha  occ. eigenvalues --   -1.36563  -1.34784  -0.72220  -0.70390  -0.56359
 Alpha  occ. eigenvalues --   -0.54532  -0.51144  -0.49362
 Alpha virt. eigenvalues --    0.18769   0.21440   0.29499   0.31417   0.79430
 Alpha virt. eigenvalues --    0.81164   0.82312   0.84172   0.85398   0.87528
 Alpha virt. eigenvalues --    1.16278   1.18349   1.20810   1.23537   2.56199

 Mulliken charges:
               1
     1  O   -0.744983
     2  H    0.379480
     3  H    0.365338
     4  O   -0.745335
     5  H    0.377118
     6  H    0.368382
 Sum of Mulliken charges =  -0.00000

 Dipole moment (field-independent basis, Debye):
    X=             -3.9233    Y=              3.5450    Z=              0.0000  Tot=              5.2877
 Quadrupole moment (field-independent basis, Debye-Ang):
   XX=            -10.8080   YY=             -8.2543   ZZ=            -14.9898
   XY=              3.2007   XZ=              0.0000   YZ=              0.0000

 959\MP4DQ=-33.8924395\MP4SDQ=-33.8944695\CCSD=-33.8955195\CCSD(T)=-33.
 Normal termination of Gaussian 16 at Sun Dec 10 06:36:03 2023.
