 Gaussian 16, Revision A.03,
 Gaussian 16:  ES64L-G16RevA.03 25-Dec-2016

 ------------------
 #p CCSD(T)/CEP-31G
 ------------------

 -----------
 H2O_H2O_506
 -----------
 Symbolic Z-matrix:
 Charge =  0 Multiplicity = 1

                         Standard orientation:
 ---------------------------------------------------------------------
 Center     Atomic      Atomic             Coordinates (Angstroms)
 Number     Number       Type             X           Y           Z
 ---------------------------------------------------------------------
      1          8           0        0.076801   -1.302795    0.000000
      2          1           0        0.075676   -0.320194    0.000000
      3          1           0       -0.852326   -1.622525    0.000000
      4          8           0        0.076801    1.139667    0.000000
      5          1           0        0.451787    2.047902    0.000000
      6          1           0       -0.903957    1.199837    0.000000
 ---------------------------------------------------------------------

 SCF Done:  E(RHF) =  -33.6453424506     A.U. after   11 cycles
 E2 =    -0.2287589113D+00 EUMP2 =    -0.33874101361885D+02
 CCSD(T)
 CCSD(T)= -0.33890105185D+02

 The electronic state is 1-A'.
 Alpha  occ. eigenvalues --   -1.41440  -1.30308  -0.77885  -0.70175  -0.58500
 Alpha  occ. eigenvalues --   -0.55692  -0.49156  -0.44677
 Alpha virt. eigenvalues --    0.16630   0.25612   0.28206   0.53455   0.73794
 Alpha virt. eigenvalues --    0.75929   0.85830   0.88711   0.96385   1.08008
 Alpha virt. eigenvalues --    1.15184   1.23225   1.25357   1.36254   2.71952

 Mulliken charges:
               1
     1  O   -0.739925
     2  H    0.385425
     3  H    0.325816
     4  O   -0.827140
     5  H    0.464541
     6  H    0.391283
 Sum of Mulliken charges =   0.00000

 Dipole moment (field-independent basis, Debye):
    X=             -3.2454    Y=              4.7222    Z=              0.0000  Tot=              5.7299
 Quadrupole moment (field-independent basis, Debye-Ang):
   XX=            -10.3388   YY=             -9.6183   ZZ=            -14.9896
   XY=              3.1632   XZ=              0.0000   YZ=              0.0000

 826\MP4DQ=-33.8840159\MP4SDQ=-33.8863032\CCSD=-33.8871325\CCSD(T)=-33.
 Normal termination of Gaussian 16 at Sun Dec 10 06:28:02 2023.
