 Gaussian 16, Revision A.03,
 Gaussian 16:  ES64L-G16RevA.03 25-Dec-2016

 ------------------
 #p CCSD(T)/CEP-31G
 ------------------

 ------------
 H2O_H2O_2059
 ------------
 Symbolic Z-matrix:
 Charge =  0 Multiplicity = 1

                         Standard orientation:
 ---------------------------------------------------------------------
 Center     Atomic      Atomic             Coordinates (Angstroms)
 Number     Number       Type             X           Y           Z
 ---------------------------------------------------------------------
      1          8           0        0.066780    1.926456    0.000000
      2          1           0        0.065572    0.943855    0.000000
      3          1           0       -0.862320    2.246265    0.000000
      4          8           0        0.066780   -1.753383   -0.000000
      5          1           0        0.611680   -2.571056   -0.000000
      6          1           0       -0.883415   -2.003651   -0.000000
 ---------------------------------------------------------------------

 SCF Done:  E(RHF) =  -33.6569737316     A.U. after   11 cycles
 E2 =    -0.2286117174D+00 EUMP2 =    -0.33885585448946D+02
 CCSD(T)
 CCSD(T)= -0.33902501620D+02

 The electronic state is 1-A'.
 Alpha  occ. eigenvalues --   -1.37361  -1.33401  -0.73034  -0.69012  -0.57467
 Alpha  occ. eigenvalues --   -0.53199  -0.51997  -0.48025
 Alpha virt. eigenvalues --    0.17925   0.23685   0.28933   0.34650   0.78358
 Alpha virt. eigenvalues --    0.82690   0.82998   0.85388   0.88992   0.90235
 Alpha virt. eigenvalues --    1.15628   1.19928   1.20355   1.33267   2.52401

 Mulliken charges:
               1
     1  O   -0.763449
     2  H    0.402490
     3  H    0.358764
     4  O   -0.759925
     5  H    0.387337
     6  H    0.374783
 Sum of Mulliken charges =  -0.00000

 Dipole moment (field-independent basis, Debye):
    X=             -3.0175    Y=             -4.2579    Z=             -0.0000  Tot=              5.2187
 Quadrupole moment (field-independent basis, Debye-Ang):
   XX=             -9.8989   YY=             -7.6666   ZZ=            -14.9984
   XY=             -4.2491   XZ=             -0.0000   YZ=              0.0000

 041\MP4DQ=-33.8967834\MP4SDQ=-33.8988628\CCSD=-33.8998885\CCSD(T)=-33.
 Normal termination of Gaussian 16 at Sun Dec 10 06:57:46 2023.
