 Gaussian 16, Revision A.03,
 Gaussian 16:  ES64L-G16RevA.03 25-Dec-2016

 ------------------
 #p CCSD(T)/CEP-31G
 ------------------

 -----------
 H2O_H2O_827
 -----------
 Symbolic Z-matrix:
 Charge =  0 Multiplicity = 1

                         Standard orientation:
 ---------------------------------------------------------------------
 Center     Atomic      Atomic             Coordinates (Angstroms)
 Number     Number       Type             X           Y           Z
 ---------------------------------------------------------------------
      1          8           0        0.088240   -1.422199    0.000000
      2          1           0        0.087944   -0.439597    0.000000
      3          1           0       -0.841157   -1.741146    0.000000
      4          8           0        0.088240    1.277901    0.000000
      5          1           0        0.216203    2.252135    0.000000
      6          1           0       -0.874836    1.082993    0.000000
 ---------------------------------------------------------------------

 SCF Done:  E(RHF) =  -33.6494650699     A.U. after   11 cycles
 E2 =    -0.2291345899D+00 EUMP2 =    -0.33878599659734D+02
 CCSD(T)
 CCSD(T)= -0.33895380653D+02

 The electronic state is 1-A'.
 Alpha  occ. eigenvalues --   -1.39898  -1.32493  -0.76570  -0.68521  -0.59251
 Alpha  occ. eigenvalues --   -0.54263  -0.51844  -0.46942
 Alpha virt. eigenvalues --    0.16612   0.25399   0.27615   0.46044   0.74549
 Alpha virt. eigenvalues --    0.78497   0.85018   0.86348   0.92715   1.11508
 Alpha virt. eigenvalues --    1.14632   1.23241   1.31538   1.36491   2.54597

 Mulliken charges:
               1
     1  O   -0.736441
     2  H    0.375536
     3  H    0.339560
     4  O   -0.784625
     5  H    0.434809
     6  H    0.371161
 Sum of Mulliken charges =   0.00000

 Dipole moment (field-independent basis, Debye):
    X=             -3.8672    Y=              3.9790    Z=              0.0000  Tot=              5.5486
 Quadrupole moment (field-independent basis, Debye-Ang):
   XX=            -11.0423   YY=             -9.4359   ZZ=            -14.9903
   XY=              2.6002   XZ=              0.0000   YZ=              0.0000

 832\MP4DQ=-33.8893377\MP4SDQ=-33.891611\CCSD=-33.8925391\CCSD(T)=-33.8
 Normal termination of Gaussian 16 at Sun Dec 10 06:34:04 2023.
