 Gaussian 16, Revision A.03,
 Gaussian 16:  ES64L-G16RevA.03 25-Dec-2016

 ------------------
 #p CCSD(T)/CEP-31G
 ------------------

 -----------
 H2O_H2O_719
 -----------
 Symbolic Z-matrix:
 Charge =  0 Multiplicity = 1

                         Standard orientation:
 ---------------------------------------------------------------------
 Center     Atomic      Atomic             Coordinates (Angstroms)
 Number     Number       Type             X           Y           Z
 ---------------------------------------------------------------------
      1          8           0        0.030344    1.389303    0.000000
      2          1           0        0.026252    0.406710    0.000000
      3          1           0       -0.897814    1.711838   -0.000000
      4          8           0        0.030344   -1.213802    0.000000
      5          1           0        0.959476   -1.533522    0.000000
      6          1           0       -0.573421   -1.989028   -0.000000
 ---------------------------------------------------------------------

 SCF Done:  E(RHF) =  -33.6603532763     A.U. after   11 cycles
 E2 =    -0.2287922733D+00 EUMP2 =    -0.33889145549619D+02
 CCSD(T)
 CCSD(T)= -0.33905198925D+02

 The electronic state is 1-A'.
 Alpha  occ. eigenvalues --   -1.39995  -1.30166  -0.75623  -0.69296  -0.59222
 Alpha  occ. eigenvalues --   -0.54670  -0.49365  -0.44758
 Alpha virt. eigenvalues --    0.17414   0.27266   0.27627   0.50528   0.74533
 Alpha virt. eigenvalues --    0.75698   0.86126   0.88070   0.94987   1.01762
 Alpha virt. eigenvalues --    1.15983   1.18832   1.24273   1.37336   2.60853

 Mulliken charges:
               1
     1  O   -0.781667
     2  H    0.424010
     3  H    0.345315
     4  O   -0.830212
     5  H    0.412244
     6  H    0.430310
 Sum of Mulliken charges =   0.00000

 Dipole moment (field-independent basis, Debye):
    X=             -1.3356    Y=             -4.8138    Z=             -0.0000  Tot=              4.9957
 Quadrupole moment (field-independent basis, Debye-Ang):
   XX=             -9.4017   YY=             -9.2766   ZZ=            -15.0179
   XY=             -4.2652   XZ=              0.0000   YZ=             -0.0000

 08\MP4DQ=-33.8992895\MP4SDQ=-33.9014381\CCSD=-33.9023084\CCSD(T)=-33.9
 Normal termination of Gaussian 16 at Sun Dec 10 06:32:02 2023.
