 Gaussian 16, Revision A.03,
 Gaussian 16:  ES64L-G16RevA.03 25-Dec-2016

 ------------------
 #p CCSD(T)/CEP-31G
 ------------------

 -----------
 H2O_H2O_735
 -----------
 Symbolic Z-matrix:
 Charge =  0 Multiplicity = 1

                         Standard orientation:
 ---------------------------------------------------------------------
 Center     Atomic      Atomic             Coordinates (Angstroms)
 Number     Number       Type             X           Y           Z
 ---------------------------------------------------------------------
      1          8           0        0.063308    1.399213   -0.000000
      2          1           0        0.061385    0.416614   -0.000000
      3          1           0       -0.865559    1.719698   -0.000000
      4          8           0        0.063308   -1.223810    0.000000
      5          1           0        0.659952   -2.004529    0.000000
      6          1           0       -0.868710   -1.535011   -0.000000
 ---------------------------------------------------------------------

 SCF Done:  E(RHF) =  -33.6583787884     A.U. after   11 cycles
 E2 =    -0.2290887418D+00 EUMP2 =    -0.33887467530146D+02
 CCSD(T)
 CCSD(T)= -0.33903632378D+02

 The electronic state is 1-A'.
 Alpha  occ. eigenvalues --   -1.39997  -1.30531  -0.75646  -0.69331  -0.59055
 Alpha  occ. eigenvalues --   -0.54633  -0.49739  -0.45055
 Alpha virt. eigenvalues --    0.17140   0.26834   0.27575   0.49796   0.74544
 Alpha virt. eigenvalues --    0.75946   0.85215   0.87812   0.96268   1.04373
 Alpha virt. eigenvalues --    1.15582   1.18470   1.22889   1.36586   2.60515

 Mulliken charges:
               1
     1  O   -0.771674
     2  H    0.428283
     3  H    0.335629
     4  O   -0.825655
     5  H    0.436853
     6  H    0.396564
 Sum of Mulliken charges =   0.00000

 Dipole moment (field-independent basis, Debye):
    X=             -2.7083    Y=             -4.7979    Z=             -0.0000  Tot=              5.5095
 Quadrupole moment (field-independent basis, Debye-Ang):
   XX=             -9.7482   YY=             -9.2462   ZZ=            -15.0122
   XY=             -3.7020   XZ=              0.0000   YZ=             -0.0000

 36\MP4DQ=-33.8976847\MP4SDQ=-33.8998626\CCSD=-33.9007402\CCSD(T)=-33.9
 Normal termination of Gaussian 16 at Sun Dec 10 06:32:21 2023.
