 Gaussian 16, Revision A.03,
 Gaussian 16:  ES64L-G16RevA.03 25-Dec-2016

 ------------------
 #p CCSD(T)/CEP-31G
 ------------------

 -----------
 H2O_H2O_943
 -----------
 Symbolic Z-matrix:
 Charge =  0 Multiplicity = 1

                         Standard orientation:
 ---------------------------------------------------------------------
 Center     Atomic      Atomic             Coordinates (Angstroms)
 Number     Number       Type             X           Y           Z
 ---------------------------------------------------------------------
      1          8           0        0.033916    1.480095   -0.000000
      2          1           0        0.030307    0.497500   -0.000000
      3          1           0       -0.894400    1.802173   -0.000000
      4          8           0        0.033916   -1.302668    0.000000
      5          1           0        0.940335   -1.682024    0.000000
      6          1           0       -0.618897   -2.037066    0.000000
 ---------------------------------------------------------------------

 SCF Done:  E(RHF) =  -33.6630656649     A.U. after   11 cycles
 E2 =    -0.2289603452D+00 EUMP2 =    -0.33892026010011D+02
 CCSD(T)
 CCSD(T)= -0.33908388734D+02

 The electronic state is 1-A'.
 Alpha  occ. eigenvalues --   -1.39144  -1.30927  -0.74747  -0.68356  -0.59372
 Alpha  occ. eigenvalues --   -0.53879  -0.50417  -0.45574
 Alpha virt. eigenvalues --    0.17599   0.26828   0.27830   0.46514   0.75276
 Alpha virt. eigenvalues --    0.76878   0.86011   0.86847   0.94328   1.01882
 Alpha virt. eigenvalues --    1.15616   1.18384   1.23219   1.36286   2.54319

 Mulliken charges:
               1
     1  O   -0.786557
     2  H    0.432496
     3  H    0.349625
     4  O   -0.815707
     5  H    0.405801
     6  H    0.414341
 Sum of Mulliken charges =  -0.00000

 Dipole moment (field-independent basis, Debye):
    X=             -1.4972    Y=             -4.7057    Z=              0.0000  Tot=              4.9381
 Quadrupole moment (field-independent basis, Debye-Ang):
   XX=             -9.3785   YY=             -8.8932   ZZ=            -15.0191
   XY=             -4.4727   XZ=              0.0000   YZ=             -0.0000

 43\MP4DQ=-33.9025307\MP4SDQ=-33.9046512\CCSD=-33.9055763\CCSD(T)=-33.9
 Normal termination of Gaussian 16 at Sun Dec 10 06:36:15 2023.
