 Gaussian 16, Revision A.03,
 Gaussian 16:  ES64L-G16RevA.03 25-Dec-2016

 ------------------
 #p CCSD(T)/CEP-31G
 ------------------

 -----------
 H2O_H2O_585
 -----------
 Symbolic Z-matrix:
 Charge =  0 Multiplicity = 1

                         Standard orientation:
 ---------------------------------------------------------------------
 Center     Atomic      Atomic             Coordinates (Angstroms)
 Number     Number       Type             X           Y           Z
 ---------------------------------------------------------------------
      1          8           0        0.063317    1.339376    0.000000
      2          1           0        0.061302    0.356777    0.000000
      3          1           0       -0.865521    1.659948   -0.000000
      4          8           0        0.063317   -1.163985    0.000000
      5          1           0        0.659887   -1.944759    0.000000
      6          1           0       -0.868732   -1.475098   -0.000000
 ---------------------------------------------------------------------

 SCF Done:  E(RHF) =  -33.6542509204     A.U. after   11 cycles
 E2 =    -0.2289969257D+00 EUMP2 =    -0.33883247846185D+02
 CCSD(T)
 CCSD(T)= -0.33899130264D+02

 The electronic state is 1-A'.
 Alpha  occ. eigenvalues --   -1.40769  -1.29920  -0.76378  -0.70472  -0.58575
 Alpha  occ. eigenvalues --   -0.55313  -0.48867  -0.44374
 Alpha virt. eigenvalues --    0.16958   0.26575   0.27977   0.52817   0.74101
 Alpha virt. eigenvalues --    0.75142   0.85366   0.88680   0.96513   1.04459
 Alpha virt. eigenvalues --    1.15163   1.18602   1.23505   1.36308   2.67236

 Mulliken charges:
               1
     1  O   -0.765682
     2  H    0.420374
     3  H    0.329756
     4  O   -0.833116
     5  H    0.446794
     6  H    0.401874
 Sum of Mulliken charges =  -0.00000

 Dipole moment (field-independent basis, Debye):
    X=             -2.6746    Y=             -4.9249    Z=             -0.0000  Tot=              5.6043
 Quadrupole moment (field-independent basis, Debye-Ang):
   XX=             -9.7386   YY=             -9.5305   ZZ=            -15.0067
   XY=             -3.6059   XZ=              0.0000   YZ=             -0.0000

 953\MP4DQ=-33.893133\MP4SDQ=-33.8953414\CCSD=-33.8961688\CCSD(T)=-33.8
 Normal termination of Gaussian 16 at Sun Dec 10 06:29:32 2023.
