 Gaussian 16, Revision A.03,
 Gaussian 16:  ES64L-G16RevA.03 25-Dec-2016

 ------------------
 #p CCSD(T)/CEP-31G
 ------------------

 ------------
 H2O_H2O_2362
 ------------
 Symbolic Z-matrix:
 Charge =  0 Multiplicity = 1

                         Standard orientation:
 ---------------------------------------------------------------------
 Center     Atomic      Atomic             Coordinates (Angstroms)
 Number     Number       Type             X           Y           Z
 ---------------------------------------------------------------------
      1          8           0        0.056009    2.049276    0.000000
      2          1           0        0.054409    1.066676    0.000000
      3          1           0       -0.872963    2.369456    0.000000
      4          8           0        0.056009   -1.870392    0.000000
      5          1           0        0.749681   -2.566328    0.000000
      6          1           0       -0.827276   -2.300874    0.000000
 ---------------------------------------------------------------------

 SCF Done:  E(RHF) =  -33.6567015680     A.U. after   11 cycles
 E2 =    -0.2284745543D+00 EUMP2 =    -0.33885176122301D+02
 CCSD(T)
 CCSD(T)= -0.33902073828D+02

 The electronic state is 1-A'.
 Alpha  occ. eigenvalues --   -1.37103  -1.33535  -0.72757  -0.69149  -0.57161
 Alpha  occ. eigenvalues --   -0.53363  -0.51742  -0.48167
 Alpha virt. eigenvalues --    0.18295   0.23207   0.29172   0.33637   0.78757
 Alpha virt. eigenvalues --    0.82382   0.83900   0.85334   0.86203   0.88578
 Alpha virt. eigenvalues --    1.15961   1.19910   1.20427   1.30168   2.53708

 Mulliken charges:
               1
     1  O   -0.761511
     2  H    0.397814
     3  H    0.361756
     4  O   -0.756855
     5  H    0.383082
     6  H    0.375714
 Sum of Mulliken charges =   0.00000

 Dipole moment (field-independent basis, Debye):
    X=             -2.5386    Y=             -4.3506    Z=              0.0000  Tot=              5.0371
 Quadrupole moment (field-independent basis, Debye-Ang):
   XX=             -9.5825   YY=             -7.1420   ZZ=            -14.9982
   XY=             -4.9961   XZ=              0.0000   YZ=              0.0000

 22\MP4DQ=-33.8963932\MP4SDQ=-33.8984546\CCSD=-33.899484\CCSD(T)=-33.90
 Normal termination of Gaussian 16 at Sun Dec 10 07:04:54 2023.
