 Gaussian 16, Revision A.03,
 Gaussian 16:  ES64L-G16RevA.03 25-Dec-2016

 ------------------
 #p CCSD(T)/CEP-31G
 ------------------

 ------------
 H2O_H2O_2149
 ------------
 Symbolic Z-matrix:
 Charge =  0 Multiplicity = 1

                         Standard orientation:
 ---------------------------------------------------------------------
 Center     Atomic      Atomic             Coordinates (Angstroms)
 Number     Number       Type             X           Y           Z
 ---------------------------------------------------------------------
      1          8           0       -0.013570    1.948870    0.000000
      2          1           0       -0.009965    0.966275    0.000000
      3          1           0        0.914747    2.270945    0.000000
      4          8           0       -0.013570   -1.789626    0.000000
      5          1           0       -0.996164   -1.793231    0.000000
      6          1           0        0.308506   -2.717944    0.000000
 ---------------------------------------------------------------------

 SCF Done:  E(RHF) =  -33.6575835414     A.U. after   11 cycles
 E2 =    -0.2284866064D+00 EUMP2 =    -0.33886070147842D+02
 CCSD(T)
 CCSD(T)= -0.33902978016D+02

 The electronic state is 1-A'.
 Alpha  occ. eigenvalues --   -1.37219  -1.33691  -0.72908  -0.69356  -0.57333
 Alpha  occ. eigenvalues --   -0.53561  -0.51863  -0.48352
 Alpha virt. eigenvalues --    0.17774   0.23645   0.29138   0.34075   0.78502
 Alpha virt. eigenvalues --    0.82335   0.82574   0.85396   0.87773   0.90886
 Alpha virt. eigenvalues --    1.15819   1.19764   1.20549   1.34085   2.53980

 Mulliken charges:
               1
     1  O   -0.766108
     2  H    0.395703
     3  H    0.368211
     4  O   -0.762210
     5  H    0.380200
     6  H    0.384203
 Sum of Mulliken charges =   0.00000

 Dipole moment (field-independent basis, Debye):
    X=              0.6109    Y=             -3.8914    Z=              0.0000  Tot=              3.9391
 Quadrupole moment (field-independent basis, Debye-Ang):
   XX=             -9.8609   YY=             -8.1656   ZZ=            -14.9992
   XY=              7.0132   XZ=              0.0000   YZ=              0.0000

 5223\MP4DQ=-33.897273\MP4SDQ=-33.8993488\CCSD=-33.9003741\CCSD(T)=-33.
 Normal termination of Gaussian 16 at Sun Dec 10 06:59:32 2023.
