 Gaussian 16, Revision A.03,
 Gaussian 16:  ES64L-G16RevA.03 25-Dec-2016

 ------------------
 #p CCSD(T)/CEP-31G
 ------------------

 ------------
 H2O_H2O_4757
 ------------
 Symbolic Z-matrix:
 Charge =  0 Multiplicity = 1

                         Standard orientation:
 ---------------------------------------------------------------------
 Center     Atomic      Atomic             Coordinates (Angstroms)
 Number     Number       Type             X           Y           Z
 ---------------------------------------------------------------------
      1          8           0        0.073522    3.000104    0.000000
      2          1           0        0.072957    2.017502    0.000000
      3          1           0       -0.855788    3.319304    0.000000
      4          8           0        0.073522   -2.833138   -0.000000
      5          1           0        0.507609   -3.714656   -0.000000
      6          1           0       -0.901130   -2.957878   -0.000000
 ---------------------------------------------------------------------

 SCF Done:  E(RHF) =  -33.6526543562     A.U. after   11 cycles
 E2 =    -0.2283291318D+00 EUMP2 =    -0.33880983488058D+02
 CCSD(T)
 CCSD(T)= -0.33897959470D+02

 The electronic state is 1-A'.
 Alpha  occ. eigenvalues --   -1.36229  -1.34880  -0.71871  -0.70504  -0.56014
 Alpha  occ. eigenvalues --   -0.54638  -0.50813  -0.49463
 Alpha virt. eigenvalues --    0.19577   0.20983   0.29836   0.31248   0.79743
 Alpha virt. eigenvalues --    0.81067   0.82666   0.84071   0.85788   0.87215
 Alpha virt. eigenvalues --    1.16711   1.18057   1.21157   1.22557   2.56700

 Mulliken charges:
               1
     1  O   -0.744529
     2  H    0.376871
     3  H    0.367654
     4  O   -0.744461
     5  H    0.374270
     6  H    0.370194
 Sum of Mulliken charges =   0.00000

 Dipole moment (field-independent basis, Debye):
    X=             -3.3818    Y=             -3.9123    Z=             -0.0000  Tot=              5.1713
 Quadrupole moment (field-independent basis, Debye-Ang):
   XX=            -10.1651   YY=             -6.1480   ZZ=            -14.9902
   XY=             -4.8388   XZ=             -0.0000   YZ=              0.0000

 577\MP4DQ=-33.8923213\MP4SDQ=-33.8943467\CCSD=-33.8954004\CCSD(T)=-33.
 Normal termination of Gaussian 16 at Sun Dec 10 06:58:38 2023.
