 Gaussian 16, Revision A.03,
 Gaussian 16:  ES64L-G16RevA.03 25-Dec-2016

 ------------------
 #p CCSD(T)/CEP-31G
 ------------------

 ------------
 H2O_H2O_3037
 ------------
 Symbolic Z-matrix:
 Charge =  0 Multiplicity = 1

                         Standard orientation:
 ---------------------------------------------------------------------
 Center     Atomic      Atomic             Coordinates (Angstroms)
 Number     Number       Type             X           Y           Z
 ---------------------------------------------------------------------
      1          8           0        0.055992    2.318529   -0.000000
      2          1           0        0.054584    1.335929   -0.000000
      3          1           0       -0.873044    2.638527   -0.000000
      4          8           0        0.055992   -2.139623    0.000000
      5          1           0        0.749800   -2.835422    0.000000
      6          1           0       -0.827209   -2.570279    0.000000
 ---------------------------------------------------------------------

 SCF Done:  E(RHF) =  -33.6549521968     A.U. after   11 cycles
 E2 =    -0.2283369219D+00 EUMP2 =    -0.33883289118674D+02
 CCSD(T)
 CCSD(T)= -0.33900204925D+02

 The electronic state is 1-A'.
 Alpha  occ. eigenvalues --   -1.36712  -1.34060  -0.72360  -0.69674  -0.56634
 Alpha  occ. eigenvalues --   -0.53872  -0.51328  -0.48673
 Alpha virt. eigenvalues --    0.18836   0.22217   0.29465   0.32345   0.79243
 Alpha virt. eigenvalues --    0.81813   0.82557   0.84814   0.85221   0.88035
 Alpha virt. eigenvalues --    1.16318   1.19211   1.20735   1.25473   2.56006

 Mulliken charges:
               1
     1  O   -0.753589
     2  H    0.388066
     3  H    0.364756
     4  O   -0.751546
     5  H    0.378805
     6  H    0.373509
 Sum of Mulliken charges =  -0.00000

 Dipole moment (field-independent basis, Debye):
    X=             -2.5541    Y=             -4.2733    Z=             -0.0000  Tot=              4.9784
 Quadrupole moment (field-independent basis, Debye-Ang):
   XX=             -9.5839   YY=             -6.5218   ZZ=            -14.9949
   XY=             -5.4617   XZ=              0.0000   YZ=             -0.0000

 8098\MP4DQ=-33.8945626\MP4SDQ=-33.8965991\CCSD=-33.8976392\CCSD(T)=-33
 Normal termination of Gaussian 16 at Sun Dec 10 06:27:43 2023.
