 Gaussian 16, Revision A.03,
 Gaussian 16:  ES64L-G16RevA.03 25-Dec-2016

 ------------------
 #p CCSD(T)/CEP-31G
 ------------------

 ------------
 H2O_H2O_4639
 ------------
 Symbolic Z-matrix:
 Charge =  0 Multiplicity = 1

                         Standard orientation:
 ---------------------------------------------------------------------
 Center     Atomic      Atomic             Coordinates (Angstroms)
 Number     Number       Type             X           Y           Z
 ---------------------------------------------------------------------
      1          8           0        0.048550    2.957556   -0.000000
      2          1           0        0.047237    1.974955   -0.000000
      3          1           0       -0.880516    3.277464   -0.000000
      4          8           0        0.048550   -2.777132    0.000000
      5          1           0        0.827301   -3.376344    0.000000
      6          1           0       -0.770830   -3.319462    0.000000
 ---------------------------------------------------------------------

 SCF Done:  E(RHF) =  -33.6532003811     A.U. after   10 cycles
 E2 =    -0.2283046708D+00 EUMP2 =    -0.33881505051918D+02
 CCSD(T)
 CCSD(T)= -0.33898465314D+02

 The electronic state is 1-A'.
 Alpha  occ. eigenvalues --   -1.36231  -1.34698  -0.71871  -0.70327  -0.56047
 Alpha  occ. eigenvalues --   -0.54478  -0.50824  -0.49292
 Alpha virt. eigenvalues --    0.19609   0.21196   0.29866   0.31475   0.79728
 Alpha virt. eigenvalues --    0.81228   0.82597   0.84220   0.85777   0.87338
 Alpha virt. eigenvalues --    1.16731   1.18265   1.21176   1.22764   2.56706

 Mulliken charges:
               1
     1  O   -0.746628
     2  H    0.378390
     3  H    0.368231
     4  O   -0.746144
     5  H    0.374215
     6  H    0.371936
 Sum of Mulliken charges =   0.00000

 Dipole moment (field-independent basis, Debye):
    X=             -2.2308    Y=             -4.2284    Z=              0.0000  Tot=              4.7808
 Quadrupole moment (field-independent basis, Debye-Ang):
   XX=             -9.4627   YY=             -4.9810   ZZ=            -14.9915
   XY=             -7.2536   XZ=              0.0000   YZ=             -0.0000

 5\MP4DQ=-33.8928313\MP4SDQ=-33.8948553\CCSD=-33.8959079\CCSD(T)=-33.89
 Normal termination of Gaussian 16 at Sun Dec 10 06:56:30 2023.
