 Gaussian 16, Revision A.03,
 Gaussian 16:  ES64L-G16RevA.03 25-Dec-2016

 ------------------
 #p CCSD(T)/CEP-31G
 ------------------

 ------------
 H2O_H2O_1040
 ------------
 Symbolic Z-matrix:
 Charge =  0 Multiplicity = 1

                         Standard orientation:
 ---------------------------------------------------------------------
 Center     Atomic      Atomic             Coordinates (Angstroms)
 Number     Number       Type             X           Y           Z
 ---------------------------------------------------------------------
      1          8           0        0.044954    1.521542    0.000000
      2          1           0        0.042102    0.538945    0.000000
      3          1           0       -0.883610    1.842905   -0.000000
      4          8           0        0.044954   -1.341238    0.000000
      5          1           0        0.860371   -1.889511    0.000000
      6          1           0       -0.738132   -1.934771   -0.000000
 ---------------------------------------------------------------------

 SCF Done:  E(RHF) =  -33.6631307417     A.U. after   11 cycles
 E2 =    -0.2290804862D+00 EUMP2 =    -0.33892211227890D+02
 CCSD(T)
 CCSD(T)= -0.33908663923D+02

 The electronic state is 1-A'.
 Alpha  occ. eigenvalues --   -1.38876  -1.31189  -0.74439  -0.68187  -0.59260
 Alpha  occ. eigenvalues --   -0.53619  -0.50752  -0.45833
 Alpha virt. eigenvalues --    0.17634   0.26492   0.28003   0.45039   0.75621
 Alpha virt. eigenvalues --    0.77394   0.85706   0.86367   0.95061   0.99802
 Alpha virt. eigenvalues --    1.14981   1.19028   1.22474   1.35356   2.52392

 Mulliken charges:
               1
     1  O   -0.786130
     2  H    0.436132
     3  H    0.348154
     4  O   -0.807638
     5  H    0.408317
     6  H    0.401165
 Sum of Mulliken charges =  -0.00000

 Dipole moment (field-independent basis, Debye):
    X=             -1.9726    Y=             -4.7203    Z=             -0.0000  Tot=              5.1159
 Quadrupole moment (field-independent basis, Debye-Ang):
   XX=             -9.3798   YY=             -8.7309   ZZ=            -15.0177
   XY=             -4.3349   XZ=              0.0000   YZ=             -0.0000

 1414\MP4DQ=-33.9028221\MP4SDQ=-33.9049335\CCSD=-33.9058741\CCSD(T)=-33
 Normal termination of Gaussian 16 at Sun Dec 10 06:38:04 2023.
