 Gaussian 16, Revision A.03,
 Gaussian 16:  ES64L-G16RevA.03 25-Dec-2016

 ------------------
 #p CCSD(T)/CEP-31G
 ------------------

 ------------
 H2O_H2O_1706
 ------------
 Symbolic Z-matrix:
 Charge =  0 Multiplicity = 1

                         Standard orientation:
 ---------------------------------------------------------------------
 Center     Atomic      Atomic             Coordinates (Angstroms)
 Number     Number       Type             X           Y           Z
 ---------------------------------------------------------------------
      1          8           0        0.076775    1.781472    0.000000
      2          1           0        0.075966    0.798871    0.000000
      3          1           0       -0.852456    2.100903    0.000000
      4          8           0        0.076775   -1.618295    0.000000
      5          1           0        0.452053   -2.526410    0.000000
      6          1           0       -0.903964   -1.678780    0.000000
 ---------------------------------------------------------------------

 SCF Done:  E(RHF) =  -33.6568866976     A.U. after   11 cycles
 E2 =    -0.2288099154D+00 EUMP2 =    -0.33885696613052D+02
 CCSD(T)
 CCSD(T)= -0.33902646308D+02

 The electronic state is 1-A'.
 Alpha  occ. eigenvalues --   -1.37761  -1.33307  -0.73500  -0.68926  -0.57899
 Alpha  occ. eigenvalues --   -0.53042  -0.52381  -0.47910
 Alpha virt. eigenvalues --    0.17448   0.24299   0.28554   0.36423   0.77621
 Alpha virt. eigenvalues --    0.81769   0.83236   0.85253   0.89592   0.98023
 Alpha virt. eigenvalues --    1.15157   1.18926   1.20917   1.37019   2.51129

 Mulliken charges:
               1
     1  O   -0.764030
     2  H    0.406550
     3  H    0.354890
     4  O   -0.765775
     5  H    0.395223
     6  H    0.373142
 Sum of Mulliken charges =   0.00000

 Dipole moment (field-independent basis, Debye):
    X=             -3.4523    Y=             -4.0883    Z=              0.0000  Tot=              5.3510
 Quadrupole moment (field-independent basis, Debye-Ang):
   XX=            -10.3385   YY=             -8.3144   ZZ=            -14.9978
   XY=             -3.5452   XZ=              0.0000   YZ=              0.0000

 1383\MP4DQ=-33.8968651\MP4SDQ=-33.8989762\CCSD=-33.8999949\CCSD(T)=-33
 Normal termination of Gaussian 16 at Sun Dec 10 06:51:06 2023.
