 Gaussian 16, Revision A.03,
 Gaussian 16:  ES64L-G16RevA.03 25-Dec-2016

 ------------------
 #p CCSD(T)/CEP-31G
 ------------------

 -----------
 H2O_H2O_690
 -----------
 Symbolic Z-matrix:
 Charge =  0 Multiplicity = 1

                         Standard orientation:
 ---------------------------------------------------------------------
 Center     Atomic      Atomic             Coordinates (Angstroms)
 Number     Number       Type             X           Y           Z
 ---------------------------------------------------------------------
      1          8           0        0.044983    1.381921    0.000000
      2          1           0        0.041823    0.399325    0.000000
      3          1           0       -0.883481    1.703575   -0.000000
      4          8           0        0.044983   -1.201645    0.000000
      5          1           0        0.860226   -1.750174    0.000000
      6          1           0       -0.738290   -1.794933   -0.000000
 ---------------------------------------------------------------------

 SCF Done:  E(RHF) =  -33.6599737328     A.U. after   11 cycles
 E2 =    -0.2290452462D+00 EUMP2 =    -0.33889018978913D+02
 CCSD(T)
 CCSD(T)= -0.33904968916D+02

 The electronic state is 1-A'.
 Alpha  occ. eigenvalues --   -1.40140  -1.29964  -0.75493  -0.69856  -0.58953
 Alpha  occ. eigenvalues --   -0.54834  -0.49099  -0.44514
 Alpha virt. eigenvalues --    0.17290   0.27274   0.27680   0.51330   0.74451
 Alpha virt. eigenvalues --    0.75056   0.85404   0.88296   0.97400   0.98892
 Alpha virt. eigenvalues --    1.14862   1.18265   1.23832   1.36992   2.61740

 Mulliken charges:
               1
     1  O   -0.781160
     2  H    0.432447
     3  H    0.338208
     4  O   -0.828804
     5  H    0.423527
     6  H    0.415781
 Sum of Mulliken charges =   0.00000

 Dipole moment (field-independent basis, Debye):
    X=             -1.9364    Y=             -4.9425    Z=             -0.0000  Tot=              5.3083
 Quadrupole moment (field-independent basis, Debye-Ang):
   XX=             -9.3550   YY=             -9.3692   ZZ=            -15.0176
   XY=             -3.9834   XZ=              0.0000   YZ=             -0.0000

 79\MP4DQ=-33.8990454\MP4SDQ=-33.9011975\CCSD=-33.9020458\CCSD(T)=-33.9
 Normal termination of Gaussian 16 at Sun Dec 10 06:31:30 2023.
