 Gaussian 16, Revision A.03,
 Gaussian 16:  ES64L-G16RevA.03 25-Dec-2016

 ------------------
 #p CCSD(T)/CEP-31G
 ------------------

 ------------
 H2O_H2O_4638
 ------------
 Symbolic Z-matrix:
 Charge =  0 Multiplicity = 1

                         Standard orientation:
 ---------------------------------------------------------------------
 Center     Atomic      Atomic             Coordinates (Angstroms)
 Number     Number       Type             X           Y           Z
 ---------------------------------------------------------------------
      1          8           0        0.052269    2.957285    0.000000
      2          1           0        0.051066    1.974684    0.000000
      3          1           0       -0.876833    3.277089    0.000000
      4          8           0        0.052269   -2.777360   -0.000000
      5          1           0        0.790234   -3.426138   -0.000000
      6          1           0       -0.800772   -3.265034   -0.000000
 ---------------------------------------------------------------------

 SCF Done:  E(RHF) =  -33.6531503930     A.U. after   11 cycles
 E2 =    -0.2283071259D+00 EUMP2 =    -0.33881457518917D+02
 CCSD(T)
 CCSD(T)= -0.33898419154D+02

 The electronic state is 1-A'.
 Alpha  occ. eigenvalues --   -1.36234  -1.34706  -0.71873  -0.70334  -0.56047
 Alpha  occ. eigenvalues --   -0.54483  -0.50826  -0.49299
 Alpha virt. eigenvalues --    0.19603   0.21186   0.29860   0.31464   0.79727
 Alpha virt. eigenvalues --    0.81222   0.82600   0.84215   0.85776   0.87337
 Alpha virt. eigenvalues --    1.16727   1.18254   1.21172   1.22755   2.56703

 Mulliken charges:
               1
     1  O   -0.746436
     2  H    0.378348
     3  H    0.368081
     4  O   -0.745991
     5  H    0.374280
     6  H    0.371718
 Sum of Mulliken charges =  -0.00000

 Dipole moment (field-independent basis, Debye):
    X=             -2.4019    Y=             -4.2171    Z=             -0.0000  Tot=              4.8531
 Quadrupole moment (field-independent basis, Debye-Ang):
   XX=             -9.5148   YY=             -5.0279   ZZ=            -14.9913
   XY=             -6.9077   XZ=             -0.0000   YZ=              0.0000

 82\MP4DQ=-33.8927848\MP4SDQ=-33.8948089\CCSD=-33.8958616\CCSD(T)=-33.8
 Normal termination of Gaussian 16 at Sun Dec 10 06:56:29 2023.
