 Gaussian 16, Revision A.03,
 Gaussian 16:  ES64L-G16RevA.03 25-Dec-2016

 ------------------
 #p CCSD(T)/CEP-31G
 ------------------

 ------------
 H2O_H2O_4868
 ------------
 Symbolic Z-matrix:
 Charge =  0 Multiplicity = 1

                         Standard orientation:
 ---------------------------------------------------------------------
 Center     Atomic      Atomic             Coordinates (Angstroms)
 Number     Number       Type             X           Y           Z
 ---------------------------------------------------------------------
      1          8           0        0.033743    3.045749   -0.000000
      2          1           0        0.032045    2.063149   -0.000000
      3          1           0       -0.895197    3.366021   -0.000000
      4          8           0        0.033743   -2.868190    0.000000
      5          1           0        0.940898   -3.245784    0.000000
      6          1           0       -0.617641   -3.603857    0.000000
 ---------------------------------------------------------------------

 SCF Done:  E(RHF) =  -33.6531784579     A.U. after   11 cycles
 E2 =    -0.2283029108D+00 EUMP2 =    -0.33881481368748D+02
 CCSD(T)
 CCSD(T)= -0.33898442644D+02

 The electronic state is 1-A'.
 Alpha  occ. eigenvalues --   -1.36187  -1.34774  -0.71825  -0.70408  -0.56000
 Alpha  occ. eigenvalues --   -0.54556  -0.50780  -0.49369
 Alpha virt. eigenvalues --    0.19658   0.21108   0.29910   0.31385   0.79771
 Alpha virt. eigenvalues --    0.81153   0.82653   0.84141   0.85825   0.87245
 Alpha virt. eigenvalues --    1.16775   1.18189   1.21220   1.22673   2.56752

 Mulliken charges:
               1
     1  O   -0.746523
     2  H    0.377411
     3  H    0.369109
     4  O   -0.746060
     5  H    0.373564
     6  H    0.372499
 Sum of Mulliken charges =   0.00000

 Dipole moment (field-independent basis, Debye):
    X=             -1.5510    Y=             -4.1549    Z=              0.0000  Tot=              4.4350
 Quadrupole moment (field-independent basis, Debye-Ang):
   XX=             -9.4380   YY=             -5.0370   ZZ=            -14.9914
   XY=             -8.8748   XZ=              0.0000   YZ=             -0.0000

 617\MP4DQ=-33.8928086\MP4SDQ=-33.8948325\CCSD=-33.8958853\CCSD(T)=-33.
 Normal termination of Gaussian 16 at Sun Dec 10 07:00:53 2023.
