 Gaussian 16, Revision A.03,
 Gaussian 16:  ES64L-G16RevA.03 25-Dec-2016

 ------------------
 #p CCSD(T)/CEP-31G
 ------------------

 ------------
 H2O_H2O_2672
 ------------
 Symbolic Z-matrix:
 Charge =  0 Multiplicity = 1

                         Standard orientation:
 ---------------------------------------------------------------------
 Center     Atomic      Atomic             Coordinates (Angstroms)
 Number     Number       Type             X           Y           Z
 ---------------------------------------------------------------------
      1          8           0       -0.019882    2.162541    0.000000
      2          1           0       -0.016898    1.179944    0.000000
      3          1           0        0.908639    2.484028    0.000000
      4          8           0       -0.019882   -1.995447    0.000000
      5          1           0       -0.993683   -2.126660    0.000000
      6          1           0        0.420052   -2.874063    0.000000
 ---------------------------------------------------------------------

 SCF Done:  E(RHF) =  -33.6561966578     A.U. after   11 cycles
 E2 =    -0.2283545476D+00 EUMP2 =    -0.33884551205370D+02
 CCSD(T)
 CCSD(T)= -0.33901451362D+02

 The electronic state is 1-A'.
 Alpha  occ. eigenvalues --   -1.36869  -1.33966  -0.72525  -0.69611  -0.56865
 Alpha  occ. eigenvalues --   -0.53823  -0.51501  -0.48607
 Alpha virt. eigenvalues --    0.18340   0.22705   0.29361   0.32743   0.79043
 Alpha virt. eigenvalues --    0.81895   0.83030   0.84576   0.86196   0.87881
 Alpha virt. eigenvalues --    1.16141   1.19556   1.20624   1.28445   2.55457

 Mulliken charges:
               1
     1  O   -0.759039
     2  H    0.389816
     3  H    0.367959
     4  O   -0.755846
     5  H    0.378224
     6  H    0.378886
 Sum of Mulliken charges =  -0.00000

 Dipole moment (field-independent basis, Debye):
    X=              0.9016    Y=             -4.0180    Z=              0.0000  Tot=              4.1179
 Quadrupole moment (field-independent basis, Debye-Ang):
   XX=             -9.6701   YY=             -7.4543   ZZ=            -14.9970
   XY=              7.3291   XZ=              0.0000   YZ=              0.0000

 039\MP4DQ=-33.8957943\MP4SDQ=-33.8978423\CCSD=-33.8988759\CCSD(T)=-33.
 Normal termination of Gaussian 16 at Sun Dec 10 06:21:06 2023.
