 Gaussian 16, Revision A.03,
 Gaussian 16:  ES64L-G16RevA.03 25-Dec-2016

 ------------------
 #p CCSD(T)/CEP-31G
 ------------------

 ----------
 H2O_H2O_36
 ----------
 Symbolic Z-matrix:
 Charge =  0 Multiplicity = 1

                         Standard orientation:
 ---------------------------------------------------------------------
 Center     Atomic      Atomic             Coordinates (Angstroms)
 Number     Number       Type             X           Y           Z
 ---------------------------------------------------------------------
      1          8           0        0.059775    1.121015    0.000000
      2          1           0        0.057037    0.138417    0.000000
      3          1           0       -0.868826    1.442270    0.000000
      4          8           0        0.059775   -0.943751   -0.000000
      5          1           0        0.705588   -1.684312   -0.000000
      6          1           0       -0.850203   -1.314487   -0.000000
 ---------------------------------------------------------------------

 SCF Done:  E(RHF) =  -33.5864382854     A.U. after   11 cycles
 E2 =    -0.2275271260D+00 EUMP2 =    -0.33813965411337D+02
 CCSD(T)
 CCSD(T)= -0.33828454212D+02

 The electronic state is 1-A'.
 Alpha  occ. eigenvalues --   -1.46815  -1.26596  -0.82152  -0.78206  -0.59564
 Alpha  occ. eigenvalues --   -0.53899  -0.43222  -0.40404
 Alpha virt. eigenvalues --    0.15947   0.24418   0.30646   0.62338   0.73141
 Alpha virt. eigenvalues --    0.73662   0.86568   0.92128   0.92136   1.09027
 Alpha virt. eigenvalues --    1.11184   1.17564   1.30292   1.36153   3.02986

 Mulliken charges:
               1
     1  O   -0.731073
     2  H    0.276411
     3  H    0.295137
     4  O   -0.753818
     5  H    0.479720
     6  H    0.433623
 Sum of Mulliken charges =  -0.00000

 Dipole moment (field-independent basis, Debye):
    X=             -2.3740    Y=             -5.7844    Z=             -0.0000  Tot=              6.2526
 Quadrupole moment (field-independent basis, Debye-Ang):
   XX=             -9.5540   YY=            -10.8312   ZZ=            -14.9060
   XY=             -3.1821   XZ=             -0.0000   YZ=              0.0000

 \MP4DQ=-33.8221621\MP4SDQ=-33.8246013\CCSD=-33.8251654\CCSD(T)=-33.828
 Normal termination of Gaussian 16 at Sun Dec 10 06:18:43 2023.
