 Gaussian 16, Revision A.03,
 Gaussian 16:  ES64L-G16RevA.03 25-Dec-2016

 ------------------
 #p CCSD(T)/CEP-31G
 ------------------

 ------------
 H2O_H2O_1868
 ------------
 Symbolic Z-matrix:
 Charge =  0 Multiplicity = 1

                         Standard orientation:
 ---------------------------------------------------------------------
 Center     Atomic      Atomic             Coordinates (Angstroms)
 Number     Number       Type             X           Y           Z
 ---------------------------------------------------------------------
      1          8           0        0.033848    1.849080    0.000000
      2          1           0        0.030995    0.866483    0.000000
      3          1           0       -0.894716    2.170444   -0.000000
      4          8           0        0.033848   -1.671601    0.000000
      5          1           0        0.940557   -2.050260    0.000000
      6          1           0       -0.618400   -2.406502   -0.000000
 ---------------------------------------------------------------------

 SCF Done:  E(RHF) =  -33.6595099676     A.U. after   11 cycles
 E2 =    -0.2286194064D+00 EUMP2 =    -0.33888129374049D+02
 CCSD(T)
 CCSD(T)= -0.33904977974D+02

 The electronic state is 1-A'.
 Alpha  occ. eigenvalues --   -1.37490  -1.32927  -0.73143  -0.68625  -0.57799
 Alpha  occ. eigenvalues --   -0.52781  -0.52166  -0.47597
 Alpha virt. eigenvalues --    0.18090   0.24321   0.28949   0.36057   0.78033
 Alpha virt. eigenvalues --    0.82159   0.83243   0.86351   0.88708   0.92734
 Alpha virt. eigenvalues --    1.15633   1.19828   1.20821   1.33600   2.51189

 Mulliken charges:
               1
     1  O   -0.773829
     2  H    0.409654
     3  H    0.361833
     4  O   -0.768628
     5  H    0.385944
     6  H    0.385025
 Sum of Mulliken charges =   0.00000

 Dipole moment (field-independent basis, Debye):
    X=             -1.5216    Y=             -4.3941    Z=             -0.0000  Tot=              4.6501
 Quadrupole moment (field-independent basis, Debye-Ang):
   XX=             -9.4167   YY=             -7.6896   ZZ=            -15.0041
   XY=             -5.5676   XZ=              0.0000   YZ=             -0.0000

 11\MP4DQ=-33.8992532\MP4SDQ=-33.9013318\CCSD=-33.9023509\CCSD(T)=-33.9
 Normal termination of Gaussian 16 at Sun Dec 10 06:54:09 2023.
