 Gaussian 16, Revision A.03,
 Gaussian 16:  ES64L-G16RevA.03 25-Dec-2016

 ------------------
 #p CCSD(T)/CEP-31G
 ------------------

 ------------
 H2O_H2O_3371
 ------------
 Symbolic Z-matrix:
 Charge =  0 Multiplicity = 1

                         Standard orientation:
 ---------------------------------------------------------------------
 Center     Atomic      Atomic             Coordinates (Angstroms)
 Number     Number       Type             X           Y           Z
 ---------------------------------------------------------------------
      1          8           0       -0.023200    2.443544    0.000000
      2          1           0       -0.020690    1.460946    0.000000
      3          1           0        0.905476    2.764584    0.000000
      4          8           0       -0.023200   -2.273153    0.000000
      5          1           0       -0.986429   -2.467309    0.000000
      6          1           0        0.472847   -3.121353    0.000000
 ---------------------------------------------------------------------

 SCF Done:  E(RHF) =  -33.6547329929     A.U. after   11 cycles
 E2 =    -0.2282804722D+00 EUMP2 =    -0.33883013465070D+02
 CCSD(T)
 CCSD(T)= -0.33899933599D+02

 The electronic state is 1-A'.
 Alpha  occ. eigenvalues --   -1.36548  -1.34331  -0.72193  -0.69969  -0.56450
 Alpha  occ. eigenvalues --   -0.54158  -0.51161  -0.48950
 Alpha virt. eigenvalues --    0.19066   0.21851   0.29596   0.32017   0.79402
 Alpha virt. eigenvalues --    0.81541   0.82235   0.84452   0.85488   0.87679
 Alpha virt. eigenvalues --    1.16464   1.18860   1.20852   1.24281   2.56428

 Mulliken charges:
               1
     1  O   -0.752631
     2  H    0.383718
     3  H    0.368572
     4  O   -0.751312
     5  H    0.375915
     6  H    0.375739
 Sum of Mulliken charges =   0.00000

 Dipole moment (field-independent basis, Debye):
    X=              1.0593    Y=             -4.0391    Z=              0.0000  Tot=              4.1757
 Quadrupole moment (field-independent basis, Debye-Ang):
   XX=             -9.5935   YY=             -6.7780   ZZ=            -14.9944
   XY=              8.0111   XZ=              0.0000   YZ=              0.0000

 478\MP4DQ=-33.8943007\MP4SDQ=-33.8963288\CCSD=-33.8973735\CCSD(T)=-33.
 Normal termination of Gaussian 16 at Sun Dec 10 06:33:43 2023.
