 Gaussian 16, Revision A.03,
 Gaussian 16:  ES64L-G16RevA.03 25-Dec-2016

 ------------------
 #p CCSD(T)/CEP-31G
 ------------------

 -----------
 H2O_H2O_950
 -----------
 Symbolic Z-matrix:
 Charge =  0 Multiplicity = 1

                         Standard orientation:
 ---------------------------------------------------------------------
 Center     Atomic      Atomic             Coordinates (Angstroms)
 Number     Number       Type             X           Y           Z
 ---------------------------------------------------------------------
      1          8           0        0.092949   -1.465805    0.000000
      2          1           0        0.092949   -0.483204    0.000000
      3          1           0       -0.836544   -1.784472    0.000000
      4          8           0        0.092949    1.333018    0.000000
      5          1           0        0.092949    2.315619    0.000000
      6          1           0       -0.836544    1.014351    0.000000
 ---------------------------------------------------------------------

 SCF Done:  E(RHF) =  -33.6482696468     A.U. after   11 cycles
 E2 =    -0.2294080871D+00 EUMP2 =    -0.33877677733936D+02
 CCSD(T)
 CCSD(T)= -0.33894634606D+02

 The electronic state is 1-A'.
 Alpha  occ. eigenvalues --   -1.39518  -1.33363  -0.76287  -0.68691  -0.59061
 Alpha  occ. eigenvalues --   -0.53875  -0.52804  -0.47811
 Alpha virt. eigenvalues --    0.16483   0.25045   0.27723   0.43537   0.74860
 Alpha virt. eigenvalues --    0.79503   0.84740   0.85398   0.90955   1.12188
 Alpha virt. eigenvalues --    1.14303   1.23420   1.28909   1.37635   2.51371

 Mulliken charges:
               1
     1  O   -0.733131
     2  H    0.368878
     3  H    0.344238
     4  O   -0.763398
     5  H    0.420377
     6  H    0.363037
 Sum of Mulliken charges =  -0.00000

 Dipole moment (field-independent basis, Debye):
    X=             -4.1098    Y=              3.6001    Z=              0.0000  Tot=              5.4636
 Quadrupole moment (field-independent basis, Debye-Ang):
   XX=            -11.3652   YY=             -9.6801   ZZ=            -14.9848
   XY=              2.2216   XZ=              0.0000   YZ=              0.0000

 432\MP4DQ=-33.8885968\MP4SDQ=-33.8908709\CCSD=-33.8918101\CCSD(T)=-33.
 Normal termination of Gaussian 16 at Sun Dec 10 06:36:23 2023.
