 Gaussian 16, Revision A.03,
 Gaussian 16:  ES64L-G16RevA.03 25-Dec-2016

 ------------------
 #p CCSD(T)/CEP-31G
 ------------------

 -----------
 H2O_H2O_419
 -----------
 Symbolic Z-matrix:
 Charge =  0 Multiplicity = 1

                         Standard orientation:
 ---------------------------------------------------------------------
 Center     Atomic      Atomic             Coordinates (Angstroms)
 Number     Number       Type             X           Y           Z
 ---------------------------------------------------------------------
      1          8           0        0.030381    1.269628   -0.000000
      2          1           0        0.025874    0.287037   -0.000000
      3          1           0       -0.897640    1.592555   -0.000000
      4          8           0        0.030381   -1.094154    0.000000
      5          1           0        0.959378   -1.414264    0.000000
      6          1           0       -0.573710   -1.869124    0.000000
 ---------------------------------------------------------------------

 SCF Done:  E(RHF) =  -33.6475660445     A.U. after   11 cycles
 E2 =    -0.2283599207D+00 EUMP2 =    -0.33875925965201D+02
 CCSD(T)
 CCSD(T)= -0.33891323513D+02

 The electronic state is 1-A'.
 Alpha  occ. eigenvalues --   -1.41858  -1.28735  -0.77413  -0.72145  -0.57886
 Alpha  occ. eigenvalues --   -0.56232  -0.47220  -0.43152
 Alpha virt. eigenvalues --    0.17064   0.26380   0.28782   0.56816   0.73766
 Alpha virt. eigenvalues --    0.74376   0.86776   0.89875   0.94631   1.00722
 Alpha virt. eigenvalues --    1.15442   1.19253   1.26186   1.36823   2.75070

 Mulliken charges:
               1
     1  O   -0.769555
     2  H    0.395236
     3  H    0.333833
     4  O   -0.836151
     5  H    0.426351
     6  H    0.450286
 Sum of Mulliken charges =   0.00000

 Dipole moment (field-independent basis, Debye):
    X=             -1.3150    Y=             -5.1188    Z=              0.0000  Tot=              5.2851
 Quadrupole moment (field-independent basis, Debye-Ang):
   XX=             -9.3690   YY=             -9.8811   ZZ=            -14.9994
   XY=             -3.8606   XZ=              0.0000   YZ=             -0.0000

 4\MP4DQ=-33.8853227\MP4SDQ=-33.8875263\CCSD=-33.8882851\CCSD(T)=-33.89
 Normal termination of Gaussian 16 at Sun Dec 10 06:26:18 2023.
