 Gaussian 16, Revision A.03,
 Gaussian 16:  ES64L-G16RevA.03 25-Dec-2016

 ------------------
 #p CCSD(T)/CEP-31G
 ------------------

 ------------
 H2O_H2O_4093
 ------------
 Symbolic Z-matrix:
 Charge =  0 Multiplicity = 1

                         Standard orientation:
 ---------------------------------------------------------------------
 Center     Atomic      Atomic             Coordinates (Angstroms)
 Number     Number       Type             X           Y           Z
 ---------------------------------------------------------------------
      1          8           0        0.033761    2.736613    0.000000
      2          1           0        0.031865    1.754013    0.000000
      3          1           0       -0.895115    3.057072    0.000000
      4          8           0        0.033761   -2.559068   -0.000000
      5          1           0        0.940840   -2.936844   -0.000000
      6          1           0       -0.617771   -3.294602   -0.000000
 ---------------------------------------------------------------------

 SCF Done:  E(RHF) =  -33.6537833793     A.U. after   11 cycles
 E2 =    -0.2282835083D+00 EUMP2 =    -0.33882066887546D+02
 CCSD(T)
 CCSD(T)= -0.33899011055D+02

 The electronic state is 1-A'.
 Alpha  occ. eigenvalues --   -1.36337  -1.34546  -0.71978  -0.70179  -0.56187
 Alpha  occ. eigenvalues --   -0.54345  -0.50938  -0.49150
 Alpha virt. eigenvalues --    0.19495   0.21411   0.29789   0.31686   0.79616
 Alpha virt. eigenvalues --    0.81358   0.82402   0.84351   0.85638   0.87459
 Alpha virt. eigenvalues --    1.16650   1.18460   1.21081   1.23043   2.56602

 Mulliken charges:
               1
     1  O   -0.748897
     2  H    0.380400
     3  H    0.368449
     4  O   -0.748121
     5  H    0.374752
     6  H    0.373418
 Sum of Mulliken charges =   0.00000

 Dipole moment (field-independent basis, Debye):
    X=             -1.5478    Y=             -4.1753    Z=             -0.0000  Tot=              4.4529
 Quadrupole moment (field-independent basis, Debye-Ang):
   XX=             -9.4361   YY=             -5.6967   ZZ=            -14.9926
   XY=             -8.0252   XZ=             -0.0000   YZ=              0.0000

 7\MP4DQ=-33.89338\MP4SDQ=-33.8954036\CCSD=-33.8964542\CCSD(T)=-33.8990
 Normal termination of Gaussian 16 at Sun Dec 10 06:46:40 2023.
