 Gaussian 16, Revision A.03,
 Gaussian 16:  ES64L-G16RevA.03 25-Dec-2016

 ------------------
 #p CCSD(T)/CEP-31G
 ------------------

 ------------
 H2O_H2O_2782
 ------------
 Symbolic Z-matrix:
 Charge =  0 Multiplicity = 1

                         Standard orientation:
 ---------------------------------------------------------------------
 Center     Atomic      Atomic             Coordinates (Angstroms)
 Number     Number       Type             X           Y           Z
 ---------------------------------------------------------------------
      1          8           0        0.073540    2.212305    0.000000
      2          1           0        0.072766    1.229704    0.000000
      3          1           0       -0.855702    2.531704   -0.000000
      4          8           0        0.073540   -2.045371    0.000000
      5          1           0        0.507439   -2.926982    0.000000
      6          1           0       -0.901139   -2.169903   -0.000000
 ---------------------------------------------------------------------

 SCF Done:  E(RHF) =  -33.6544956159     A.U. after   11 cycles
 E2 =    -0.2284097019D+00 EUMP2 =    -0.33882905317794D+02
 CCSD(T)
 CCSD(T)= -0.33899844054D+02

 The electronic state is 1-A'.
 Alpha  occ. eigenvalues --   -1.36864  -1.34157  -0.72527  -0.69754  -0.56764
 Alpha  occ. eigenvalues --   -0.53940  -0.51470  -0.48757
 Alpha virt. eigenvalues --    0.18308   0.22368   0.29246   0.32403   0.79096
 Alpha virt. eigenvalues --    0.81756   0.82937   0.84802   0.85388   0.88114
 Alpha virt. eigenvalues --    1.16074   1.19237   1.20547   1.27372   2.55671

 Mulliken charges:
               1
     1  O   -0.752159
     2  H    0.388243
     3  H    0.362900
     4  O   -0.750656
     5  H    0.380459
     6  H    0.371213
 Sum of Mulliken charges =  -0.00000

 Dipole moment (field-independent basis, Debye):
    X=             -3.3531    Y=             -4.0118    Z=             -0.0000  Tot=              5.2286
 Quadrupole moment (field-independent basis, Debye-Ang):
   XX=            -10.1735   YY=             -7.4148   ZZ=            -14.9935
   XY=             -4.1210   XZ=              0.0000   YZ=             -0.0000

 4353\MP4DQ=-33.894184\MP4SDQ=-33.8962307\CCSD=-33.8972686\CCSD(T)=-33.
 Normal termination of Gaussian 16 at Sun Dec 10 06:23:04 2023.
