 Gaussian 16, Revision A.03,
 Gaussian 16:  ES64L-G16RevA.03 25-Dec-2016

 ------------------
 #p CCSD(T)/CEP-31G
 ------------------

 ------------
 H2O_H2O_2436
 ------------
 Symbolic Z-matrix:
 Charge =  0 Multiplicity = 1

                         Standard orientation:
 ---------------------------------------------------------------------
 Center     Atomic      Atomic             Coordinates (Angstroms)
 Number     Number       Type             X           Y           Z
 ---------------------------------------------------------------------
      1          8           0        0.059656    2.078399    0.000000
      2          1           0        0.058235    1.095798    0.000000
      3          1           0       -0.869375    2.398409   -0.000000
      4          8           0        0.059656   -1.900975    0.000000
      5          1           0        0.706462   -2.640669    0.000000
      6          1           0       -0.849824   -2.272930   -0.000000
 ---------------------------------------------------------------------

 SCF Done:  E(RHF) =  -33.6562629393     A.U. after   11 cycles
 E2 =    -0.2284603103D+00 EUMP2 =    -0.33884723249573D+02
 CCSD(T)
 CCSD(T)= -0.33901629134D+02

 The electronic state is 1-A'.
 Alpha  occ. eigenvalues --   -1.37057  -1.33647  -0.72713  -0.69255  -0.57081
 Alpha  occ. eigenvalues --   -0.53466  -0.51689  -0.48272
 Alpha virt. eigenvalues --    0.18299   0.23043   0.29188   0.33370   0.78830
 Alpha virt. eigenvalues --    0.82263   0.83884   0.85130   0.85938   0.88482
 Alpha virt. eigenvalues --    1.15988   1.19796   1.20455   1.29705   2.54122

 Mulliken charges:
               1
     1  O   -0.759634
     2  H    0.395973
     3  H    0.361867
     4  O   -0.755568
     5  H    0.382623
     6  H    0.374738
 Sum of Mulliken charges =  -0.00000

 Dipole moment (field-independent basis, Debye):
    X=             -2.7073    Y=             -4.3055    Z=             -0.0000  Tot=              5.0860
 Quadrupole moment (field-independent basis, Debye-Ang):
   XX=             -9.6722   YY=             -7.1385   ZZ=            -14.9973
   XY=             -4.8471   XZ=              0.0000   YZ=             -0.0000

 2017\MP4DQ=-33.8959528\MP4SDQ=-33.8980119\CCSD=-33.8990426\CCSD(T)=-33
 Normal termination of Gaussian 16 at Sun Dec 10 07:06:18 2023.
