 Gaussian 16, Revision A.03,
 Gaussian 16:  ES64L-G16RevA.03 25-Dec-2016

 ------------------
 #p CCSD(T)/CEP-31G
 ------------------

 -----------
 H2O_H2O_780
 -----------
 Symbolic Z-matrix:
 Charge =  0 Multiplicity = 1

                         Standard orientation:
 ---------------------------------------------------------------------
 Center     Atomic      Atomic             Coordinates (Angstroms)
 Number     Number       Type             X           Y           Z
 ---------------------------------------------------------------------
      1          8           0        0.079880   -1.410245    0.000000
      2          1           0        0.079045   -0.427644    0.000000
      3          1           0       -0.849342   -1.729702    0.000000
      4          8           0        0.079880    1.251240    0.000000
      5          1           0        0.394936    2.181964    0.000000
      6          1           0       -0.902714    1.247426    0.000000
 ---------------------------------------------------------------------

 SCF Done:  E(RHF) =  -33.6534749356     A.U. after   11 cycles
 E2 =    -0.2289702724D+00 EUMP2 =    -0.33882445207959D+02
 CCSD(T)
 CCSD(T)= -0.33898986604D+02

 The electronic state is 1-A'.
 Alpha  occ. eigenvalues --   -1.39954  -1.31589  -0.76225  -0.68708  -0.59215
 Alpha  occ. eigenvalues --   -0.54430  -0.50875  -0.46069
 Alpha virt. eigenvalues --    0.16838   0.25956   0.27549   0.47696   0.74548
 Alpha virt. eigenvalues --    0.77474   0.85214   0.87037   0.94418   1.10035
 Alpha virt. eigenvalues --    1.15737   1.22764   1.25943   1.36416   2.57926

 Mulliken charges:
               1
     1  O   -0.750856
     2  H    0.399742
     3  H    0.336777
     4  O   -0.809477
     5  H    0.442681
     6  H    0.381132
 Sum of Mulliken charges =   0.00000

 Dipole moment (field-independent basis, Debye):
    X=             -3.4624    Y=              4.3823    Z=              0.0000  Tot=              5.5851
 Quadrupole moment (field-independent basis, Debye-Ang):
   XX=            -10.5192   YY=             -9.2310   ZZ=            -14.9998
   XY=              3.1162   XZ=              0.0000   YZ=              0.0000

 259\MP4DQ=-33.8929841\MP4SDQ=-33.895219\CCSD=-33.8961372\CCSD(T)=-33.8
 Normal termination of Gaussian 16 at Sun Dec 10 06:33:11 2023.
