 Gaussian 16, Revision A.03,
 Gaussian 16:  ES64L-G16RevA.03 25-Dec-2016

 ------------------
 #p CCSD(T)/CEP-31G
 ------------------

 ------------
 H2O_H2O_1967
 ------------
 Symbolic Z-matrix:
 Charge =  0 Multiplicity = 1

                         Standard orientation:
 ---------------------------------------------------------------------
 Center     Atomic      Atomic             Coordinates (Angstroms)
 Number     Number       Type             X           Y           Z
 ---------------------------------------------------------------------
      1          8           0        0.037495    1.889751   -0.000000
      2          1           0        0.034878    0.907153   -0.000000
      3          1           0       -0.891146    2.210892   -0.000000
      4          8           0        0.037495   -1.710828    0.000000
      5          1           0        0.917604   -2.147767    0.000000
      6          1           0       -0.661255   -2.401664    0.000000
 ---------------------------------------------------------------------

 SCF Done:  E(RHF) =  -33.6589862273     A.U. after   11 cycles
 E2 =    -0.2285849868D+00 EUMP2 =    -0.33887571214129D+02
 CCSD(T)
 CCSD(T)= -0.33904428915D+02

 The electronic state is 1-A'.
 Alpha  occ. eigenvalues --   -1.37398  -1.33034  -0.73047  -0.68707  -0.57656
 Alpha  occ. eigenvalues --   -0.52888  -0.52068  -0.47698
 Alpha virt. eigenvalues --    0.18152   0.24095   0.29011   0.35473   0.78220
 Alpha virt. eigenvalues --    0.82605   0.83048   0.86257   0.88475   0.91039
 Alpha virt. eigenvalues --    1.15717   1.19992   1.20643   1.32879   2.51596

 Mulliken charges:
               1
     1  O   -0.771509
     2  H    0.407397
     3  H    0.361786
     4  O   -0.765681
     5  H    0.385333
     6  H    0.382674
 Sum of Mulliken charges =  -0.00000

 Dipole moment (field-independent basis, Debye):
    X=             -1.6879    Y=             -4.4110    Z=              0.0000  Tot=              4.7229
 Quadrupole moment (field-independent basis, Debye-Ang):
   XX=             -9.3991   YY=             -7.5380   ZZ=            -15.0030
   XY=             -5.5194   XZ=              0.0000   YZ=             -0.0000

 706\MP4DQ=-33.8987157\MP4SDQ=-33.90079\CCSD=-33.9018116\CCSD(T)=-33.90
 Normal termination of Gaussian 16 at Sun Dec 10 06:56:00 2023.
