 Gaussian 16, Revision A.03,
 Gaussian 16:  ES64L-G16RevA.03 25-Dec-2016

 ------------------
 #p CCSD(T)/CEP-31G
 ------------------

 ------------
 H2O_H2O_3869
 ------------
 Symbolic Z-matrix:
 Charge =  0 Multiplicity = 1

                         Standard orientation:
 ---------------------------------------------------------------------
 Center     Atomic      Atomic             Coordinates (Angstroms)
 Number     Number       Type             X           Y           Z
 ---------------------------------------------------------------------
      1          8           0        0.030165    2.645823   -0.000000
      2          1           0        0.028082    1.663224   -0.000000
      3          1           0       -0.898651    2.966458   -0.000000
      4          8           0        0.030165   -2.470199    0.000000
      5          1           0        0.959948   -2.788016    0.000000
      6          1           0       -0.572014   -3.246657    0.000000
 ---------------------------------------------------------------------

 SCF Done:  E(RHF) =  -33.6540413537     A.U. after   11 cycles
 E2 =    -0.2282782524D+00 EUMP2 =    -0.33882319606046D+02
 CCSD(T)
 CCSD(T)= -0.33899256764D+02

 The electronic state is 1-A'.
 Alpha  occ. eigenvalues --   -1.36393  -1.34483  -0.72034  -0.70117  -0.56257
 Alpha  occ. eigenvalues --   -0.54290  -0.50997  -0.49091
 Alpha virt. eigenvalues --    0.19408   0.21518   0.29740   0.31778   0.79559
 Alpha virt. eigenvalues --    0.81412   0.82315   0.84403   0.85573   0.87521
 Alpha virt. eigenvalues --    1.16605   1.18555   1.21021   1.23252   2.56556

 Mulliken charges:
               1
     1  O   -0.749899
     2  H    0.381329
     3  H    0.368475
     4  O   -0.749002
     5  H    0.375062
     6  H    0.374036
 Sum of Mulliken charges =  -0.00000

 Dipole moment (field-independent basis, Debye):
    X=             -1.3815    Y=             -4.1382    Z=              0.0000  Tot=              4.3627
 Quadrupole moment (field-independent basis, Debye-Ang):
   XX=             -9.4732   YY=             -6.0299   ZZ=            -14.9931
   XY=             -8.0699   XZ=              0.0000   YZ=             -0.0000

 759\MP4DQ=-33.8936263\MP4SDQ=-33.8956503\CCSD=-33.8966996\CCSD(T)=-33.
 Normal termination of Gaussian 16 at Sun Dec 10 06:42:38 2023.
