 Gaussian 16, Revision A.03,
 Gaussian 16:  ES64L-G16RevA.03 25-Dec-2016

 ------------------
 #p CCSD(T)/CEP-31G
 ------------------

 -----------
 H2O_H2O_804
 -----------
 Symbolic Z-matrix:
 Charge =  0 Multiplicity = 1

                         Standard orientation:
 ---------------------------------------------------------------------
 Center     Atomic      Atomic             Coordinates (Angstroms)
 Number     Number       Type             X           Y           Z
 ---------------------------------------------------------------------
      1          8           0        0.082824   -1.417755    0.000000
      2          1           0        0.082182   -0.435154    0.000000
      3          1           0       -0.846460   -1.737029    0.000000
      4          8           0        0.082824    1.263282    0.000000
      5          1           0        0.336520    2.212568    0.000000
      6          1           0       -0.897431    1.195403    0.000000
 ---------------------------------------------------------------------

 SCF Done:  E(RHF) =  -33.6524154648     A.U. after   11 cycles
 E2 =    -0.2289974732D+00 EUMP2 =    -0.33881412938048D+02
 CCSD(T)
 CCSD(T)= -0.33898050142D+02

 The electronic state is 1-A'.
 Alpha  occ. eigenvalues --   -1.39896  -1.31901  -0.76286  -0.68603  -0.59237
 Alpha  occ. eigenvalues --   -0.54341  -0.51219  -0.46374
 Alpha virt. eigenvalues --    0.16771   0.25770   0.27553   0.46992   0.74582
 Alpha virt. eigenvalues --    0.77861   0.85154   0.86770   0.93831   1.10668
 Alpha virt. eigenvalues --    1.15397   1.22900   1.28001   1.36437   2.56592

 Mulliken charges:
               1
     1  O   -0.746561
     2  H    0.392434
     3  H    0.337862
     4  O   -0.801862
     5  H    0.440335
     6  H    0.377794
 Sum of Mulliken charges =   0.00000

 Dipole moment (field-independent basis, Debye):
    X=             -3.6062    Y=              4.2536    Z=              0.0000  Tot=              5.5766
 Quadrupole moment (field-independent basis, Debye-Ang):
   XX=            -10.6941   YY=             -9.2627   ZZ=            -14.9970
   XY=              2.9582   XZ=              0.0000   YZ=              0.0000

 87\MP4DQ=-33.8920379\MP4SDQ=-33.8942836\CCSD=-33.8952096\CCSD(T)=-33.8
 Normal termination of Gaussian 16 at Sun Dec 10 06:33:38 2023.
