 Gaussian 16, Revision A.03,
 Gaussian 16:  ES64L-G16RevA.03 25-Dec-2016

 ------------------
 #p CCSD(T)/CEP-31G
 ------------------

 ------------
 H2O_H2O_4994
 ------------
 Symbolic Z-matrix:
 Charge =  0 Multiplicity = 1

                         Standard orientation:
 ---------------------------------------------------------------------
 Center     Atomic      Atomic             Coordinates (Angstroms)
 Number     Number       Type             X           Y           Z
 ---------------------------------------------------------------------
      1          8           0        0.030137    3.094568   -0.000000
      2          1           0        0.028365    2.111968   -0.000000
      3          1           0       -0.898780    3.414910    0.000000
      4          8           0        0.030137   -2.918925   -0.000000
      5          1           0        0.960021   -3.236449   -0.000000
      6          1           0       -0.571796   -3.695574    0.000000
 ---------------------------------------------------------------------

 SCF Done:  E(RHF) =  -33.6531166692     A.U. after   11 cycles
 E2 =    -0.2283048575D+00 EUMP2 =    -0.33881421526731D+02
 CCSD(T)
 CCSD(T)= -0.33898384670D+02

 The electronic state is 1-A'.
 Alpha  occ. eigenvalues --   -1.36167  -1.34819  -0.71805  -0.70454  -0.55975
 Alpha  occ. eigenvalues --   -0.54600  -0.50758  -0.49413
 Alpha virt. eigenvalues --    0.19677   0.21055   0.29927   0.31330   0.79791
 Alpha virt. eigenvalues --    0.81110   0.82683   0.84098   0.85848   0.87200
 Alpha virt. eigenvalues --    1.16793   1.18142   1.21238   1.22620   2.56773

 Mulliken charges:
               1
     1  O   -0.746276
     2  H    0.376905
     3  H    0.369369
     4  O   -0.745859
     5  H    0.373316
     6  H    0.372544
 Sum of Mulliken charges =  -0.00000

 Dipole moment (field-independent basis, Debye):
    X=             -1.3856    Y=             -4.1074    Z=              0.0000  Tot=              4.3348
 Quadrupole moment (field-independent basis, Debye-Ang):
   XX=             -9.4764   YY=             -5.1148   ZZ=            -14.9913
   XY=             -9.3780   XZ=             -0.0000   YZ=              0.0000

 0035\MP4DQ=-33.8927501\MP4SDQ=-33.8947742\CCSD=-33.8958273\CCSD(T)=-33
 Normal termination of Gaussian 16 at Sun Dec 10 07:04:10 2023.
