 Gaussian 16, Revision A.03,
 Gaussian 16:  ES64L-G16RevA.03 25-Dec-2016

 ------------------
 #p CCSD(T)/CEP-31G
 ------------------

 ------------
 H2O_H2O_1842
 ------------
 Symbolic Z-matrix:
 Charge =  0 Multiplicity = 1

                         Standard orientation:
 ---------------------------------------------------------------------
 Center     Atomic      Atomic             Coordinates (Angstroms)
 Number     Number       Type             X           Y           Z
 ---------------------------------------------------------------------
      1          8           0        0.037502    1.839889    0.000000
      2          1           0        0.034810    0.857291    0.000000
      3          1           0       -0.891115    2.161100   -0.000000
      4          8           0        0.037502   -1.660971    0.000000
      5          1           0        0.917576   -2.097978    0.000000
      6          1           0       -0.661301   -2.351754   -0.000000
 ---------------------------------------------------------------------

 SCF Done:  E(RHF) =  -33.6596240229     A.U. after   11 cycles
 E2 =    -0.2286417694D+00 EUMP2 =    -0.33888265792316D+02
 CCSD(T)
 CCSD(T)= -0.33905107571D+02

 The electronic state is 1-A'.
 Alpha  occ. eigenvalues --   -1.37521  -1.32862  -0.73169  -0.68564  -0.57846
 Alpha  occ. eigenvalues --   -0.52709  -0.52200  -0.47531
 Alpha virt. eigenvalues --    0.18098   0.24383   0.28922   0.36268   0.77981
 Alpha virt. eigenvalues --    0.82117   0.83330   0.86319   0.88990   0.92717
 Alpha virt. eigenvalues --    1.15602   1.19864   1.20811   1.33438   2.50941

 Mulliken charges:
               1
     1  O   -0.774227
     2  H    0.411085
     3  H    0.360869
     4  O   -0.769078
     5  H    0.386865
     6  H    0.384486
 Sum of Mulliken charges =   0.00000

 Dipole moment (field-independent basis, Debye):
    X=             -1.6850    Y=             -4.4349    Z=             -0.0000  Tot=              4.7442
 Quadrupole moment (field-independent basis, Debye-Ang):
   XX=             -9.3962   YY=             -7.6752   ZZ=            -15.0044
   XY=             -5.3865   XZ=              0.0000   YZ=             -0.0000

 404\MP4DQ=-33.8993808\MP4SDQ=-33.9014591\CCSD=-33.9024774\CCSD(T)=-33.
 Normal termination of Gaussian 16 at Sun Dec 10 06:53:39 2023.
