 Gaussian 16, Revision A.03,
 Gaussian 16:  ES64L-G16RevA.03 25-Dec-2016

 ------------------
 #p CCSD(T)/CEP-31G
 ------------------

 ------------
 H2O_H2O_1660
 ------------
 Symbolic Z-matrix:
 Charge =  0 Multiplicity = 1

                         Standard orientation:
 ---------------------------------------------------------------------
 Center     Atomic      Atomic             Coordinates (Angstroms)
 Number     Number       Type             X           Y           Z
 ---------------------------------------------------------------------
      1          8           0        0.063271    1.768201    0.000000
      2          1           0        0.061770    0.785601    0.000000
      3          1           0       -0.865735    2.088287    0.000000
      4          8           0        0.063271   -1.592743   -0.000000
      5          1           0        0.660249   -2.373207   -0.000000
      6          1           0       -0.868615   -1.904345   -0.000000
 ---------------------------------------------------------------------

 SCF Done:  E(RHF) =  -33.6590338949     A.U. after   11 cycles
 E2 =    -0.2287972845D+00 EUMP2 =    -0.33887831179432D+02
 CCSD(T)
 CCSD(T)= -0.33904691939D+02

 The electronic state is 1-A'.
 Alpha  occ. eigenvalues --   -1.37775  -1.32798  -0.73451  -0.68508  -0.58086
 Alpha  occ. eigenvalues --   -0.52571  -0.52438  -0.47435
 Alpha virt. eigenvalues --    0.17813   0.24622   0.28643   0.37355   0.77548
 Alpha virt. eigenvalues --    0.81511   0.83683   0.85629   0.90412   0.96228
 Alpha virt. eigenvalues --    1.15241   1.19635   1.20766   1.34837   2.50275

 Mulliken charges:
               1
     1  O   -0.771989
     2  H    0.414934
     3  H    0.355081
     4  O   -0.771830
     5  H    0.395163
     6  H    0.378640
 Sum of Mulliken charges =   0.00000

 Dipole moment (field-independent basis, Debye):
    X=             -2.8327    Y=             -4.3973    Z=             -0.0000  Tot=              5.2307
 Quadrupole moment (field-independent basis, Debye-Ang):
   XX=             -9.7745   YY=             -7.9777   ZZ=            -15.0032
   XY=             -4.2173   XZ=             -0.0000   YZ=              0.0000

 2\MP4DQ=-33.8989271\MP4SDQ=-33.9010222\CCSD=-33.9020363\CCSD(T)=-33.90
 Normal termination of Gaussian 16 at Sun Dec 10 06:50:14 2023.
