 Gaussian 16, Revision A.03,
 Gaussian 16:  ES64L-G16RevA.03 25-Dec-2016

 ------------------
 #p CCSD(T)/CEP-31G
 ------------------

 ------------
 H2O_H2O_2762
 ------------
 Symbolic Z-matrix:
 Charge =  0 Multiplicity = 1

                         Standard orientation:
 ---------------------------------------------------------------------
 Center     Atomic      Atomic             Coordinates (Angstroms)
 Number     Number       Type             X           Y           Z
 ---------------------------------------------------------------------
      1          8           0        0.055998    2.208834   -0.000000
      2          1           0        0.054518    1.226233   -0.000000
      3          1           0       -0.873013    2.528900   -0.000000
      4          8           0        0.055998   -2.029936    0.000000
      5          1           0        0.749755   -2.725786    0.000000
      6          1           0       -0.827234   -2.460526    0.000000
 ---------------------------------------------------------------------

 SCF Done:  E(RHF) =  -33.6555610541     A.U. after   11 cycles
 E2 =    -0.2283779303D+00 EUMP2 =    -0.33883938984427D+02
 CCSD(T)
 CCSD(T)= -0.33900846294D+02

 The electronic state is 1-A'.
 Alpha  occ. eigenvalues --   -1.36852  -1.33872  -0.72503  -0.69484  -0.56816
 Alpha  occ. eigenvalues --   -0.53692  -0.51477  -0.48493
 Alpha virt. eigenvalues --    0.18600   0.22565   0.29357   0.32703   0.79086
 Alpha virt. eigenvalues --    0.81998   0.83272   0.84726   0.85291   0.88208
 Alpha virt. eigenvalues --    1.16193   1.19495   1.20621   1.27107   2.55342

 Mulliken charges:
               1
     1  O   -0.756252
     2  H    0.391292
     3  H    0.363734
     4  O   -0.753221
     5  H    0.380213
     6  H    0.374234
 Sum of Mulliken charges =   0.00000

 Dipole moment (field-independent basis, Debye):
    X=             -2.5488    Y=             -4.3008    Z=              0.0000  Tot=              4.9993
 Quadrupole moment (field-independent basis, Debye-Ang):
   XX=             -9.5836   YY=             -6.7677   ZZ=            -14.9960
   XY=             -5.2721   XZ=              0.0000   YZ=             -0.0000

 94\MP4DQ=-33.8951927\MP4SDQ=-33.8972381\CCSD=-33.8982736\CCSD(T)=-33.9
 Normal termination of Gaussian 16 at Sun Dec 10 06:22:43 2023.
