 Gaussian 16, Revision A.03,
 Gaussian 16:  ES64L-G16RevA.03 25-Dec-2016

 ------------------
 #p CCSD(T)/CEP-31G
 ------------------

 ------------
 H2O_H2O_2814
 ------------
 Symbolic Z-matrix:
 Charge =  0 Multiplicity = 1

                         Standard orientation:
 ---------------------------------------------------------------------
 Center     Atomic      Atomic             Coordinates (Angstroms)
 Number     Number       Type             X           Y           Z
 ---------------------------------------------------------------------
      1          8           0        0.048592    2.229583   -0.000000
      2          1           0        0.046831    1.246984   -0.000000
      3          1           0       -0.880329    2.549915   -0.000000
      4          8           0        0.048592   -2.049204    0.000000
      5          1           0        0.827068   -2.648770    0.000000
      6          1           0       -0.771036   -2.591161    0.000000
 ---------------------------------------------------------------------

 SCF Done:  E(RHF) =  -33.6556952695     A.U. after   11 cycles
 E2 =    -0.2283578339D+00 EUMP2 =    -0.33884053103384D+02
 CCSD(T)
 CCSD(T)= -0.33900954540D+02

 The electronic state is 1-A'.
 Alpha  occ. eigenvalues --   -1.36816  -1.33867  -0.72463  -0.69485  -0.56786
 Alpha  occ. eigenvalues --   -0.53696  -0.51443  -0.48492
 Alpha virt. eigenvalues --    0.18690   0.22537   0.29415   0.32659   0.79121
 Alpha virt. eigenvalues --    0.81992   0.83129   0.84642   0.85368   0.88154
 Alpha virt. eigenvalues --    1.16241   1.19496   1.20668   1.26701   2.55474

 Mulliken charges:
               1
     1  O   -0.756695
     2  H    0.390971
     3  H    0.364566
     4  O   -0.753527
     5  H    0.379622
     6  H    0.375064
 Sum of Mulliken charges =   0.00000

 Dipole moment (field-independent basis, Debye):
    X=             -2.2115    Y=             -4.3297    Z=              0.0000  Tot=              4.8618
 Quadrupole moment (field-independent basis, Debye-Ang):
   XX=             -9.4585   YY=             -6.6395   ZZ=            -14.9964
   XY=             -5.7498   XZ=              0.0000   YZ=             -0.0000

 09\MP4DQ=-33.8953054\MP4SDQ=-33.8973483\CCSD=-33.8983843\CCSD(T)=-33.9
 Normal termination of Gaussian 16 at Sun Dec 10 06:23:39 2023.
