 Gaussian 16, Revision A.03,
 Gaussian 16:  ES64L-G16RevA.03 25-Dec-2016

 ------------------
 #p CCSD(T)/CEP-31G
 ------------------

 ------------
 H2O_H2O_1922
 ------------
 Symbolic Z-matrix:
 Charge =  0 Multiplicity = 1

                         Standard orientation:
 ---------------------------------------------------------------------
 Center     Atomic      Atomic             Coordinates (Angstroms)
 Number     Number       Type             X           Y           Z
 ---------------------------------------------------------------------
      1          8           0       -0.019924    1.863375    0.000000
      2          1           0       -0.016440    0.880779    0.000000
      3          1           0        0.908433    2.185335    0.000000
      4          8           0       -0.019924   -1.696301    0.000000
      5          1           0       -0.993659   -1.828011    0.000000
      6          1           0        0.420457   -2.574692    0.000000
 ---------------------------------------------------------------------

 SCF Done:  E(RHF) =  -33.6588960879     A.U. after   11 cycles
 E2 =    -0.2285653297D+00 EUMP2 =    -0.33887461417578D+02
 CCSD(T)
 CCSD(T)= -0.33904344800D+02

 The electronic state is 1-A'.
 Alpha  occ. eigenvalues --   -1.37424  -1.33246  -0.73108  -0.68935  -0.57665
 Alpha  occ. eigenvalues --   -0.53112  -0.52086  -0.47919
 Alpha virt. eigenvalues --    0.17901   0.24153   0.28997   0.35424   0.78127
 Alpha virt. eigenvalues --    0.82123   0.82917   0.86068   0.88091   0.93755
 Alpha virt. eigenvalues --    1.15692   1.19661   1.20795   1.35051   2.52304

 Mulliken charges:
               1
     1  O   -0.771779
     2  H    0.403609
     3  H    0.365613
     4  O   -0.767619
     5  H    0.383148
     6  H    0.387028
 Sum of Mulliken charges =  -0.00000

 Dipole moment (field-independent basis, Debye):
    X=              0.8957    Y=             -4.1259    Z=              0.0000  Tot=              4.2220
 Quadrupole moment (field-independent basis, Debye-Ang):
   XX=             -9.6604   YY=             -7.9922   ZZ=            -15.0023
   XY=              6.3029   XZ=              0.0000   YZ=              0.0000

 18\MP4DQ=-33.8986176\MP4SDQ=-33.9007024\CCSD=-33.9017233\CCSD(T)=-33.9
 Normal termination of Gaussian 16 at Sun Dec 10 06:55:10 2023.
