 Gaussian 16, Revision A.03,
 Gaussian 16:  ES64L-G16RevA.03 25-Dec-2016

 ------------------
 #p CCSD(T)/CEP-31G
 ------------------

 ------------
 H2O_H2O_2199
 ------------
 Symbolic Z-matrix:
 Charge =  0 Multiplicity = 1

                         Standard orientation:
 ---------------------------------------------------------------------
 Center     Atomic      Atomic             Coordinates (Angstroms)
 Number     Number       Type             X           Y           Z
 ---------------------------------------------------------------------
      1          8           0       -0.013567    1.968814    0.000000
      2          1           0       -0.010000    0.986219    0.000000
      3          1           0        0.914763    2.290853    0.000000
      4          8           0       -0.013567   -1.809569    0.000000
      5          1           0       -0.996163   -1.813136    0.000000
      6          1           0        0.308472   -2.737899    0.000000
 ---------------------------------------------------------------------

 SCF Done:  E(RHF) =  -33.6574040789     A.U. after   11 cycles
 E2 =    -0.2284711380D+00 EUMP2 =    -0.33885875216857D+02
 CCSD(T)
 CCSD(T)= -0.33902783159D+02

 The electronic state is 1-A'.
 Alpha  occ. eigenvalues --   -1.37180  -1.33739  -0.72865  -0.69402  -0.57276
 Alpha  occ. eigenvalues --   -0.53608  -0.51822  -0.48398
 Alpha virt. eigenvalues --    0.17794   0.23544   0.29165   0.33871   0.78573
 Alpha virt. eigenvalues --    0.82260   0.82659   0.85308   0.87761   0.90210
 Alpha virt. eigenvalues --    1.15842   1.19774   1.20534   1.33583   2.54194

 Mulliken charges:
               1
     1  O   -0.765225
     2  H    0.394801
     3  H    0.368335
     4  O   -0.761341
     5  H    0.379870
     6  H    0.383560
 Sum of Mulliken charges =  -0.00000

 Dipole moment (field-independent basis, Debye):
    X=              0.6112    Y=             -3.8839    Z=              0.0000  Tot=              3.9317
 Quadrupole moment (field-independent basis, Debye-Ang):
   XX=             -9.8615   YY=             -8.1380   ZZ=            -14.9989
   XY=              7.0872   XZ=              0.0000   YZ=              0.0000

 22\MP4DQ=-33.8970837\MP4SDQ=-33.8991566\CCSD=-33.9001827\CCSD(T)=-33.9
 Normal termination of Gaussian 16 at Sun Dec 10 07:00:45 2023.
