 Gaussian 16, Revision A.03,
 Gaussian 16:  ES64L-G16RevA.03 25-Dec-2016

 ------------------
 #p CCSD(T)/CEP-31G
 ------------------

 -----------
 H2O_H2O_420
 -----------
 Symbolic Z-matrix:
 Charge =  0 Multiplicity = 1

                         Standard orientation:
 ---------------------------------------------------------------------
 Center     Atomic      Atomic             Coordinates (Angstroms)
 Number     Number       Type             X           Y           Z
 ---------------------------------------------------------------------
      1          8           0        0.026857    1.268340    0.000000
      2          1           0        0.022097    0.285750    0.000000
      3          1           0       -0.901081    1.591506    0.000000
      4          8           0        0.026857   -1.095238   -0.000000
      5          1           0        0.974735   -1.354150   -0.000000
      6          1           0       -0.525466   -1.907917   -0.000000
 ---------------------------------------------------------------------

 SCF Done:  E(RHF) =  -33.6470384840     A.U. after   11 cycles
 E2 =    -0.2282468558D+00 EUMP2 =    -0.33875285339755D+02
 CCSD(T)
 CCSD(T)= -0.33890725613D+02

 The electronic state is 1-A'.
 Alpha  occ. eigenvalues --   -1.41866  -1.28819  -0.77681  -0.71764  -0.58031
 Alpha  occ. eigenvalues --   -0.56204  -0.47314  -0.43249
 Alpha virt. eigenvalues --    0.17105   0.26311   0.28770   0.56663   0.73767
 Alpha virt. eigenvalues --    0.74659   0.87082   0.89817   0.94517   1.01127
 Alpha virt. eigenvalues --    1.15419   1.20139   1.26523   1.37103   2.75431

 Mulliken charges:
               1
     1  O   -0.767709
     2  H    0.389538
     3  H    0.336212
     4  O   -0.837446
     5  H    0.424096
     6  H    0.455309
 Sum of Mulliken charges =  -0.00000

 Dipole moment (field-independent basis, Debye):
    X=             -1.1717    Y=             -5.0641    Z=             -0.0000  Tot=              5.1979
 Quadrupole moment (field-independent basis, Debye-Ang):
   XX=             -9.4254   YY=             -9.8493   ZZ=            -14.9984
   XY=             -3.9261   XZ=             -0.0000   YZ=              0.0000

 846\MP4DQ=-33.8847235\MP4SDQ=-33.8869311\CCSD=-33.8876981\CCSD(T)=-33.
 Normal termination of Gaussian 16 at Sun Dec 10 06:26:19 2023.
