 Gaussian 16, Revision A.03,
 Gaussian 16:  ES64L-G16RevA.03 25-Dec-2016

 ------------------
 #p CCSD(T)/CEP-31G
 ------------------

 ------------
 H2O_H2O_3727
 ------------
 Symbolic Z-matrix:
 Charge =  0 Multiplicity = 1

                         Standard orientation:
 ---------------------------------------------------------------------
 Center     Atomic      Atomic             Coordinates (Angstroms)
 Number     Number       Type             X           Y           Z
 ---------------------------------------------------------------------
      1          8           0        0.088230   -2.578955    0.000000
      2          1           0        0.088071   -1.596354    0.000000
      3          1           0       -0.841211   -2.897773    0.000000
      4          8           0        0.088230    2.434632    0.000000
      5          1           0        0.216328    3.408849    0.000000
      6          1           0       -0.874874    2.239859    0.000000
 ---------------------------------------------------------------------

 SCF Done:  E(RHF) =  -33.6524448006     A.U. after   11 cycles
 E2 =    -0.2283556770D+00 EUMP2 =    -0.33880800477573D+02
 CCSD(T)
 CCSD(T)= -0.33897784550D+02

 The electronic state is 1-A'.
 Alpha  occ. eigenvalues --   -1.36494  -1.34920  -0.72149  -0.70529  -0.56274
 Alpha  occ. eigenvalues --   -0.54662  -0.51072  -0.49495
 Alpha virt. eigenvalues --    0.18925   0.21216   0.29562   0.31233   0.79500
 Alpha virt. eigenvalues --    0.81038   0.82382   0.84048   0.85460   0.87361
 Alpha virt. eigenvalues --    1.16344   1.18139   1.20885   1.22975   2.56108

 Mulliken charges:
               1
     1  O   -0.743774
     2  H    0.377763
     3  H    0.365931
     4  O   -0.744224
     5  H    0.376344
     6  H    0.367960
 Sum of Mulliken charges =   0.00000

 Dipole moment (field-independent basis, Debye):
    X=             -4.0485    Y=              3.4103    Z=              0.0000  Tot=              5.2934
 Quadrupole moment (field-independent basis, Debye-Ang):
   XX=            -10.9704   YY=             -8.6274   ZZ=            -14.9892
   XY=              2.9211   XZ=              0.0000   YZ=              0.0000

 3982\MP4DQ=-33.8921407\MP4SDQ=-33.8941692\CCSD=-33.8952212\CCSD(T)=-33
 Normal termination of Gaussian 16 at Sun Dec 10 06:40:04 2023.
