 Gaussian 16, Revision A.03,
 Gaussian 16:  ES64L-G16RevA.03 25-Dec-2016

 ------------------
 #p CCSD(T)/CEP-31G
 ------------------

 ------------
 H2O_H2O_1463
 ------------
 Symbolic Z-matrix:
 Charge =  0 Multiplicity = 1

                         Standard orientation:
 ---------------------------------------------------------------------
 Center     Atomic      Atomic             Coordinates (Angstroms)
 Number     Number       Type             X           Y           Z
 ---------------------------------------------------------------------
      1          8           0        0.052356    1.690800    0.000000
      2          1           0        0.050201    0.708201    0.000000
      3          1           0       -0.876436    2.011505    0.000000
      4          8           0        0.052356   -1.510977   -0.000000
      5          1           0        0.789693   -2.160470   -0.000000
      6          1           0       -0.801157   -1.997824   -0.000000
 ---------------------------------------------------------------------

 SCF Done:  E(RHF) =  -33.6611093295     A.U. after   11 cycles
 E2 =    -0.2288957740D+00 EUMP2 =    -0.33890005103521D+02
 CCSD(T)
 CCSD(T)= -0.33906761055D+02

 The electronic state is 1-A'.
 Alpha  occ. eigenvalues --   -1.38025  -1.32263  -0.73665  -0.68165  -0.58514
 Alpha  occ. eigenvalues --   -0.52725  -0.52022  -0.46920
 Alpha virt. eigenvalues --    0.17866   0.25246   0.28524   0.39477   0.77021
 Alpha virt. eigenvalues --    0.80323   0.84467   0.85870   0.91728   0.97637
 Alpha virt. eigenvalues --    1.15105   1.19722   1.21108   1.34095   2.49628

 Mulliken charges:
               1
     1  O   -0.779623
     2  H    0.424279
     3  H    0.353994
     4  O   -0.782106
     5  H    0.397798
     6  H    0.385659
 Sum of Mulliken charges =  -0.00000

 Dipole moment (field-independent basis, Debye):
    X=             -2.3288    Y=             -4.5513    Z=             -0.0000  Tot=              5.1125
 Quadrupole moment (field-independent basis, Debye-Ang):
   XX=             -9.4939   YY=             -8.1149   ZZ=            -15.0088
   XY=             -4.5010   XZ=             -0.0000   YZ=              0.0000

 63\MP4DQ=-33.9009822\MP4SDQ=-33.9030748\CCSD=-33.9040736\CCSD(T)=-33.9
 Normal termination of Gaussian 16 at Sun Dec 10 06:46:21 2023.
