 Gaussian 16, Revision A.03,
 Gaussian 16:  ES64L-G16RevA.03 25-Dec-2016

 ------------------
 #p CCSD(T)/CEP-31G
 ------------------

 ------------
 H2O_H2O_2990
 ------------
 Symbolic Z-matrix:
 Charge =  0 Multiplicity = 1

                         Standard orientation:
 ---------------------------------------------------------------------
 Center     Atomic      Atomic             Coordinates (Angstroms)
 Number     Number       Type             X           Y           Z
 ---------------------------------------------------------------------
      1          8           0        0.044862    2.299396    0.000000
      2          1           0        0.043014    1.316797    0.000000
      3          1           0       -0.884030    2.619810   -0.000000
      4          8           0        0.044862   -2.119000    0.000000
      5          1           0        0.860837   -2.666440    0.000000
      6          1           0       -0.737618   -2.713334   -0.000000
 ---------------------------------------------------------------------

 SCF Done:  E(RHF) =  -33.6553723139     A.U. after   11 cycles
 E2 =    -0.2283283294D+00 EUMP2 =    -0.33883700643243D+02
 CCSD(T)
 CCSD(T)= -0.33900605948D+02

 The electronic state is 1-A'.
 Alpha  occ. eigenvalues --   -1.36723  -1.33982  -0.72369  -0.69605  -0.56670
 Alpha  occ. eigenvalues --   -0.53810  -0.51346  -0.48605
 Alpha virt. eigenvalues --    0.18844   0.22323   0.29493   0.32438   0.79222
 Alpha virt. eigenvalues --    0.81876   0.82646   0.84707   0.85357   0.88033
 Alpha virt. eigenvalues --    1.16325   1.19326   1.20750   1.25688   2.55910

 Mulliken charges:
               1
     1  O   -0.755253
     2  H    0.388895
     3  H    0.365497
     4  O   -0.752675
     5  H    0.378595
     6  H    0.374942
 Sum of Mulliken charges =   0.00000

 Dipole moment (field-independent basis, Debye):
    X=             -2.0443    Y=             -4.3118    Z=             -0.0000  Tot=              4.7718
 Quadrupole moment (field-independent basis, Debye-Ang):
   XX=             -9.4242   YY=             -6.4749   ZZ=            -14.9958
   XY=             -6.1254   XZ=              0.0000   YZ=             -0.0000

 99\MP4DQ=-33.8949644\MP4SDQ=-33.8970015\CCSD=-33.8980402\CCSD(T)=-33.9
 Normal termination of Gaussian 16 at Sun Dec 10 06:26:52 2023.
