 Gaussian 16, Revision A.03,
 Gaussian 16:  ES64L-G16RevA.03 25-Dec-2016

 ------------------
 #p CCSD(T)/CEP-31G
 ------------------

 ------------
 H2O_H2O_2599
 ------------
 Symbolic Z-matrix:
 Charge =  0 Multiplicity = 1

                         Standard orientation:
 ---------------------------------------------------------------------
 Center     Atomic      Atomic             Coordinates (Angstroms)
 Number     Number       Type             X           Y           Z
 ---------------------------------------------------------------------
      1          8           0       -0.013545    2.128368    0.000000
      2          1           0       -0.010255    1.145772    0.000000
      3          1           0        0.914876    2.450145    0.000000
      4          8           0       -0.013545   -1.969115    0.000000
      5          1           0       -0.996140   -1.972405    0.000000
      6          1           0        0.308232   -2.897536    0.000000
 ---------------------------------------------------------------------

 SCF Done:  E(RHF) =  -33.6561671795     A.U. after   11 cycles
 E2 =    -0.2283666679D+00 EUMP2 =    -0.33884533847382D+02
 CCSD(T)
 CCSD(T)= -0.33901441919D+02

 The electronic state is 1-A'.
 Alpha  occ. eigenvalues --   -1.36907  -1.34064  -0.72573  -0.69715  -0.56901
 Alpha  occ. eigenvalues --   -0.53922  -0.51537  -0.48706
 Alpha virt. eigenvalues --    0.18068   0.22813   0.29340   0.32723   0.78992
 Alpha virt. eigenvalues --    0.81817   0.82920   0.84608   0.86691   0.87755
 Alpha virt. eigenvalues --    1.16044   1.19530   1.20612   1.29431   2.55580

 Mulliken charges:
               1
     1  O   -0.759153
     2  H    0.388773
     3  H    0.369086
     4  O   -0.756318
     5  H    0.377695
     6  H    0.379917
 Sum of Mulliken charges =  -0.00000

 Dipole moment (field-independent basis, Debye):
    X=              0.6134    Y=             -3.8336    Z=              0.0000  Tot=              3.8824
 Quadrupole moment (field-independent basis, Debye-Ang):
   XX=             -9.8660   YY=             -7.9255   ZZ=            -14.9967
   XY=              7.6767   XZ=              0.0000   YZ=              0.0000

 024\MP4DQ=-33.8957784\MP4SDQ=-33.8978298\CCSD=-33.8988628\CCSD(T)=-33.
 Normal termination of Gaussian 16 at Sun Dec 10 06:19:47 2023.
