 Gaussian 16, Revision A.03,
 Gaussian 16:  ES64L-G16RevA.03 25-Dec-2016

 ------------------
 #p CCSD(T)/CEP-31G
 ------------------

 ------------
 H2O_H2O_4496
 ------------
 Symbolic Z-matrix:
 Charge =  0 Multiplicity = 1

                         Standard orientation:
 ---------------------------------------------------------------------
 Center     Atomic      Atomic             Coordinates (Angstroms)
 Number     Number       Type             X           Y           Z
 ---------------------------------------------------------------------
      1          8           0       -0.023165    2.892289    0.000000
      2          1           0       -0.021057    1.909690    0.000000
      3          1           0        0.905642    3.212950    0.000000
      4          8           0       -0.023165   -2.721879    0.000000
      5          1           0       -0.986473   -2.915642    0.000000
      6          1           0        0.472536   -3.570282    0.000000
 ---------------------------------------------------------------------

 SCF Done:  E(RHF) =  -33.6534369306     A.U. after   11 cycles
 E2 =    -0.2282899375D+00 EUMP2 =    -0.33881726868070D+02
 CCSD(T)
 CCSD(T)= -0.33898681483D+02

 The electronic state is 1-A'.
 Alpha  occ. eigenvalues --   -1.36250  -1.34740  -0.71890  -0.70377  -0.56077
 Alpha  occ. eigenvalues --   -0.54533  -0.50846  -0.49340
 Alpha virt. eigenvalues --    0.19596   0.21166   0.29860   0.31445   0.79706
 Alpha virt. eigenvalues --    0.81177   0.82553   0.84161   0.85735   0.87259
 Alpha virt. eigenvalues --    1.16723   1.18238   1.21160   1.22745   2.56684

 Mulliken charges:
               1
     1  O   -0.747540
     2  H    0.378018
     3  H    0.369511
     4  O   -0.747043
     5  H    0.373651
     6  H    0.373402
 Sum of Mulliken charges =   0.00000

 Dipole moment (field-independent basis, Debye):
    X=              1.0635    Y=             -3.9945    Z=              0.0000  Tot=              4.1337
 Quadrupole moment (field-independent basis, Debye-Ang):
   XX=             -9.5983   YY=             -5.9801   ZZ=            -14.9919
   XY=              9.4638   XZ=              0.0000   YZ=              0.0000

 3008\MP4DQ=-33.8930487\MP4SDQ=-33.8950723\CCSD=-33.8961244\CCSD(T)=-33
 Normal termination of Gaussian 16 at Sun Dec 10 06:53:55 2023.
