 Gaussian 16, Revision A.03,
 Gaussian 16:  ES64L-G16RevA.03 25-Dec-2016

 ------------------
 #p CCSD(T)/CEP-31G
 ------------------

 -----------
 H2O_H2O_924
 -----------
 Symbolic Z-matrix:
 Charge =  0 Multiplicity = 1

                         Standard orientation:
 ---------------------------------------------------------------------
 Center     Atomic      Atomic             Coordinates (Angstroms)
 Number     Number       Type             X           Y           Z
 ---------------------------------------------------------------------
      1          8           0        0.013674   -1.460232    0.000000
      2          1           0        0.008792   -0.477643    0.000000
      3          1           0       -0.914225   -1.783513    0.000000
      4          8           0        0.013674    1.301023    0.000000
      5          1           0        0.996262    1.305904    0.000000
      6          1           0       -0.309607    2.228922    0.000000
 ---------------------------------------------------------------------

 SCF Done:  E(RHF) =  -33.6602186462     A.U. after   11 cycles
 E2 =    -0.2285682947D+00 EUMP2 =    -0.33888786940866D+02
 CCSD(T)
 CCSD(T)= -0.33905334435D+02

 The electronic state is 1-A'.
 Alpha  occ. eigenvalues --   -1.39241  -1.31496  -0.75375  -0.68136  -0.59557
 Alpha  occ. eigenvalues --   -0.53860  -0.50990  -0.46160
 Alpha virt. eigenvalues --    0.17551   0.26585   0.27774   0.45897   0.75107
 Alpha virt. eigenvalues --    0.78013   0.86441   0.86562   0.91147   1.10381
 Alpha virt. eigenvalues --    1.15684   1.21536   1.25569   1.36980   2.55544

 Mulliken charges:
               1
     1  O   -0.777085
     2  H    0.404462
     3  H    0.359776
     4  O   -0.814698
     5  H    0.398085
     6  H    0.429460
 Sum of Mulliken charges =  -0.00000

 Dipole moment (field-independent basis, Debye):
    X=             -0.6131    Y=              4.2844    Z=              0.0000  Tot=              4.3281
 Quadrupole moment (field-independent basis, Debye-Ang):
   XX=             -9.8326   YY=             -9.0526   ZZ=            -15.0126
   XY=              5.1400   XZ=              0.0000   YZ=              0.0000

 51\MP4DQ=-33.8994368\MP4SDQ=-33.9016042\CCSD=-33.9025484\CCSD(T)=-33.9
 Normal termination of Gaussian 16 at Sun Dec 10 06:35:53 2023.
