 Gaussian 16, Revision A.03,
 Gaussian 16:  ES64L-G16RevA.03 25-Dec-2016

 ------------------
 #p CCSD(T)/CEP-31G
 ------------------

 ------------
 H2O_H2O_4815
 ------------
 Symbolic Z-matrix:
 Charge =  0 Multiplicity = 1

                         Standard orientation:
 ---------------------------------------------------------------------
 Center     Atomic      Atomic             Coordinates (Angstroms)
 Number     Number       Type             X           Y           Z
 ---------------------------------------------------------------------
      1          8           0        0.044820    3.027368    0.000000
      2          1           0        0.043430    2.044767    0.000000
      3          1           0       -0.884221    3.347348    0.000000
      4          8           0        0.044820   -2.846930    0.000000
      5          1           0        0.861051   -3.393988    0.000000
      6          1           0       -0.737383   -3.441627    0.000000
 ---------------------------------------------------------------------

 SCF Done:  E(RHF) =  -33.6531332459     A.U. after   10 cycles
 E2 =    -0.2283065103D+00 EUMP2 =    -0.33881439756201D+02
 CCSD(T)
 CCSD(T)= -0.33898402000D+02

 The electronic state is 1-A'.
 Alpha  occ. eigenvalues --   -1.36199  -1.34742  -0.71838  -0.70372  -0.56011
 Alpha  occ. eigenvalues --   -0.54521  -0.50791  -0.49335
 Alpha virt. eigenvalues --    0.19642   0.21142   0.29894   0.31419   0.79760
 Alpha virt. eigenvalues --    0.81187   0.82642   0.84177   0.85815   0.87291
 Alpha virt. eigenvalues --    1.16760   1.18218   1.21206   1.22707   2.56739

 Mulliken charges:
               1
     1  O   -0.746356
     2  H    0.377796
     3  H    0.368557
     4  O   -0.745898
     5  H    0.373892
     6  H    0.372010
 Sum of Mulliken charges =  -0.00000

 Dipole moment (field-independent basis, Debye):
    X=             -2.0603    Y=             -4.2244    Z=              0.0000  Tot=              4.7000
 Quadrupole moment (field-independent basis, Debye-Ang):
   XX=             -9.4291   YY=             -4.8190   ZZ=            -14.9913
   XY=             -7.7542   XZ=              0.0000   YZ=              0.0000

 1\MP4DQ=-33.8927676\MP4SDQ=-33.8947917\CCSD=-33.8958445\CCSD(T)=-33.89
 Normal termination of Gaussian 16 at Sun Dec 10 06:59:41 2023.
