 Gaussian 16, Revision A.03,
 Gaussian 16:  ES64L-G16RevA.03 25-Dec-2016

 ------------------
 #p CCSD(T)/CEP-31G
 ------------------

 ------------
 H2O_H2O_1908
 ------------
 Symbolic Z-matrix:
 Charge =  0 Multiplicity = 1

                         Standard orientation:
 ---------------------------------------------------------------------
 Center     Atomic      Atomic             Coordinates (Angstroms)
 Number     Number       Type             X           Y           Z
 ---------------------------------------------------------------------
      1          8           0        0.070218    1.865070   -0.000000
      2          1           0        0.069134    0.882469   -0.000000
      3          1           0       -0.858922    2.184762   -0.000000
      4          8           0        0.070218   -1.694858    0.000000
      5          1           0        0.560580   -2.546358    0.000000
      6          1           0       -0.894287   -1.882566    0.000000
 ---------------------------------------------------------------------

 SCF Done:  E(RHF) =  -33.6571541552     A.U. after   11 cycles
 E2 =    -0.2286892571D+00 EUMP2 =    -0.33885843412233D+02
 CCSD(T)
 CCSD(T)= -0.33902767510D+02

 The electronic state is 1-A'.
 Alpha  occ. eigenvalues --   -1.37512  -1.33320  -0.73202  -0.68937  -0.57648
 Alpha  occ. eigenvalues --   -0.53099  -0.52147  -0.47939
 Alpha virt. eigenvalues --    0.17758   0.23959   0.28800   0.35356   0.78088
 Alpha virt. eigenvalues --    0.82496   0.82917   0.85379   0.89272   0.92976
 Alpha virt. eigenvalues --    1.15439   1.19671   1.20529   1.34755   2.51752

 Mulliken charges:
               1
     1  O   -0.764570
     2  H    0.405074
     3  H    0.357224
     4  O   -0.762467
     5  H    0.390201
     6  H    0.374537
 Sum of Mulliken charges =   0.00000

 Dipole moment (field-independent basis, Debye):
    X=             -3.1661    Y=             -4.2163    Z=             -0.0000  Tot=              5.2727
 Quadrupole moment (field-independent basis, Debye-Ang):
   XX=            -10.0340   YY=             -7.9065   ZZ=            -14.9986
   XY=             -3.9939   XZ=              0.0000   YZ=             -0.0000

 2898\MP4DQ=-33.8970265\MP4SDQ=-33.8991166\CCSD=-33.9001399\CCSD(T)=-33
 Normal termination of Gaussian 16 at Sun Dec 10 06:54:54 2023.
