 Gaussian 16, Revision A.03,
 Gaussian 16:  ES64L-G16RevA.03 25-Dec-2016

 ------------------
 #p CCSD(T)/CEP-31G
 ------------------

 ------------
 H2O_H2O_1813
 ------------
 Symbolic Z-matrix:
 Charge =  0 Multiplicity = 1

                         Standard orientation:
 ---------------------------------------------------------------------
 Center     Atomic      Atomic             Coordinates (Angstroms)
 Number     Number       Type             X           Y           Z
 ---------------------------------------------------------------------
      1          8           0        0.052340    1.830416    0.000000
      2          1           0        0.050358    0.847817    0.000000
      3          1           0       -0.876508    2.150957    0.000000
      4          8           0        0.052340   -1.650574   -0.000000
      5          1           0        0.789790   -2.299937   -0.000000
      6          1           0       -0.801088   -2.137571   -0.000000
 ---------------------------------------------------------------------

 SCF Done:  E(RHF) =  -33.6592224758     A.U. after   11 cycles
 E2 =    -0.2286944602D+00 EUMP2 =    -0.33887916936015D+02
 CCSD(T)
 CCSD(T)= -0.33904766207D+02

 The electronic state is 1-A'.
 Alpha  occ. eigenvalues --   -1.37574  -1.32850  -0.73224  -0.68537  -0.57879
 Alpha  occ. eigenvalues --   -0.52668  -0.52245  -0.47503
 Alpha virt. eigenvalues --    0.18042   0.24385   0.28844   0.36428   0.77917
 Alpha virt. eigenvalues --    0.82176   0.83391   0.85924   0.89815   0.92547
 Alpha virt. eigenvalues --    1.15512   1.20056   1.20568   1.33414   2.50688

 Mulliken charges:
               1
     1  O   -0.772542
     2  H    0.412381
     3  H    0.358050
     4  O   -0.768349
     5  H    0.389849
     6  H    0.380612
 Sum of Mulliken charges =   0.00000

 Dipole moment (field-independent basis, Debye):
    X=             -2.3499    Y=             -4.4663    Z=             -0.0000  Tot=              5.0468
 Quadrupole moment (field-independent basis, Debye-Ang):
   XX=             -9.5033   YY=             -7.6845   ZZ=            -15.0036
   XY=             -4.7694   XZ=             -0.0000   YZ=              0.0000

 2959\MP4DQ=-33.8990324\MP4SDQ=-33.901113\CCSD=-33.9021311\CCSD(T)=-33.
 Normal termination of Gaussian 16 at Sun Dec 10 06:53:06 2023.
