 Gaussian 16, Revision A.03,
 Gaussian 16:  ES64L-G16RevA.03 25-Dec-2016

 ------------------
 #p CCSD(T)/CEP-31G
 ------------------

 ------------
 H2O_H2O_3186
 ------------
 Symbolic Z-matrix:
 Charge =  0 Multiplicity = 1

                         Standard orientation:
 ---------------------------------------------------------------------
 Center     Atomic      Atomic             Coordinates (Angstroms)
 Number     Number       Type             X           Y           Z
 ---------------------------------------------------------------------
      1          8           0        0.059640    2.377567   -0.000000
      2          1           0        0.058404    1.394967   -0.000000
      3          1           0       -0.869452    2.697402   -0.000000
      4          8           0        0.059640   -2.200120    0.000000
      5          1           0        0.706585   -2.939694    0.000000
      6          1           0       -0.849771   -2.572249    0.000000
 ---------------------------------------------------------------------

 SCF Done:  E(RHF) =  -33.6545381297     A.U. after   11 cycles
 E2 =    -0.2283268699D+00 EUMP2 =    -0.33882864999611D+02
 CCSD(T)
 CCSD(T)= -0.33899789984D+02

 The electronic state is 1-A'.
 Alpha  occ. eigenvalues --   -1.36648  -1.34179  -0.72297  -0.69793  -0.56545
 Alpha  occ. eigenvalues --   -0.53981  -0.51259  -0.48787
 Alpha virt. eigenvalues --    0.18933   0.22027   0.29496   0.32179   0.79312
 Alpha virt. eigenvalues --    0.81705   0.82362   0.84762   0.85257   0.87944
 Alpha virt. eigenvalues --    1.16365   1.19028   1.20771   1.24824   2.56226

 Mulliken charges:
               1
     1  O   -0.751907
     2  H    0.386345
     3  H    0.365006
     4  O   -0.750436
     5  H    0.378252
     6  H    0.372739
 Sum of Mulliken charges =  -0.00000

 Dipole moment (field-independent basis, Debye):
    X=             -2.7239    Y=             -4.2261    Z=              0.0000  Tot=              5.0279
 Quadrupole moment (field-independent basis, Debye-Ang):
   XX=             -9.6724   YY=             -6.4817   ZZ=            -14.9940
   XY=             -5.3136   XZ=              0.0000   YZ=             -0.0000

 991\MP4DQ=-33.8941506\MP4SDQ=-33.8961837\CCSD=-33.8972264\CCSD(T)=-33.
 Normal termination of Gaussian 16 at Sun Dec 10 06:30:25 2023.
