 Gaussian 16, Revision A.03,
 Gaussian 16:  ES64L-G16RevA.03 25-Dec-2016

 ------------------
 #p CCSD(T)/CEP-31G
 ------------------

 ------------
 H2O_H2O_4213
 ------------
 Symbolic Z-matrix:
 Charge =  0 Multiplicity = 1

                         Standard orientation:
 ---------------------------------------------------------------------
 Center     Atomic      Atomic             Coordinates (Angstroms)
 Number     Number       Type             X           Y           Z
 ---------------------------------------------------------------------
      1          8           0        0.052276    2.787758   -0.000000
      2          1           0        0.050997    1.805157   -0.000000
      3          1           0       -0.876801    3.107634   -0.000000
      4          8           0        0.052276   -2.607841    0.000000
      5          1           0        0.790191   -3.256677    0.000000
      6          1           0       -0.800803   -3.095450    0.000000
 ---------------------------------------------------------------------

 SCF Done:  E(RHF) =  -33.6534604275     A.U. after   11 cycles
 E2 =    -0.2282981231D+00 EUMP2 =    -0.33881758550656D+02
 CCSD(T)
 CCSD(T)= -0.33898711271D+02

 The electronic state is 1-A'.
 Alpha  occ. eigenvalues --   -1.36319  -1.34578  -0.71960  -0.70204  -0.56151
 Alpha  occ. eigenvalues --   -0.54363  -0.50915  -0.49175
 Alpha virt. eigenvalues --    0.19510   0.21355   0.29791   0.31631   0.79640
 Alpha virt. eigenvalues --    0.81338   0.82458   0.84339   0.85669   0.87463
 Alpha virt. eigenvalues --    1.16654   1.18404   1.21095   1.22955   2.56617

 Mulliken charges:
               1
     1  O   -0.747652
     2  H    0.380071
     3  H    0.367548
     4  O   -0.747055
     5  H    0.375036
     6  H    0.372052
 Sum of Mulliken charges =   0.00000

 Dipole moment (field-independent basis, Debye):
    X=             -2.3989    Y=             -4.2290    Z=              0.0000  Tot=              4.8620
 Quadrupole moment (field-independent basis, Debye-Ang):
   XX=             -9.5145   YY=             -5.4093   ZZ=            -14.9920
   XY=             -6.5873   XZ=              0.0000   YZ=             -0.0000

 3306\MP4DQ=-33.8930784\MP4SDQ=-33.8951024\CCSD=-33.8961538\CCSD(T)=-33
 Normal termination of Gaussian 16 at Sun Dec 10 06:48:50 2023.
