 Gaussian 16, Revision A.03,
 Gaussian 16:  ES64L-G16RevA.03 25-Dec-2016

 ------------------
 #p CCSD(T)/CEP-31G
 ------------------

 ------------
 H2O_H2O_1242
 ------------
 Symbolic Z-matrix:
 Charge =  0 Multiplicity = 1

                         Standard orientation:
 ---------------------------------------------------------------------
 Center     Atomic      Atomic             Coordinates (Angstroms)
 Number     Number       Type             X           Y           Z
 ---------------------------------------------------------------------
      1          8           0        0.037541    1.600547    0.000000
      2          1           0        0.034423    0.617951    0.000000
      3          1           0       -0.890937    1.922161    0.000000
      4          8           0        0.037541   -1.421662   -0.000000
      5          1           0        0.917426   -1.859049   -0.000000
      6          1           0       -0.661562   -2.112142   -0.000000
 ---------------------------------------------------------------------

 SCF Done:  E(RHF) =  -33.6628708679     A.U. after   11 cycles
 E2 =    -0.2289427948D+00 EUMP2 =    -0.33891813662741D+02
 CCSD(T)
 CCSD(T)= -0.33908439244D+02

 The electronic state is 1-A'.
 Alpha  occ. eigenvalues --   -1.38392  -1.31735  -0.74015  -0.68023  -0.58982
 Alpha  occ. eigenvalues --   -0.53122  -0.51438  -0.46409
 Alpha virt. eigenvalues --    0.17805   0.25931   0.28314   0.42122   0.76317
 Alpha virt. eigenvalues --    0.78799   0.85392   0.86141   0.92527   1.00572
 Alpha virt. eigenvalues --    1.15133   1.18925   1.22106   1.34675   2.50364

 Mulliken charges:
               1
     1  O   -0.785908
     2  H    0.430183
     3  H    0.354099
     4  O   -0.795968
     5  H    0.398405
     6  H    0.399189
 Sum of Mulliken charges =   0.00000

 Dipole moment (field-independent basis, Debye):
    X=             -1.6665    Y=             -4.6000    Z=             -0.0000  Tot=              4.8925
 Quadrupole moment (field-independent basis, Debye-Ang):
   XX=             -9.3744   YY=             -8.4286   ZZ=            -15.0144
   XY=             -4.7314   XZ=             -0.0000   YZ=              0.0000

 325\MP4DQ=-33.9026343\MP4SDQ=-33.904733\CCSD=-33.9057082\CCSD(T)=-33.9
 Normal termination of Gaussian 16 at Sun Dec 10 06:41:57 2023.
