 Gaussian 16, Revision A.03,
 Gaussian 16:  ES64L-G16RevA.03 25-Dec-2016

 ------------------
 #p CCSD(T)/CEP-31G
 ------------------

 ----------
 H2O_H2O_93
 ----------
 Symbolic Z-matrix:
 Charge =  0 Multiplicity = 1

                         Standard orientation:
 ---------------------------------------------------------------------
 Center     Atomic      Atomic             Coordinates (Angstroms)
 Number     Number       Type             X           Y           Z
 ---------------------------------------------------------------------
      1          8           0        0.034021    1.141012    0.000000
      2          1           0        0.029250    0.158422    0.000000
      3          1           0       -0.893914    1.464188    0.000000
      4          8           0        0.034021   -0.963665   -0.000000
      5          1           0        0.939990   -1.344094   -0.000000
      6          1           0       -0.619660   -1.697291   -0.000000
 ---------------------------------------------------------------------

 SCF Done:  E(RHF) =  -33.6020701962     A.U. after   11 cycles
 E2 =    -0.2272767059D+00 EUMP2 =    -0.33829346902189D+02
 CCSD(T)
 CCSD(T)= -0.33843866476D+02

 The electronic state is 1-A'.
 Alpha  occ. eigenvalues --   -1.45754  -1.26607  -0.81073  -0.77254  -0.58941
 Alpha  occ. eigenvalues --   -0.54778  -0.43495  -0.40577
 Alpha virt. eigenvalues --    0.16413   0.24983   0.30371   0.62259   0.73282
 Alpha virt. eigenvalues --    0.73638   0.86395   0.91982   0.92077   1.04296
 Alpha virt. eigenvalues --    1.13317   1.18107   1.30467   1.37064   2.94501

 Mulliken charges:
               1
     1  O   -0.750375
     2  H    0.298840
     3  H    0.311711
     4  O   -0.775979
     5  H    0.448451
     6  H    0.467353
 Sum of Mulliken charges =  -0.00000

 Dipole moment (field-independent basis, Debye):
    X=             -1.4058    Y=             -5.6968    Z=             -0.0000  Tot=              5.8677
 Quadrupole moment (field-independent basis, Debye-Ang):
   XX=             -9.2751   YY=            -10.6833   ZZ=            -14.9313
   XY=             -3.3826   XZ=             -0.0000   YZ=              0.0000

 8\MP4DQ=-33.8377071\MP4SDQ=-33.8400347\CCSD=-33.8406301\CCSD(T)=-33.84
 Normal termination of Gaussian 16 at Sun Dec 10 06:19:52 2023.
