 Gaussian 16, Revision A.03,
 Gaussian 16:  ES64L-G16RevA.03 25-Dec-2016

 ------------------
 #p CCSD(T)/CEP-31G
 ------------------

 ------------
 H2O_H2O_1728
 ------------
 Symbolic Z-matrix:
 Charge =  0 Multiplicity = 1

                         Standard orientation:
 ---------------------------------------------------------------------
 Center     Atomic      Atomic             Coordinates (Angstroms)
 Number     Number       Type             X           Y           Z
 ---------------------------------------------------------------------
      1          8           0        0.085608   -1.784058    0.000000
      2          1           0        0.085243   -0.801456    0.000000
      3          1           0       -0.843767   -2.103069    0.000000
      4          8           0        0.085608    1.634476    0.000000
      5          1           0        0.276947    2.598269    0.000000
      6          1           0       -0.888146    1.502907    0.000000
 ---------------------------------------------------------------------

 SCF Done:  E(RHF) =  -33.6549884425     A.U. after   11 cycles
 E2 =    -0.2288707982D+00 EUMP2 =    -0.33883859240749D+02
 CCSD(T)
 CCSD(T)= -0.33900873639D+02

 The electronic state is 1-A'.
 Alpha  occ. eigenvalues --   -1.37774  -1.33796  -0.73578  -0.69343  -0.57773
 Alpha  occ. eigenvalues --   -0.53500  -0.52360  -0.48371
 Alpha virt. eigenvalues --    0.17028   0.24097   0.28476   0.35797   0.77622
 Alpha virt. eigenvalues --    0.81909   0.82846   0.84910   0.88908   0.98976
 Alpha virt. eigenvalues --    1.15185   1.18299   1.21087   1.38501   2.51966

 Mulliken charges:
               1
     1  O   -0.757032
     2  H    0.398467
     3  H    0.355455
     4  O   -0.759275
     5  H    0.393810
     6  H    0.368576
 Sum of Mulliken charges =  -0.00000

 Dipole moment (field-independent basis, Debye):
    X=             -3.8605    Y=              3.7456    Z=              0.0000  Tot=              5.3790
 Quadrupole moment (field-independent basis, Debye-Ang):
   XX=            -10.8370   YY=             -8.8176   ZZ=            -14.9928
   XY=              2.9381   XZ=              0.0000   YZ=              0.0000

 542\MP4DQ=-33.8950778\MP4SDQ=-33.8972013\CCSD=-33.8982203\CCSD(T)=-33.
 Normal termination of Gaussian 16 at Sun Dec 10 06:51:31 2023.
