 Gaussian 16, Revision A.03,
 Gaussian 16:  ES64L-G16RevA.03 25-Dec-2016

 ------------------
 #p CCSD(T)/CEP-31G
 ------------------

 ------------
 H2O_H2O_2184
 ------------
 Symbolic Z-matrix:
 Charge =  0 Multiplicity = 1

                         Standard orientation:
 ---------------------------------------------------------------------
 Center     Atomic      Atomic             Coordinates (Angstroms)
 Number     Number       Type             X           Y           Z
 ---------------------------------------------------------------------
      1          8           0        0.066777    1.976318   -0.000000
      2          1           0        0.065601    0.993717   -0.000000
      3          1           0       -0.862333    2.296096    0.000000
      4          8           0        0.066777   -1.803240   -0.000000
      5          1           0        0.611703   -2.620896   -0.000000
      6          1           0       -0.883410   -2.053540    0.000000
 ---------------------------------------------------------------------

 SCF Done:  E(RHF) =  -33.6565407642     A.U. after   11 cycles
 E2 =    -0.2285616806D+00 EUMP2 =    -0.33885102444815D+02
 CCSD(T)
 CCSD(T)= -0.33902021614D+02

 The electronic state is 1-A'.
 Alpha  occ. eigenvalues --   -1.37255  -1.33532  -0.72924  -0.69136  -0.57317
 Alpha  occ. eigenvalues --   -0.53333  -0.51886  -0.48153
 Alpha virt. eigenvalues --    0.17994   0.23433   0.29009   0.34091   0.78541
 Alpha virt. eigenvalues --    0.82487   0.83300   0.85299   0.88567   0.88835
 Alpha virt. eigenvalues --    1.15738   1.19907   1.20339   1.32269   2.53072

 Mulliken charges:
               1
     1  O   -0.761427
     2  H    0.399608
     3  H    0.359735
     4  O   -0.757722
     5  H    0.385576
     6  H    0.374231
 Sum of Mulliken charges =  -0.00000

 Dipole moment (field-independent basis, Debye):
    X=             -3.0232    Y=             -4.2373    Z=              0.0000  Tot=              5.2053
 Quadrupole moment (field-independent basis, Debye-Ang):
   XX=             -9.8988   YY=             -7.5566   ZZ=            -14.9975
   XY=             -4.3095   XZ=             -0.0000   YZ=              0.0000

 5719\MP4DQ=-33.8963172\MP4SDQ=-33.8983904\CCSD=-33.8994182\CCSD(T)=-33
 Normal termination of Gaussian 16 at Sun Dec 10 07:00:18 2023.
