 Gaussian 16, Revision A.03,
 Gaussian 16:  ES64L-G16RevA.03 25-Dec-2016

 ------------------
 #p CCSD(T)/CEP-31G
 ------------------

 ------------
 H2O_H2O_4953
 ------------
 Symbolic Z-matrix:
 Charge =  0 Multiplicity = 1

                         Standard orientation:
 ---------------------------------------------------------------------
 Center     Atomic      Atomic             Coordinates (Angstroms)
 Number     Number       Type             X           Y           Z
 ---------------------------------------------------------------------
      1          8           0        0.085596   -3.070451    0.000000
      2          1           0        0.085388   -2.087849    0.000000
      3          1           0       -0.843830   -3.389314    0.000000
      4          8           0        0.085596    2.920842    0.000000
      5          1           0        0.277088    3.884604    0.000000
      6          1           0       -0.888178    2.789428    0.000000
 ---------------------------------------------------------------------

 SCF Done:  E(RHF) =  -33.6522282518     A.U. after   11 cycles
 E2 =    -0.2283486501D+00 EUMP2 =    -0.33880576901930D+02
 CCSD(T)
 CCSD(T)= -0.33897565605D+02

 The electronic state is 1-A'.
 Alpha  occ. eigenvalues --   -1.36210  -1.35087  -0.71853  -0.70709  -0.55972
 Alpha  occ. eigenvalues --   -0.54830  -0.50787  -0.49663
 Alpha virt. eigenvalues --    0.19567   0.20747   0.29830   0.30994   0.79771
 Alpha virt. eigenvalues --    0.80876   0.82738   0.83890   0.85824   0.87040
 Alpha virt. eigenvalues --    1.16712   1.17832   1.21164   1.22318   2.56705

 Mulliken charges:
               1
     1  O   -0.742878
     2  H    0.375048
     3  H    0.367829
     4  O   -0.743022
     5  H    0.373911
     6  H    0.369112
 Sum of Mulliken charges =  -0.00000

 Dipole moment (field-independent basis, Debye):
    X=             -3.9408    Y=              3.5029    Z=              0.0000  Tot=              5.2726
 Quadrupole moment (field-independent basis, Debye-Ang):
   XX=            -10.7992   YY=             -7.8138   ZZ=            -14.9891
   XY=              3.4046   XZ=              0.0000   YZ=              0.0000

 817\MP4DQ=-33.891924\MP4SDQ=-33.8939506\CCSD=-33.8950052\CCSD(T)=-33.8
 Normal termination of Gaussian 16 at Sun Dec 10 07:03:26 2023.
