 Gaussian 16, Revision A.03,
 Gaussian 16:  ES64L-G16RevA.03 25-Dec-2016

 ------------------
 #p CCSD(T)/CEP-31G
 ------------------

 ----------
 H2O_H2O_99
 ----------
 Symbolic Z-matrix:
 Charge =  0 Multiplicity = 1

                         Standard orientation:
 ---------------------------------------------------------------------
 Center     Atomic      Atomic             Coordinates (Angstroms)
 Number     Number       Type             X           Y           Z
 ---------------------------------------------------------------------
      1          8           0       -0.013797   -1.131143   -0.000000
      2          1           0       -0.007388   -0.148562   -0.000000
      3          1           0        0.913598   -1.455865   -0.000000
      4          8           0       -0.013797    0.971976    0.000000
      5          1           0       -0.996379    0.978385    0.000000
      6          1           0        0.310925    1.899371    0.000000
 ---------------------------------------------------------------------

 SCF Done:  E(RHF) =  -33.5939654350     A.U. after   11 cycles
 E2 =    -0.2267271430D+00 EUMP2 =    -0.33820692578040D+02
 CCSD(T)
 CCSD(T)= -0.33835512406D+02

 The electronic state is 1-A'.
 Alpha  occ. eigenvalues --   -1.46099  -1.27309  -0.83653  -0.73292  -0.58703
 Alpha  occ. eigenvalues --   -0.56261  -0.44394  -0.41473
 Alpha virt. eigenvalues --    0.16915   0.24372   0.30202   0.61807   0.73334
 Alpha virt. eigenvalues --    0.74679   0.91012   0.91421   0.93045   1.05126
 Alpha virt. eigenvalues --    1.11914   1.19735   1.30630   1.46884   3.00838

 Mulliken charges:
               1
     1  O   -0.731045
     2  H    0.242155
     3  H    0.331541
     4  O   -0.779917
     5  H    0.437256
     6  H    0.500010
 Sum of Mulliken charges =  -0.00000

 Dipole moment (field-independent basis, Debye):
    X=              0.5888    Y=              5.2390    Z=              0.0000  Tot=              5.2719
 Quadrupole moment (field-independent basis, Debye-Ang):
   XX=             -9.7053   YY=            -10.4548   ZZ=            -14.9203
   XY=             -3.8093   XZ=             -0.0000   YZ=              0.0000

 \MP4DQ=-33.8293158\MP4SDQ=-33.8316901\CCSD=-33.8323398\CCSD(T)=-33.835
 Normal termination of Gaussian 16 at Sun Dec 10 06:19:59 2023.
