 Gaussian 16, Revision A.03,
 Gaussian 16:  ES64L-G16RevA.03 25-Dec-2016

 ------------------
 #p CCSD(T)/CEP-31G
 ------------------

 -----------
 H2O_H2O_138
 -----------
 Symbolic Z-matrix:
 Charge =  0 Multiplicity = 1

                         Standard orientation:
 ---------------------------------------------------------------------
 Center     Atomic      Atomic             Coordinates (Angstroms)
 Number     Number       Type             X           Y           Z
 ---------------------------------------------------------------------
      1          8           0        0.052453    1.162233    0.000000
      2          1           0        0.049236    0.179637    0.000000
      3          1           0       -0.875991    1.483941   -0.000000
      4          8           0        0.052453   -0.982523    0.000000
      5          1           0        0.789088   -1.632812    0.000000
      6          1           0       -0.801586   -1.468448   -0.000000
 ---------------------------------------------------------------------

 SCF Done:  E(RHF) =  -33.6124097728     A.U. after   11 cycles
 E2 =    -0.2279530617D+00 EUMP2 =    -0.33840362834568D+02
 CCSD(T)
 CCSD(T)= -0.33855004350D+02

 The electronic state is 1-A'.
 Alpha  occ. eigenvalues --   -1.45016  -1.27061  -0.79297  -0.77802  -0.58524
 Alpha  occ. eigenvalues --   -0.54983  -0.44304  -0.41065
 Alpha virt. eigenvalues --    0.16271   0.25204   0.30106   0.61617   0.73283
 Alpha virt. eigenvalues --    0.73435   0.86246   0.91627   0.92371   1.07204
 Alpha virt. eigenvalues --    1.12329   1.16323   1.28608   1.34890   2.93115

 Mulliken charges:
               1
     1  O   -0.748575
     2  H    0.334747
     3  H    0.305569
     4  O   -0.792284
     5  H    0.463705
     6  H    0.436838
 Sum of Mulliken charges =   0.00000

 Dipole moment (field-independent basis, Debye):
    X=             -2.1204    Y=             -5.6466    Z=             -0.0000  Tot=              6.0316
 Quadrupole moment (field-independent basis, Debye-Ang):
   XX=             -9.3907   YY=            -10.6213   ZZ=            -14.9434
   XY=             -3.3397   XZ=              0.0000   YZ=             -0.0000

 37\MP4DQ=-33.8488221\MP4SDQ=-33.8511624\CCSD=-33.85177\CCSD(T)=-33.855
 Normal termination of Gaussian 16 at Sun Dec 10 06:20:45 2023.
