 Gaussian 16, Revision A.03,
 Gaussian 16:  ES64L-G16RevA.03 25-Dec-2016

 ------------------
 #p CCSD(T)/CEP-31G
 ------------------

 ------------
 H2O_H2O_1397
 ------------
 Symbolic Z-matrix:
 Charge =  0 Multiplicity = 1

                         Standard orientation:
 ---------------------------------------------------------------------
 Center     Atomic      Atomic             Coordinates (Angstroms)
 Number     Number       Type             X           Y           Z
 ---------------------------------------------------------------------
      1          8           0       -0.019964    1.653956    0.000000
      2          1           0       -0.016015    0.671363    0.000000
      3          1           0        0.908241    1.976356    0.000000
      4          8           0       -0.019964   -1.486901    0.000000
      5          1           0       -0.993636   -1.619071    0.000000
      6          1           0        0.420832   -2.365084    0.000000
 ---------------------------------------------------------------------

 SCF Done:  E(RHF) =  -33.6614151259     A.U. after   11 cycles
 E2 =    -0.2287266454D+00 EUMP2 =    -0.33890141771249D+02
 CCSD(T)
 CCSD(T)= -0.33906928512D+02

 The electronic state is 1-A'.
 Alpha  occ. eigenvalues --   -1.38097  -1.32411  -0.73844  -0.68326  -0.58615
 Alpha  occ. eigenvalues --   -0.52784  -0.52194  -0.47101
 Alpha virt. eigenvalues --    0.17768   0.25439   0.28483   0.39773   0.76777
 Alpha virt. eigenvalues --    0.79994   0.84510   0.86426   0.89712   1.04466
 Alpha virt. eigenvalues --    1.15678   1.18091   1.21864   1.36546   2.50759

 Mulliken charges:
               1
     1  O   -0.781859
     2  H    0.416190
     3  H    0.362150
     4  O   -0.788111
     5  H    0.389686
     6  H    0.401944
 Sum of Mulliken charges =  -0.00000

 Dipole moment (field-independent basis, Debye):
    X=              0.8943    Y=             -4.2600    Z=              0.0000  Tot=              4.3529
 Quadrupole moment (field-independent basis, Debye-Ang):
   XX=             -9.6484   YY=             -8.4391   ZZ=            -15.0092
   XY=              5.5607   XZ=              0.0000   YZ=              0.0000

 083\MP4DQ=-33.9011301\MP4SDQ=-33.9032418\CCSD=-33.9042404\CCSD(T)=-33.
 Normal termination of Gaussian 16 at Sun Dec 10 06:45:02 2023.
