 Gaussian 16, Revision A.03,
 Gaussian 16:  ES64L-G16RevA.03 25-Dec-2016

 ------------------
 #p CCSD(T)/CEP-31G
 ------------------

 ------------
 H2O_H2O_1468
 ------------
 Symbolic Z-matrix:
 Charge =  0 Multiplicity = 1

                         Standard orientation:
 ---------------------------------------------------------------------
 Center     Atomic      Atomic             Coordinates (Angstroms)
 Number     Number       Type             X           Y           Z
 ---------------------------------------------------------------------
      1          8           0        0.033873    1.689520   -0.000000
      2          1           0        0.030737    0.706924   -0.000000
      3          1           0       -0.894598    2.011153   -0.000000
      4          8           0        0.033873   -1.512061    0.000000
      5          1           0        0.940474   -1.890982    0.000000
      6          1           0       -0.618587   -2.246773    0.000000
 ---------------------------------------------------------------------

 SCF Done:  E(RHF) =  -33.6617347211     A.U. after   11 cycles
 E2 =    -0.2288102894D+00 EUMP2 =    -0.33890545010497D+02
 CCSD(T)
 CCSD(T)= -0.33907295978D+02

 The electronic state is 1-A'.
 Alpha  occ. eigenvalues --   -1.37989  -1.32260  -0.73639  -0.68179  -0.58526
 Alpha  occ. eigenvalues --   -0.52696  -0.52053  -0.46942
 Alpha virt. eigenvalues --    0.17922   0.25316   0.28589   0.39430   0.77034
 Alpha virt. eigenvalues --    0.80211   0.84446   0.86366   0.90630   0.98980
 Alpha virt. eigenvalues --    1.15268   1.19106   1.21592   1.34524   2.49894

 Mulliken charges:
               1
     1  O   -0.782447
     2  H    0.422301
     3  H    0.358206
     4  O   -0.784085
     5  H    0.392072
     6  H    0.393953
 Sum of Mulliken charges =  -0.00000

 Dipole moment (field-independent basis, Debye):
    X=             -1.5133    Y=             -4.4904    Z=              0.0000  Tot=              4.7385
 Quadrupole moment (field-independent basis, Debye-Ang):
   XX=             -9.4046   YY=             -8.1481   ZZ=            -15.0101
   XY=             -5.1056   XZ=              0.0000   YZ=             -0.0000

 6\MP4DQ=-33.9015222\MP4SDQ=-33.9036138\CCSD=-33.9046133\CCSD(T)=-33.90
 Normal termination of Gaussian 16 at Sun Dec 10 06:46:27 2023.
