 Gaussian 16, Revision A.03,
 Gaussian 16:  ES64L-G16RevA.03 25-Dec-2016

 ------------------
 #p CCSD(T)/CEP-31G
 ------------------

 -----------
 H2O_H2O_558
 -----------
 Symbolic Z-matrix:
 Charge =  0 Multiplicity = 1

                         Standard orientation:
 ---------------------------------------------------------------------
 Center     Atomic      Atomic             Coordinates (Angstroms)
 Number     Number       Type             X           Y           Z
 ---------------------------------------------------------------------
      1          8           0        0.070259    1.326552   -0.000000
      2          1           0        0.068704    0.343952   -0.000000
      3          1           0       -0.858728    1.646689   -0.000000
      4          8           0        0.070259   -1.156407    0.000000
      5          1           0        0.560212   -2.008142    0.000000
      6          1           0       -0.894337   -1.343654    0.000000
 ---------------------------------------------------------------------

 SCF Done:  E(RHF) =  -33.6509754810     A.U. after   11 cycles
 E2 =    -0.2288959913D+00 EUMP2 =    -0.33879871472249D+02
 CCSD(T)
 CCSD(T)= -0.33895823502D+02

 The electronic state is 1-A'.
 Alpha  occ. eigenvalues --   -1.40995  -1.30125  -0.76959  -0.70300  -0.58563
 Alpha  occ. eigenvalues --   -0.55431  -0.49041  -0.44545
 Alpha virt. eigenvalues --    0.16816   0.26167   0.28041   0.52895   0.73987
 Alpha virt. eigenvalues --    0.75556   0.85553   0.88650   0.96457   1.06548
 Alpha virt. eigenvalues --    1.15616   1.20703   1.23525   1.35995   2.68992

 Mulliken charges:
               1
     1  O   -0.755212
     2  H    0.407777
     3  H    0.328038
     4  O   -0.832285
     5  H    0.455485
     6  H    0.396196
 Sum of Mulliken charges =   0.00000

 Dipole moment (field-independent basis, Debye):
    X=             -2.9671    Y=             -4.8320    Z=              0.0000  Tot=              5.6702
 Quadrupole moment (field-independent basis, Debye-Ang):
   XX=            -10.0156   YY=             -9.5443   ZZ=            -15.0000
   XY=             -3.4166   XZ=              0.0000   YZ=             -0.0000

 9\MP4DQ=-33.88979\MP4SDQ=-33.8920303\CCSD=-33.8928631\CCSD(T)=-33.8958
 Normal termination of Gaussian 16 at Sun Dec 10 06:29:01 2023.
