 Gaussian 16, Revision A.03,
 Gaussian 16:  ES64L-G16RevA.03 25-Dec-2016

 ------------------
 #p CCSD(T)/CEP-31G
 ------------------

 ------------
 H2O_H2O_1601
 ------------
 Symbolic Z-matrix:
 Charge =  0 Multiplicity = 1

                         Standard orientation:
 ---------------------------------------------------------------------
 Center     Atomic      Atomic             Coordinates (Angstroms)
 Number     Number       Type             X           Y           Z
 ---------------------------------------------------------------------
      1          8           0        0.090687   -1.728289    0.000000
      2          1           0        0.090571   -0.745687    0.000000
      3          1           0       -0.838769   -2.047065    0.000000
      4          8           0        0.090687    1.589586    0.000000
      5          1           0        0.154836    2.570092    0.000000
      6          1           0       -0.857627    1.332281    0.000000
 ---------------------------------------------------------------------

 SCF Done:  E(RHF) =  -33.6536149632     A.U. after   11 cycles
 E2 =    -0.2290283999D+00 EUMP2 =    -0.33882643363055D+02
 CCSD(T)
 CCSD(T)= -0.33899701087D+02

 The electronic state is 1-A'.
 Alpha  occ. eigenvalues --   -1.37980  -1.34045  -0.73904  -0.69515  -0.57901
 Alpha  occ. eigenvalues --   -0.53706  -0.52535  -0.48592
 Alpha virt. eigenvalues --    0.16684   0.24231   0.28297   0.36469   0.77219
 Alpha virt. eigenvalues --    0.81645   0.82939   0.84666   0.88728   1.02659
 Alpha virt. eigenvalues --    1.15421   1.17494   1.21527   1.39669   2.51854

 Mulliken charges:
               1
     1  O   -0.752320
     2  H    0.393369
     3  H    0.354671
     4  O   -0.756308
     5  H    0.395661
     6  H    0.364928
 Sum of Mulliken charges =  -0.00000

 Dipole moment (field-independent basis, Debye):
    X=             -4.0841    Y=              3.5027    Z=              0.0000  Tot=              5.3804
 Quadrupole moment (field-independent basis, Debye-Ang):
   XX=            -11.1734   YY=             -9.3072   ZZ=            -14.9892
   XY=              2.4872   XZ=              0.0000   YZ=              0.0000

 532\MP4DQ=-33.8938657\MP4SDQ=-33.8960135\CCSD=-33.8970246\CCSD(T)=-33.
 Normal termination of Gaussian 16 at Sun Dec 10 06:49:06 2023.
