 Gaussian 16, Revision A.03,
 Gaussian 16:  ES64L-G16RevA.03 25-Dec-2016

 ------------------
 #p CCSD(T)/CEP-31G
 ------------------

 -----------
 H2O_H2O_598
 -----------
 Symbolic Z-matrix:
 Charge =  0 Multiplicity = 1

                         Standard orientation:
 ---------------------------------------------------------------------
 Center     Atomic      Atomic             Coordinates (Angstroms)
 Number     Number       Type             X           Y           Z
 ---------------------------------------------------------------------
      1          8           0        0.016819   -1.332827    0.000000
      2          1           0        0.011643   -0.350239    0.000000
      3          1           0       -0.910982   -1.656385    0.000000
      4          8           0        0.016819    1.169516    0.000000
      5          1           0        0.996965    1.238944    0.000000
      6          1           0       -0.366728    2.074169    0.000000
 ---------------------------------------------------------------------

 SCF Done:  E(RHF) =  -33.6541890856     A.U. after   11 cycles
 E2 =    -0.2282558185D+00 EUMP2 =    -0.33882444904092D+02
 CCSD(T)
 CCSD(T)= -0.33898457468D+02

 The electronic state is 1-A'.
 Alpha  occ. eigenvalues --   -1.40685  -1.30092  -0.77047  -0.69194  -0.59342
 Alpha  occ. eigenvalues --   -0.55143  -0.49087  -0.44662
 Alpha virt. eigenvalues --    0.17379   0.26635   0.28058   0.52306   0.74133
 Alpha virt. eigenvalues --    0.76283   0.86982   0.88510   0.93095   1.06143
 Alpha virt. eigenvalues --    1.15339   1.22210   1.27623   1.38283   2.66919

 Mulliken charges:
               1
     1  O   -0.767628
     2  H    0.389244
     3  H    0.350316
     4  O   -0.835500
     5  H    0.410692
     6  H    0.452876
 Sum of Mulliken charges =   0.00000

 Dipole moment (field-independent basis, Debye):
    X=             -0.7525    Y=              4.6377    Z=              0.0000  Tot=              4.6984
 Quadrupole moment (field-independent basis, Debye-Ang):
   XX=             -9.7027   YY=             -9.4612   ZZ=            -15.0081
   XY=              4.4841   XZ=              0.0000   YZ=              0.0000

 3\MP4DQ=-33.8924899\MP4SDQ=-33.8946914\CCSD=-33.8955493\CCSD(T)=-33.89
 Normal termination of Gaussian 16 at Sun Dec 10 06:29:47 2023.
