 Gaussian 16, Revision A.03,
 Gaussian 16:  ES64L-G16RevA.03 25-Dec-2016

 ------------------
 #p CCSD(T)/CEP-31G
 ------------------

 ------------
 H2O_H2O_4484
 ------------
 Symbolic Z-matrix:
 Charge =  0 Multiplicity = 1

                         Standard orientation:
 ---------------------------------------------------------------------
 Center     Atomic      Atomic             Coordinates (Angstroms)
 Number     Number       Type             X           Y           Z
 ---------------------------------------------------------------------
      1          8           0        0.066744    2.893761    0.000000
      2          1           0        0.065952    1.911160    0.000000
      3          1           0       -0.862492    3.213177   -0.000000
      4          8           0        0.066744   -2.720631    0.000000
      5          1           0        0.611989   -3.538074    0.000000
      6          1           0       -0.883346   -2.971302   -0.000000
 ---------------------------------------------------------------------

 SCF Done:  E(RHF) =  -33.6529602223     A.U. after   11 cycles
 E2 =    -0.2283168850D+00 EUMP2 =    -0.33881277107395D+02
 CCSD(T)
 CCSD(T)= -0.33898244199D+02

 The electronic state is 1-A'.
 Alpha  occ. eigenvalues --   -1.36273  -1.34747  -0.71915  -0.70370  -0.56077
 Alpha  occ. eigenvalues --   -0.54515  -0.50862  -0.49335
 Alpha virt. eigenvalues --    0.19541   0.21144   0.29807   0.31417   0.79694
 Alpha virt. eigenvalues --    0.81188   0.82576   0.84189   0.85729   0.87332
 Alpha virt. eigenvalues --    1.16680   1.18205   1.21120   1.22728   2.56657

 Mulliken charges:
               1
     1  O   -0.745721
     2  H    0.378281
     3  H    0.367428
     4  O   -0.745484
     5  H    0.374703
     6  H    0.370793
 Sum of Mulliken charges =   0.00000

 Dipole moment (field-independent basis, Debye):
    X=             -3.0670    Y=             -4.0628    Z=             -0.0000  Tot=              5.0905
 Quadrupole moment (field-independent basis, Debye-Ang):
   XX=             -9.8931   YY=             -5.7669   ZZ=            -14.9909
   XY=             -5.4333   XZ=              0.0000   YZ=             -0.0000

 8625\MP4DQ=-33.8926081\MP4SDQ=-33.8946329\CCSD=-33.8956857\CCSD(T)=-33
 Normal termination of Gaussian 16 at Sun Dec 10 06:53:42 2023.
