 Gaussian 16, Revision A.03,
 Gaussian 16:  ES64L-G16RevA.03 25-Dec-2016

 ------------------
 #p CCSD(T)/CEP-31G
 ------------------

 -----------
 H2O_H2O_933
 -----------
 Symbolic Z-matrix:
 Charge =  0 Multiplicity = 1

                         Standard orientation:
 ---------------------------------------------------------------------
 Center     Atomic      Atomic             Coordinates (Angstroms)
 Number     Number       Type             X           Y           Z
 ---------------------------------------------------------------------
      1          8           0        0.070245    1.476143    0.000000
      2          1           0        0.068857    0.493542    0.000000
      3          1           0       -0.858797    1.796122    0.000000
      4          8           0        0.070245   -1.305974   -0.000000
      5          1           0        0.560343   -2.157625   -0.000000
      6          1           0       -0.894319   -1.493385   -0.000000
 ---------------------------------------------------------------------

 SCF Done:  E(RHF) =  -33.6590226204     A.U. after   11 cycles
 E2 =    -0.2290623886D+00 EUMP2 =    -0.33888085008953D+02
 CCSD(T)
 CCSD(T)= -0.33904620364D+02

 The electronic state is 1-A'.
 Alpha  occ. eigenvalues --   -1.39284  -1.31480  -0.75106  -0.68474  -0.59207
 Alpha  occ. eigenvalues --   -0.53920  -0.50915  -0.46041
 Alpha virt. eigenvalues --    0.17208   0.26306   0.27602   0.45800   0.75170
 Alpha virt. eigenvalues --    0.77559   0.85233   0.86558   0.94456   1.07833
 Alpha virt. eigenvalues --    1.16665   1.18071   1.22299   1.36481   2.54415

 Mulliken charges:
               1
     1  O   -0.770065
     2  H    0.424228
     3  H    0.341176
     4  O   -0.810117
     5  H    0.428995
     6  H    0.385783
 Sum of Mulliken charges =  -0.00000

 Dipole moment (field-independent basis, Debye):
    X=             -3.0541    Y=             -4.5483    Z=             -0.0000  Tot=              5.4785
 Quadrupole moment (field-independent basis, Debye-Ang):
   XX=            -10.0298   YY=             -8.9350   ZZ=            -15.0093
   XY=             -3.5940   XZ=             -0.0000   YZ=              0.0000

 37\MP4DQ=-33.8987052\MP4SDQ=-33.9008731\CCSD=-33.9018116\CCSD(T)=-33.9
 Normal termination of Gaussian 16 at Sun Dec 10 06:36:04 2023.
