 Gaussian 16, Revision A.03,
 Gaussian 16:  ES64L-G16RevA.03 25-Dec-2016

 ------------------
 #p CCSD(T)/CEP-31G
 ------------------

 ------------
 H2O_H2O_2684
 ------------
 Symbolic Z-matrix:
 Charge =  0 Multiplicity = 1

                         Standard orientation:
 ---------------------------------------------------------------------
 Center     Atomic      Atomic             Coordinates (Angstroms)
 Number     Number       Type             X           Y           Z
 ---------------------------------------------------------------------
      1          8           0        0.066768    2.175764    0.000000
      2          1           0        0.065704    1.193163    0.000000
      3          1           0       -0.862380    2.495436    0.000000
      4          8           0        0.066768   -2.002671   -0.000000
      5          1           0        0.611787   -2.820265   -0.000000
      6          1           0       -0.883391   -2.253079   -0.000000
 ---------------------------------------------------------------------

 SCF Done:  E(RHF) =  -33.6551722211     A.U. after   11 cycles
 E2 =    -0.2284141142D+00 EUMP2 =    -0.33883586335263D+02
 CCSD(T)
 CCSD(T)= -0.33900509489D+02

 The electronic state is 1-A'.
 Alpha  occ. eigenvalues --   -1.36910  -1.33955  -0.72569  -0.69557  -0.56853
 Alpha  occ. eigenvalues --   -0.53756  -0.51527  -0.48566
 Alpha virt. eigenvalues --    0.18377   0.22577   0.29249   0.32706   0.79032
 Alpha virt. eigenvalues --    0.81943   0.83297   0.84920   0.85356   0.88237
 Alpha virt. eigenvalues --    1.16087   1.19446   1.20538   1.27946   2.55234

 Mulliken charges:
               1
     1  O   -0.754907
     2  H    0.390932
     3  H    0.362700
     4  O   -0.752430
     5  H    0.380997
     6  H    0.372707
 Sum of Mulliken charges =   0.00000

 Dipole moment (field-independent basis, Debye):
    X=             -3.0399    Y=             -4.1706    Z=             -0.0000  Tot=              5.1609
 Quadrupole moment (field-independent basis, Debye-Ang):
   XX=             -9.8974   YY=             -7.1434   ZZ=            -14.9950
   XY=             -4.5540   XZ=             -0.0000   YZ=              0.0000

 65\MP4DQ=-33.8948471\MP4SDQ=-33.8968969\CCSD=-33.8979323\CCSD(T)=-33.9
 Normal termination of Gaussian 16 at Sun Dec 10 06:21:19 2023.
