 Gaussian 16, Revision A.03,
 Gaussian 16:  ES64L-G16RevA.03 25-Dec-2016

 ------------------
 #p CCSD(T)/CEP-31G
 ------------------

 -----------
 H2O_H2O_378
 -----------
 Symbolic Z-matrix:
 Charge =  0 Multiplicity = 1

                         Standard orientation:
 ---------------------------------------------------------------------
 Center     Atomic      Atomic             Coordinates (Angstroms)
 Number     Number       Type             X           Y           Z
 ---------------------------------------------------------------------
      1          8           0        0.085621   -1.245559    0.000000
      2          1           0        0.085088   -0.262958    0.000000
      3          1           0       -0.843700   -1.564729    0.000000
      4          8           0        0.085621    1.096007    0.000000
      5          1           0        0.276794    2.059832    0.000000
      6          1           0       -0.888111    0.964271    0.000000
 ---------------------------------------------------------------------

 SCF Done:  E(RHF) =  -33.6286310226     A.U. after   11 cycles
 E2 =    -0.2286196237D+00 EUMP2 =    -0.33857250646287D+02
 CCSD(T)
 CCSD(T)= -0.33873245905D+02

 The electronic state is 1-A'.
 Alpha  occ. eigenvalues --   -1.42773  -1.30501  -0.80221  -0.70015  -0.58274
 Alpha  occ. eigenvalues --   -0.56457  -0.49161  -0.44758
 Alpha virt. eigenvalues --    0.16315   0.24521   0.28674   0.55337   0.73377
 Alpha virt. eigenvalues --    0.76335   0.86655   0.88978   0.96098   1.09702
 Alpha virt. eigenvalues --    1.13712   1.23855   1.27335   1.42347   2.78628

 Mulliken charges:
               1
     1  O   -0.705688
     2  H    0.324631
     3  H    0.320813
     4  O   -0.799207
     5  H    0.475766
     6  H    0.383685
 Sum of Mulliken charges =   0.00000

 Dipole moment (field-independent basis, Debye):
    X=             -3.6181    Y=              4.5402    Z=              0.0000  Tot=              5.8055
 Quadrupole moment (field-independent basis, Debye-Ang):
   XX=            -10.8621   YY=             -9.8930   ZZ=            -14.9618
   XY=              2.6711   XZ=              0.0000   YZ=              0.0000

 8\MP4DQ=-33.8670191\MP4SDQ=-33.8694154\CCSD=-33.8702041\CCSD(T)=-33.87
 Normal termination of Gaussian 16 at Sun Dec 10 06:25:30 2023.
