 Gaussian 16, Revision A.03,
 Gaussian 16:  ES64L-G16RevA.03 25-Dec-2016

 ------------------
 #p CCSD(T)/CEP-31G
 ------------------

 -----------
 H2O_H2O_786
 -----------
 Symbolic Z-matrix:
 Charge =  0 Multiplicity = 1

                         Standard orientation:
 ---------------------------------------------------------------------
 Center     Atomic      Atomic             Coordinates (Angstroms)
 Number     Number       Type             X           Y           Z
 ---------------------------------------------------------------------
      1          8           0        0.059720    1.420209   -0.000000
      2          1           0        0.057597    0.437610   -0.000000
      3          1           0       -0.869083    1.740883   -0.000000
      4          8           0        0.059720   -1.242870    0.000000
      5          1           0        0.705996   -1.983028    0.000000
      6          1           0       -0.850026   -1.614177    0.000000
 ---------------------------------------------------------------------

 SCF Done:  E(RHF) =  -33.6599632417     A.U. after   11 cycles
 E2 =    -0.2291263478D+00 EUMP2 =    -0.33889089589495D+02
 CCSD(T)
 CCSD(T)= -0.33905294284D+02

 The electronic state is 1-A'.
 Alpha  occ. eigenvalues --   -1.39761  -1.30601  -0.75337  -0.69100  -0.59143
 Alpha  occ. eigenvalues --   -0.54439  -0.49880  -0.45153
 Alpha virt. eigenvalues --    0.17247   0.26951   0.27544   0.49020   0.74723
 Alpha virt. eigenvalues --    0.76047   0.85206   0.87593   0.96367   1.02868
 Alpha virt. eigenvalues --    1.15196   1.18493   1.22793   1.36561   2.58615

 Mulliken charges:
               1
     1  O   -0.776255
     2  H    0.432623
     3  H    0.337887
     4  O   -0.822910
     5  H    0.430716
     6  H    0.397938
 Sum of Mulliken charges =  -0.00000

 Dipole moment (field-independent basis, Debye):
    X=             -2.5649    Y=             -4.8040    Z=              0.0000  Tot=              5.4458
 Quadrupole moment (field-independent basis, Debye-Ang):
   XX=             -9.6361   YY=             -9.1632   ZZ=            -15.0148
   XY=             -3.8172   XZ=              0.0000   YZ=             -0.0000

 157\MP4DQ=-33.8993709\MP4SDQ=-33.9015311\CCSD=-33.9024184\CCSD(T)=-33.
 Normal termination of Gaussian 16 at Sun Dec 10 06:33:18 2023.
