 Gaussian 16, Revision A.03,
 Gaussian 16:  ES64L-G16RevA.03 25-Dec-2016

 ------------------
 #p CCSD(T)/CEP-31G
 ------------------

 ------------
 H2O_H2O_1744
 ------------
 Symbolic Z-matrix:
 Charge =  0 Multiplicity = 1

                         Standard orientation:
 ---------------------------------------------------------------------
 Center     Atomic      Atomic             Coordinates (Angstroms)
 Number     Number       Type             X           Y           Z
 ---------------------------------------------------------------------
      1          8           0        0.030257    1.798180    0.000000
      2          1           0        0.027142    0.815583    0.000000
      3          1           0       -0.898222    2.119790    0.000000
      4          8           0        0.030257   -1.622619    0.000000
      5          1           0        0.959706   -1.941413    0.000000
      6          1           0       -0.572735   -2.398445    0.000000
 ---------------------------------------------------------------------

 SCF Done:  E(RHF) =  -33.6601422712     A.U. after   11 cycles
 E2 =    -0.2286631786D+00 EUMP2 =    -0.33888805449812D+02
 CCSD(T)
 CCSD(T)= -0.33905640584D+02

 The electronic state is 1-A'.
 Alpha  occ. eigenvalues --   -1.37620  -1.32787  -0.73280  -0.68524  -0.57994
 Alpha  occ. eigenvalues --   -0.52634  -0.52303  -0.47465
 Alpha virt. eigenvalues --    0.18012   0.24611   0.28857   0.36886   0.77762
 Alpha virt. eigenvalues --    0.81588   0.83524   0.86422   0.88997   0.95196
 Alpha virt. eigenvalues --    1.15527   1.19545   1.21066   1.34416   2.50772

 Mulliken charges:
               1
     1  O   -0.776579
     2  H    0.412456
     3  H    0.361759
     4  O   -0.772844
     5  H    0.386876
     6  H    0.388331
 Sum of Mulliken charges =  -0.00000

 Dipole moment (field-independent basis, Debye):
    X=             -1.3581    Y=             -4.3730    Z=              0.0000  Tot=              4.5791
 Quadrupole moment (field-independent basis, Debye-Ang):
   XX=             -9.4511   YY=             -7.8774   ZZ=            -15.0055
   XY=             -5.5743   XZ=              0.0000   YZ=              0.0000

 622\MP4DQ=-33.8998997\MP4SDQ=-33.9019844\CCSD=-33.9029997\CCSD(T)=-33.
 Normal termination of Gaussian 16 at Sun Dec 10 06:51:49 2023.
