 Gaussian 16, Revision A.03,
 Gaussian 16:  ES64L-G16RevA.03 25-Dec-2016

 ------------------
 #p CCSD(T)/CEP-31G
 ------------------

 ------------
 H2O_H2O_2505
 ------------
 Symbolic Z-matrix:
 Charge =  0 Multiplicity = 1

                         Standard orientation:
 ---------------------------------------------------------------------
 Center     Atomic      Atomic             Coordinates (Angstroms)
 Number     Number       Type             X           Y           Z
 ---------------------------------------------------------------------
      1          8           0        0.079857    2.098332    0.000000
      2          1           0        0.079306    1.115731    0.000000
      3          1           0       -0.849458    2.417519   -0.000000
      4          8           0        0.079857   -1.939281    0.000000
      5          1           0        0.395182   -2.869912    0.000000
      6          1           0       -0.902739   -1.935751   -0.000000
 ---------------------------------------------------------------------

 SCF Done:  E(RHF) =  -33.6544207645     A.U. after   11 cycles
 E2 =    -0.2284980820D+00 EUMP2 =    -0.33882918846550D+02
 CCSD(T)
 CCSD(T)= -0.33899877441D+02

 The electronic state is 1-A'.
 Alpha  occ. eigenvalues --   -1.37045  -1.34159  -0.72725  -0.69744  -0.56949
 Alpha  occ. eigenvalues --   -0.53926  -0.51645  -0.48753
 Alpha virt. eigenvalues --    0.17779   0.22728   0.29094   0.32690   0.78885
 Alpha virt. eigenvalues --    0.81815   0.83125   0.84792   0.86654   0.88217
 Alpha virt. eigenvalues --    1.15788   1.19325   1.20447   1.30148   2.55149

 Mulliken charges:
               1
     1  O   -0.752449
     2  H    0.389645
     3  H    0.361432
     4  O   -0.750986
     5  H    0.382343
     6  H    0.370015
 Sum of Mulliken charges =   0.00000

 Dipole moment (field-independent basis, Debye):
    X=             -3.6352    Y=             -3.8514    Z=             -0.0000  Tot=              5.2961
 Quadrupole moment (field-independent basis, Debye-Ang):
   XX=            -10.4891   YY=             -8.0189   ZZ=            -14.9928
   XY=             -3.5482   XZ=              0.0000   YZ=             -0.0000

 449\MP4DQ=-33.8941939\MP4SDQ=-33.8962546\CCSD=-33.897289\CCSD(T)=-33.8
 Normal termination of Gaussian 16 at Sun Dec 10 06:18:06 2023.
