 Gaussian 16, Revision A.03,
 Gaussian 16:  ES64L-G16RevA.03 25-Dec-2016

 ------------------
 #p CCSD(T)/CEP-31G
 ------------------

 ------------
 H2O_H2O_2236
 ------------
 Symbolic Z-matrix:
 Charge =  0 Multiplicity = 1

                         Standard orientation:
 ---------------------------------------------------------------------
 Center     Atomic      Atomic             Coordinates (Angstroms)
 Number     Number       Type             X           Y           Z
 ---------------------------------------------------------------------
      1          8           0        0.059662    1.998619   -0.000000
      2          1           0        0.058181    1.016019   -0.000000
      3          1           0       -0.869350    2.318686   -0.000000
      4          8           0        0.059662   -1.821202    0.000000
      5          1           0        0.706422   -2.560937    0.000000
      6          1           0       -0.849841   -2.193104    0.000000
 ---------------------------------------------------------------------

 SCF Done:  E(RHF) =  -33.6569150922     A.U. after   11 cycles
 E2 =    -0.2285242280D+00 EUMP2 =    -0.33885439320128D+02
 CCSD(T)
 CCSD(T)= -0.33902340589D+02

 The electronic state is 1-A'.
 Alpha  occ. eigenvalues --   -1.37202  -1.33456  -0.72860  -0.69069  -0.57285
 Alpha  occ. eigenvalues --   -0.53275  -0.51841  -0.48086
 Alpha virt. eigenvalues --    0.18167   0.23410   0.29084   0.34034   0.78612
 Alpha virt. eigenvalues --    0.82513   0.83577   0.85428   0.87507   0.88751
 Alpha virt. eigenvalues --    1.15846   1.20004   1.20345   1.31331   2.53125

 Mulliken charges:
               1
     1  O   -0.762685
     2  H    0.399970
     3  H    0.360632
     4  O   -0.758081
     5  H    0.384564
     6  H    0.375600
 Sum of Mulliken charges =   0.00000

 Dipole moment (field-independent basis, Debye):
    X=             -2.7006    Y=             -4.3340    Z=              0.0000  Tot=              5.1066
 Quadrupole moment (field-independent basis, Debye-Ang):
   XX=             -9.6717   YY=             -7.3269   ZZ=            -14.9985
   XY=             -4.7230   XZ=              0.0000   YZ=             -0.0000

 986\MP4DQ=-33.8966468\MP4SDQ=-33.8987145\CCSD=-33.8997424\CCSD(T)=-33.
 Normal termination of Gaussian 16 at Sun Dec 10 07:01:40 2023.
