 Gaussian 16, Revision A.03,
 Gaussian 16:  ES64L-G16RevA.03 25-Dec-2016

 ------------------
 #p CCSD(T)/CEP-31G
 ------------------

 -----------
 H2O_H2O_597
 -----------
 Symbolic Z-matrix:
 Charge =  0 Multiplicity = 1

                         Standard orientation:
 ---------------------------------------------------------------------
 Center     Atomic      Atomic             Coordinates (Angstroms)
 Number     Number       Type             X           Y           Z
 ---------------------------------------------------------------------
      1          8           0       -0.020050    1.334837    0.000000
      2          1           0       -0.015093    0.352248    0.000000
      3          1           0        0.907824    1.658188    0.000000
      4          8           0       -0.020050   -1.167824    0.000000
      5          1           0       -0.993586   -1.300992    0.000000
      6          1           0        0.421648   -2.045553    0.000000
 ---------------------------------------------------------------------

 SCF Done:  E(RHF) =  -33.6551231324     A.U. after   11 cycles
 E2 =    -0.2283495005D+00 EUMP2 =    -0.33883472632940D+02
 CCSD(T)
 CCSD(T)= -0.33899423834D+02

 The electronic state is 1-A'.
 Alpha  occ. eigenvalues --   -1.40665  -1.29940  -0.76815  -0.69490  -0.59192
 Alpha  occ. eigenvalues --   -0.55168  -0.48923  -0.44502
 Alpha virt. eigenvalues --    0.17357   0.26728   0.28057   0.52529   0.74151
 Alpha virt. eigenvalues --    0.75949   0.86858   0.88605   0.93655   1.04642
 Alpha virt. eigenvalues --    1.15562   1.21741   1.26390   1.37912   2.66698

 Mulliken charges:
               1
     1  O   -0.770946
     2  H    0.397648
     3  H    0.347832
     4  O   -0.836717
     5  H    0.412123
     6  H    0.450060
 Sum of Mulliken charges =   0.00000

 Dipole moment (field-independent basis, Debye):
    X=              0.8937    Y=             -4.7267    Z=              0.0000  Tot=              4.8104
 Quadrupole moment (field-independent basis, Debye-Ang):
   XX=             -9.6053   YY=             -9.4633   ZZ=            -15.0099
   XY=              4.3664   XZ=              0.0000   YZ=              0.0000

 \MP4DQ=-33.8934664\MP4SDQ=-33.8956557\CCSD=-33.8965064\CCSD(T)=-33.899
 Normal termination of Gaussian 16 at Sun Dec 10 06:29:46 2023.
