 Gaussian 16, Revision A.03,
 Gaussian 16:  ES64L-G16RevA.03 25-Dec-2016

 ------------------
 #p CCSD(T)/CEP-31G
 ------------------

 ------------
 H2O_H2O_3591
 ------------
 Symbolic Z-matrix:
 Charge =  0 Multiplicity = 1

                         Standard orientation:
 ---------------------------------------------------------------------
 Center     Atomic      Atomic             Coordinates (Angstroms)
 Number     Number       Type             X           Y           Z
 ---------------------------------------------------------------------
      1          8           0        0.041127    2.538473    0.000000
      2          1           0        0.039331    1.555873    0.000000
      3          1           0       -0.887782    2.858838    0.000000
      4          8           0        0.041127   -2.358536   -0.000000
      5          1           0        0.891186   -2.851392   -0.000000
      6          1           0       -0.700772   -3.002812   -0.000000
 ---------------------------------------------------------------------

 SCF Done:  E(RHF) =  -33.6543361275     A.U. after   11 cycles
 E2 =    -0.2282861714D+00 EUMP2 =    -0.33882622298908D+02
 CCSD(T)
 CCSD(T)= -0.33899550598D+02

 The electronic state is 1-A'.
 Alpha  occ. eigenvalues --   -1.36481  -1.34320  -0.72123  -0.69947  -0.56363
 Alpha  occ. eigenvalues --   -0.54130  -0.51089  -0.48930
 Alpha virt. eigenvalues --    0.19275   0.21745   0.29677   0.31964   0.79472
 Alpha virt. eigenvalues --    0.81565   0.82232   0.84577   0.85482   0.87704
 Alpha virt. eigenvalues --    1.16529   1.18773   1.20957   1.23669   2.56489

 Mulliken charges:
               1
     1  O   -0.751038
     2  H    0.383604
     3  H    0.367213
     4  O   -0.749816
     5  H    0.376242
     6  H    0.373794
 Sum of Mulliken charges =  -0.00000

 Dipole moment (field-independent basis, Debye):
    X=             -1.8813    Y=             -4.2553    Z=             -0.0000  Tot=              4.6526
 Quadrupole moment (field-independent basis, Debye-Ang):
   XX=             -9.4108   YY=             -5.9603   ZZ=            -14.9938
   XY=             -6.9331   XZ=             -0.0000   YZ=              0.0000

 68\MP4DQ=-33.8939194\MP4SDQ=-33.8959454\CCSD=-33.8969923\CCSD(T)=-33.8
 Normal termination of Gaussian 16 at Sun Dec 10 06:37:37 2023.
