 Gaussian 16, Revision A.03,
 Gaussian 16:  ES64L-G16RevA.03 25-Dec-2016

 ------------------
 #p CCSD(T)/CEP-31G
 ------------------

 -----------
 H2O_H2O_741
 -----------
 Symbolic Z-matrix:
 Charge =  0 Multiplicity = 1

                         Standard orientation:
 ---------------------------------------------------------------------
 Center     Atomic      Atomic             Coordinates (Angstroms)
 Number     Number       Type             X           Y           Z
 ---------------------------------------------------------------------
      1          8           0        0.041270    1.401611    0.000000
      2          1           0        0.037917    0.419015    0.000000
      3          1           0       -0.887131    1.723447    0.000000
      4          8           0        0.041270   -1.221805   -0.000000
      5          1           0        0.890546   -1.716006   -0.000000
      6          1           0       -0.701649   -1.864905   -0.000000
 ---------------------------------------------------------------------

 SCF Done:  E(RHF) =  -33.6611148754     A.U. after   11 cycles
 E2 =    -0.2290256240D+00 EUMP2 =    -0.33890140499449D+02
 CCSD(T)
 CCSD(T)= -0.33906182949D+02

 The electronic state is 1-A'.
 Alpha  occ. eigenvalues --   -1.39901  -1.30159  -0.75324  -0.69422  -0.59123
 Alpha  occ. eigenvalues --   -0.54613  -0.49382  -0.44737
 Alpha virt. eigenvalues --    0.17376   0.27410   0.27510   0.50319   0.74610
 Alpha virt. eigenvalues --    0.75400   0.85563   0.88005   0.97009   0.98973
 Alpha virt. eigenvalues --    1.15151   1.18338   1.23765   1.36987   2.59834

 Mulliken charges:
               1
     1  O   -0.783192
     2  H    0.433173
     3  H    0.341253
     4  O   -0.826740
     5  H    0.418294
     6  H    0.417211
 Sum of Mulliken charges =  -0.00000

 Dipole moment (field-independent basis, Debye):
    X=             -1.7900    Y=             -4.8921    Z=             -0.0000  Tot=              5.2093
 Quadrupole moment (field-independent basis, Debye-Ang):
   XX=             -9.3409   YY=             -9.2643   ZZ=            -15.0190
   XY=             -4.0931   XZ=             -0.0000   YZ=              0.0000

 236\MP4DQ=-33.9002771\MP4SDQ=-33.9024191\CCSD=-33.9032851\CCSD(T)=-33.
 Normal termination of Gaussian 16 at Sun Dec 10 06:32:27 2023.
