 Gaussian 16, Revision A.03,
 Gaussian 16:  ES64L-G16RevA.03 25-Dec-2016

 ------------------
 #p CCSD(T)/CEP-31G
 ------------------

 -----------
 H2O_H2O_362
 -----------
 Symbolic Z-matrix:
 Charge =  0 Multiplicity = 1

                         Standard orientation:
 ---------------------------------------------------------------------
 Center     Atomic      Atomic             Coordinates (Angstroms)
 Number     Number       Type             X           Y           Z
 ---------------------------------------------------------------------
      1          8           0        0.056109    1.251461    0.000000
      2          1           0        0.053410    0.268863    0.000000
      3          1           0       -0.872505    1.572680    0.000000
      4          8           0        0.056109   -1.072703    0.000000
      5          1           0        0.749002   -1.769413    0.000000
      6          1           0       -0.827656   -1.502196    0.000000
 ---------------------------------------------------------------------

 SCF Done:  E(RHF) =  -33.6425072403     A.U. after   11 cycles
 E2 =    -0.2287033870D+00 EUMP2 =    -0.33871210627310D+02
 CCSD(T)
 CCSD(T)= -0.33886467504D+02

 The electronic state is 1-A'.
 Alpha  occ. eigenvalues --   -1.42376  -1.28555  -0.77403  -0.73633  -0.57130
 Alpha  occ. eigenvalues --   -0.56660  -0.46872  -0.42855
 Alpha virt. eigenvalues --    0.16701   0.26096   0.28951   0.57851   0.73614
 Alpha virt. eigenvalues --    0.73821   0.85951   0.90164   0.94692   1.04743
 Alpha virt. eigenvalues --    1.13191   1.17521   1.25370   1.35396   2.79229

 Mulliken charges:
               1
     1  O   -0.761024
     2  H    0.399096
     3  H    0.319739
     4  O   -0.831058
     5  H    0.453663
     6  H    0.419584
 Sum of Mulliken charges =  -0.00000

 Dipole moment (field-independent basis, Debye):
    X=             -2.3230    Y=             -5.2576    Z=              0.0000  Tot=              5.7479
 Quadrupole moment (field-independent basis, Debye-Ang):
   XX=             -9.5015   YY=            -10.0601   ZZ=            -14.9893
   XY=             -3.5393   XZ=              0.0000   YZ=              0.0000

 03\MP4DQ=-33.8803994\MP4SDQ=-33.8826497\CCSD=-33.8833713\CCSD(T)=-33.8
 Normal termination of Gaussian 16 at Sun Dec 10 06:25:11 2023.
