 Gaussian 16, Revision A.03,
 Gaussian 16:  ES64L-G16RevA.03 25-Dec-2016

 ------------------
 #p CCSD(T)/CEP-31G
 ------------------

 -----------
 H2O_H2O_651
 -----------
 Symbolic Z-matrix:
 Charge =  0 Multiplicity = 1

                         Standard orientation:
 ---------------------------------------------------------------------
 Center     Atomic      Atomic             Coordinates (Angstroms)
 Number     Number       Type             X           Y           Z
 ---------------------------------------------------------------------
      1          8           0        0.090689   -1.349352    0.000000
      2          1           0        0.090539   -0.366751    0.000000
      3          1           0       -0.838755   -1.668160    0.000000
      4          8           0        0.090689    1.210656    0.000000
      5          1           0        0.154806    2.191164    0.000000
      6          1           0       -0.857616    0.953318    0.000000
 ---------------------------------------------------------------------

 SCF Done:  E(RHF) =  -33.6415693248     A.U. after   11 cycles
 E2 =    -0.2291701785D+00 EUMP2 =    -0.33870739503320D+02
 CCSD(T)
 CCSD(T)= -0.33887376517D+02

 The electronic state is 1-A'.
 Alpha  occ. eigenvalues --   -1.40854  -1.32259  -0.78108  -0.68481  -0.59347
 Alpha  occ. eigenvalues --   -0.54961  -0.51443  -0.46632
 Alpha virt. eigenvalues --    0.16446   0.25021   0.27881   0.48992   0.73905
 Alpha virt. eigenvalues --    0.78028   0.85329   0.87121   0.93283   1.11350
 Alpha virt. eigenvalues --    1.13700   1.23830   1.33206   1.39353   2.59256

 Mulliken charges:
               1
     1  O   -0.716373
     2  H    0.344888
     3  H    0.334551
     4  O   -0.777057
     5  H    0.444546
     6  H    0.369446
 Sum of Mulliken charges =   0.00000

 Dipole moment (field-independent basis, Debye):
    X=             -3.9429    Y=              3.9681    Z=              0.0000  Tot=              5.5940
 Quadrupole moment (field-independent basis, Debye-Ang):
   XX=            -11.2159   YY=             -9.7113   ZZ=            -14.9793
   XY=              2.3788   XZ=              0.0000   YZ=              0.0000

 82\MP4DQ=-33.8812362\MP4SDQ=-33.8835776\CCSD=-33.8844544\CCSD(T)=-33.8
 Normal termination of Gaussian 16 at Sun Dec 10 06:30:46 2023.
