 Gaussian 16, Revision A.03,
 Gaussian 16:  ES64L-G16RevA.03 25-Dec-2016

 ------------------
 #p CCSD(T)/CEP-31G
 ------------------

 ------------
 H2O_H2O_1490
 ------------
 Symbolic Z-matrix:
 Charge =  0 Multiplicity = 1

                         Standard orientation:
 ---------------------------------------------------------------------
 Center     Atomic      Atomic             Coordinates (Angstroms)
 Number     Number       Type             X           Y           Z
 ---------------------------------------------------------------------
      1          8           0        0.044925    1.701050   -0.000000
      2          1           0        0.042391    0.718452   -0.000000
      3          1           0       -0.883743    2.022113    0.000000
      4          8           0        0.044925   -1.520717   -0.000000
      5          1           0        0.860518   -2.068727   -0.000000
      6          1           0       -0.737970   -2.114504    0.000000
 ---------------------------------------------------------------------

 SCF Done:  E(RHF) =  -33.6614108281     A.U. after   11 cycles
 E2 =    -0.2288578641D+00 EUMP2 =    -0.33890268692195D+02
 CCSD(T)
 CCSD(T)= -0.33907020205D+02

 The electronic state is 1-A'.
 Alpha  occ. eigenvalues --   -1.37970  -1.32261  -0.73603  -0.68156  -0.58483
 Alpha  occ. eigenvalues --   -0.52676  -0.52043  -0.46930
 Alpha virt. eigenvalues --    0.17932   0.25233   0.28589   0.39277   0.77104
 Alpha virt. eigenvalues --    0.80403   0.84402   0.86096   0.91318   0.97115
 Alpha virt. eigenvalues --    1.15192   1.19653   1.21246   1.33902   2.49644

 Mulliken charges:
               1
     1  O   -0.780922
     2  H    0.423641
     3  H    0.355775
     4  O   -0.781741
     5  H    0.394796
     6  H    0.388452
 Sum of Mulliken charges =   0.00000

 Dipole moment (field-independent basis, Debye):
    X=             -2.0021    Y=             -4.5540    Z=              0.0000  Tot=              4.9747
 Quadrupole moment (field-independent basis, Debye-Ang):
   XX=             -9.4014   YY=             -8.0695   ZZ=            -15.0094
   XY=             -4.7643   XZ=             -0.0000   YZ=              0.0000

 5309\MP4DQ=-33.90125\MP4SDQ=-33.9033383\CCSD=-33.9043384\CCSD(T)=-33.9
 Normal termination of Gaussian 16 at Sun Dec 10 06:46:52 2023.
