 Gaussian 16, Revision A.03,
 Gaussian 16:  ES64L-G16RevA.03 25-Dec-2016

 ------------------
 #p CCSD(T)/CEP-31G
 ------------------

 ------------
 H2O_H2O_1648
 ------------
 Symbolic Z-matrix:
 Charge =  0 Multiplicity = 1

                         Standard orientation:
 ---------------------------------------------------------------------
 Center     Atomic      Atomic             Coordinates (Angstroms)
 Number     Number       Type             X           Y           Z
 ---------------------------------------------------------------------
      1          8           0       -0.016711    1.751666    0.000000
      2          1           0       -0.012833    0.769072    0.000000
      3          1           0        0.911517    2.073998    0.000000
      4          8           0       -0.016711   -1.588310    0.000000
      5          1           0       -0.996948   -1.656444    0.000000
      6          1           0        0.365640   -2.493470    0.000000
 ---------------------------------------------------------------------

 SCF Done:  E(RHF) =  -33.6599579092     A.U. after   11 cycles
 E2 =    -0.2286496924D+00 EUMP2 =    -0.33888607601629D+02
 CCSD(T)
 CCSD(T)= -0.33905475511D+02

 The electronic state is 1-A'.
 Alpha  occ. eigenvalues --   -1.37729  -1.32964  -0.73460  -0.68711  -0.58092
 Alpha  occ. eigenvalues --   -0.52806  -0.52398  -0.47649
 Alpha virt. eigenvalues --    0.17761   0.24778   0.28759   0.37249   0.77494
 Alpha virt. eigenvalues --    0.81165   0.83554   0.86255   0.88512   0.99882
 Alpha virt. eigenvalues --    1.15628   1.18918   1.21230   1.36911   2.51464

 Mulliken charges:
               1
     1  O   -0.776652
     2  H    0.408251
     3  H    0.365229
     4  O   -0.776268
     5  H    0.385365
     6  H    0.394074
 Sum of Mulliken charges =   0.00000

 Dipole moment (field-independent basis, Debye):
    X=              0.7493    Y=             -4.0944    Z=              0.0000  Tot=              4.1624
 Quadrupole moment (field-independent basis, Debye-Ang):
   XX=             -9.7492   YY=             -8.3284   ZZ=            -15.0047
   XY=              6.0877   XZ=              0.0000   YZ=              0.0000

 724\MP4DQ=-33.8997087\MP4SDQ=-33.9018115\CCSD=-33.9028245\CCSD(T)=-33.
 Normal termination of Gaussian 16 at Sun Dec 10 06:50:00 2023.
