 Gaussian 16, Revision A.03,
 Gaussian 16:  ES64L-G16RevA.03 25-Dec-2016

 ------------------
 #p CCSD(T)/CEP-31G
 ------------------

 ------------
 H2O_H2O_1634
 ------------
 Symbolic Z-matrix:
 Charge =  0 Multiplicity = 1

                         Standard orientation:
 ---------------------------------------------------------------------
 Center     Atomic      Atomic             Coordinates (Angstroms)
 Number     Number       Type             X           Y           Z
 ---------------------------------------------------------------------
      1          8           0        0.066791    1.756925   -0.000000
      2          1           0        0.065460    0.774324   -0.000000
      3          1           0       -0.862270    2.076849   -0.000000
      4          8           0        0.066791   -1.583868    0.000000
      5          1           0        0.611588   -2.401610    0.000000
      6          1           0       -0.883436   -1.834019    0.000000
 ---------------------------------------------------------------------

 SCF Done:  E(RHF) =  -33.6587162776     A.U. after   11 cycles
 E2 =    -0.2288161803D+00 EUMP2 =    -0.33887532457954D+02
 CCSD(T)
 CCSD(T)= -0.33904407574D+02

 The electronic state is 1-A'.
 Alpha  occ. eigenvalues --   -1.37818  -1.32850  -0.73510  -0.68553  -0.58106
 Alpha  occ. eigenvalues --   -0.52607  -0.52473  -0.47478
 Alpha virt. eigenvalues --    0.17725   0.24631   0.28586   0.37445   0.77473
 Alpha virt. eigenvalues --    0.81408   0.83696   0.85539   0.90395   0.97409
 Alpha virt. eigenvalues --    1.15174   1.19403   1.20851   1.35425   2.50312

 Mulliken charges:
               1
     1  O   -0.770827
     2  H    0.414311
     3  H    0.354456
     4  O   -0.771994
     5  H    0.396466
     6  H    0.377588
 Sum of Mulliken charges =   0.00000

 Dipole moment (field-independent basis, Debye):
    X=             -2.9901    Y=             -4.3464    Z=              0.0000  Tot=              5.2756
 Quadrupole moment (field-independent basis, Debye-Ang):
   XX=             -9.8977   YY=             -8.0699   ZZ=            -15.0025
   XY=             -4.0465   XZ=              0.0000   YZ=             -0.0000

 9083\MP4DQ=-33.8986335\MP4SDQ=-33.9007344\CCSD=-33.9017482\CCSD(T)=-33
 Normal termination of Gaussian 16 at Sun Dec 10 06:49:45 2023.
