 Gaussian 16, Revision A.03,
 Gaussian 16:  ES64L-G16RevA.03 25-Dec-2016

 ------------------
 #p CCSD(T)/CEP-31G
 ------------------

 ------------
 H2O_H2O_4052
 ------------
 Symbolic Z-matrix:
 Charge =  0 Multiplicity = 1

                         Standard orientation:
 ---------------------------------------------------------------------
 Center     Atomic      Atomic             Coordinates (Angstroms)
 Number     Number       Type             X           Y           Z
 ---------------------------------------------------------------------
      1          8           0        0.088230   -2.708591    0.000000
      2          1           0        0.088078   -1.725990    0.000000
      3          1           0       -0.841214   -3.027401    0.000000
      4          8           0        0.088230    2.564267    0.000000
      5          1           0        0.216336    3.538482    0.000000
      6          1           0       -0.874876    2.369501    0.000000
 ---------------------------------------------------------------------

 SCF Done:  E(RHF) =  -33.6523267871     A.U. after   11 cycles
 E2 =    -0.2283508357D+00 EUMP2 =    -0.33880677622767D+02
 CCSD(T)
 CCSD(T)= -0.33897664494D+02

 The electronic state is 1-A'.
 Alpha  occ. eigenvalues --   -1.36401  -1.34990  -0.72052  -0.70604  -0.56173
 Alpha  occ. eigenvalues --   -0.54731  -0.50978  -0.49564
 Alpha virt. eigenvalues --    0.19203   0.20995   0.29647   0.31130   0.79589
 Alpha virt. eigenvalues --    0.80971   0.82498   0.83986   0.85571   0.87222
 Alpha virt. eigenvalues --    1.16485   1.17984   1.20975   1.22589   2.56291

 Mulliken charges:
               1
     1  O   -0.743304
     2  H    0.376696
     3  H    0.366579
     4  O   -0.743668
     5  H    0.375488
     6  H    0.368209
 Sum of Mulliken charges =  -0.00000

 Dipole moment (field-independent basis, Debye):
    X=             -4.0531    Y=              3.3992    Z=              0.0000  Tot=              5.2898
 Quadrupole moment (field-independent basis, Debye-Ang):
   XX=            -10.9680   YY=             -8.5636   ZZ=            -14.9891
   XY=              2.9515   XZ=              0.0000   YZ=              0.0000

 796\MP4DQ=-33.8920219\MP4SDQ=-33.8940491\CCSD=-33.8951025\CCSD(T)=-33.
 Normal termination of Gaussian 16 at Sun Dec 10 06:45:55 2023.
