 Gaussian 16, Revision A.03,
 Gaussian 16:  ES64L-G16RevA.03 25-Dec-2016

 ------------------
 #p CCSD(T)/CEP-31G
 ------------------

 -----------
 H2O_H2O_808
 -----------
 Symbolic Z-matrix:
 Charge =  0 Multiplicity = 1

                         Standard orientation:
 ---------------------------------------------------------------------
 Center     Atomic      Atomic             Coordinates (Angstroms)
 Number     Number       Type             X           Y           Z
 ---------------------------------------------------------------------
      1          8           0        0.070249    1.426279   -0.000000
      2          1           0        0.068810    0.443679   -0.000000
      3          1           0       -0.858776    1.746307   -0.000000
      4          8           0        0.070249   -1.256118    0.000000
      5          1           0        0.560303   -2.107795    0.000000
      6          1           0       -0.894325   -1.443479    0.000000
 ---------------------------------------------------------------------

 SCF Done:  E(RHF) =  -33.6577266118     A.U. after   11 cycles
 E2 =    -0.2290457852D+00 EUMP2 =    -0.33886772396971D+02
 CCSD(T)
 CCSD(T)= -0.33903155482D+02

 The electronic state is 1-A'.
 Alpha  occ. eigenvalues --   -1.39735  -1.31088  -0.75594  -0.68826  -0.59187
 Alpha  occ. eigenvalues --   -0.54339  -0.50394  -0.45616
 Alpha virt. eigenvalues --    0.17094   0.26502   0.27517   0.47966   0.74741
 Alpha virt. eigenvalues --    0.76836   0.85227   0.87230   0.95287   1.07473
 Alpha virt. eigenvalues --    1.16520   1.19110   1.22640   1.36530   2.57855

 Mulliken charges:
               1
     1  O   -0.766571
     2  H    0.421803
     3  H    0.337493
     4  O   -0.818646
     5  H    0.437203
     6  H    0.388717
 Sum of Mulliken charges =  -0.00000

 Dipole moment (field-independent basis, Debye):
    X=             -3.0285    Y=             -4.6265    Z=              0.0000  Tot=              5.5296
 Quadrupole moment (field-independent basis, Debye-Ang):
   XX=            -10.0268   YY=             -9.1182   ZZ=            -15.0088
   XY=             -3.5388   XZ=              0.0000   YZ=             -0.0000

 467\MP4DQ=-33.8972065\MP4SDQ=-33.8993938\CCSD=-33.9003037\CCSD(T)=-33.
 Normal termination of Gaussian 16 at Sun Dec 10 06:33:43 2023.
