 Gaussian 16, Revision A.03,
 Gaussian 16:  ES64L-G16RevA.03 25-Dec-2016

 ------------------
 #p CCSD(T)/CEP-31G
 ------------------

 ------------
 H2O_H2O_2385
 ------------
 Symbolic Z-matrix:
 Charge =  0 Multiplicity = 1

                         Standard orientation:
 ---------------------------------------------------------------------
 Center     Atomic      Atomic             Coordinates (Angstroms)
 Number     Number       Type             X           Y           Z
 ---------------------------------------------------------------------
      1          8           0        0.063251    2.057401    0.000000
      2          1           0        0.061970    1.074801    0.000000
      3          1           0       -0.865826    2.377279    0.000000
      4          8           0        0.063251   -1.881915    0.000000
      5          1           0        0.660405   -2.662244    0.000000
      6          1           0       -0.868565   -2.193726    0.000000
 ---------------------------------------------------------------------

 SCF Done:  E(RHF) =  -33.6561858613     A.U. after   11 cycles
 E2 =    -0.2284836080D+00 EUMP2 =    -0.33884669469284D+02
 CCSD(T)
 CCSD(T)= -0.33901581985D+02

 The electronic state is 1-A'.
 Alpha  occ. eigenvalues --   -1.37097  -1.33654  -0.72758  -0.69259  -0.57120
 Alpha  occ. eigenvalues --   -0.53466  -0.51727  -0.48276
 Alpha virt. eigenvalues --    0.18202   0.23097   0.29139   0.33462   0.78778
 Alpha virt. eigenvalues --    0.82278   0.83717   0.85182   0.86458   0.88524
 Alpha virt. eigenvalues --    1.15927   1.19803   1.20418   1.30302   2.53963

 Mulliken charges:
               1
     1  O   -0.759479
     2  H    0.396332
     3  H    0.361304
     4  O   -0.755626
     5  H    0.383229
     6  H    0.374240
 Sum of Mulliken charges =   0.00000

 Dipole moment (field-independent basis, Debye):
    X=             -2.8699    Y=             -4.2658    Z=              0.0000  Tot=              5.1414
 Quadrupole moment (field-independent basis, Debye-Ang):
   XX=             -9.7779   YY=             -7.2742   ZZ=            -14.9970
   XY=             -4.6142   XZ=              0.0000   YZ=              0.0000

 1498\MP4DQ=-33.8958994\MP4SDQ=-33.8979617\CCSD=-33.898992\CCSD(T)=-33.
 Normal termination of Gaussian 16 at Sun Dec 10 07:05:20 2023.
