 Gaussian 16, Revision A.03,
 Gaussian 16:  ES64L-G16RevA.03 25-Dec-2016

 ------------------
 #p CCSD(T)/CEP-31G
 ------------------

 ------------
 H2O_H2O_2802
 ------------
 Symbolic Z-matrix:
 Charge =  0 Multiplicity = 1

                         Standard orientation:
 ---------------------------------------------------------------------
 Center     Atomic      Atomic             Coordinates (Angstroms)
 Number     Number       Type             X           Y           Z
 ---------------------------------------------------------------------
      1          8           0        0.088232   -2.209991    0.000000
      2          1           0        0.088045   -1.227390    0.000000
      3          1           0       -0.841200   -2.528835    0.000000
      4          8           0        0.088232    2.065673    0.000000
      5          1           0        0.216302    3.039894    0.000000
      6          1           0       -0.874866    1.870873    0.000000
 ---------------------------------------------------------------------

 SCF Done:  E(RHF) =  -33.6530418052     A.U. after   11 cycles
 E2 =    -0.2284545797D+00 EUMP2 =    -0.33881496384972D+02
 CCSD(T)
 CCSD(T)= -0.33898478131D+02

 The electronic state is 1-A'.
 Alpha  occ. eigenvalues --   -1.36884  -1.34636  -0.72564  -0.70222  -0.56703
 Alpha  occ. eigenvalues --   -0.54376  -0.51465  -0.49212
 Alpha virt. eigenvalues --    0.17637   0.22255   0.29215   0.31858   0.79105
 Alpha virt. eigenvalues --    0.81338   0.82669   0.84328   0.85768   0.87817
 Alpha virt. eigenvalues --    1.15762   1.18831   1.20550   1.27455   2.56128

 Mulliken charges:
               1
     1  O   -0.746567
     2  H    0.382753
     3  H    0.363111
     4  O   -0.746599
     5  H    0.380048
     6  H    0.367254
 Sum of Mulliken charges =  -0.00000

 Dipole moment (field-independent basis, Debye):
    X=             -4.0296    Y=              3.4643    Z=              0.0000  Tot=              5.3140
 Quadrupole moment (field-independent basis, Debye-Ang):
   XX=            -10.9805   YY=             -8.8023   ZZ=            -14.9897
   XY=              2.8318   XZ=              0.0000   YZ=              0.0000

 0683\MP4DQ=-33.8928103\MP4SDQ=-33.8948576\CCSD=-33.895899\CCSD(T)=-33.
 Normal termination of Gaussian 16 at Sun Dec 10 06:23:26 2023.
