 Gaussian 16, Revision A.03,
 Gaussian 16:  ES64L-G16RevA.03 25-Dec-2016

 ------------------
 #p CCSD(T)/CEP-31G
 ------------------

 ----------
 H2O_H2O_89
 ----------
 Symbolic Z-matrix:
 Charge =  0 Multiplicity = 1

                         Standard orientation:
 ---------------------------------------------------------------------
 Center     Atomic      Atomic             Coordinates (Angstroms)
 Number     Number       Type             X           Y           Z
 ---------------------------------------------------------------------
      1          8           0        0.048758    1.142556   -0.000000
      2          1           0        0.045180    0.159962   -0.000000
      3          1           0       -0.879568    1.464606    0.000000
      4          8           0        0.048758   -0.962358   -0.000000
      5          1           0        0.826125   -1.563361   -0.000000
      6          1           0       -0.771870   -1.502797    0.000000
 ---------------------------------------------------------------------

 SCF Done:  E(RHF) =  -33.6020657366     A.U. after   11 cycles
 E2 =    -0.2276255783D+00 EUMP2 =    -0.33829691314962D+02
 CCSD(T)
 CCSD(T)= -0.33844196659D+02

 The electronic state is 1-A'.
 Alpha  occ. eigenvalues --   -1.45782  -1.26646  -0.79714  -0.78979  -0.59020
 Alpha  occ. eigenvalues --   -0.54431  -0.43542  -0.40561
 Alpha virt. eigenvalues --    0.16189   0.25018   0.30390   0.62165   0.73232
 Alpha virt. eigenvalues --    0.73461   0.85577   0.91992   0.92003   1.07338
 Alpha virt. eigenvalues --    1.12914   1.15866   1.29798   1.35410   2.95561

 Mulliken charges:
               1
     1  O   -0.746980
     2  H    0.310204
     3  H    0.303071
     4  O   -0.773588
     5  H    0.462400
     6  H    0.444893
 Sum of Mulliken charges =  -0.00000

 Dipole moment (field-independent basis, Debye):
    X=             -1.9654    Y=             -5.7591    Z=              0.0000  Tot=              6.0852
 Quadrupole moment (field-independent basis, Debye-Ang):
   XX=             -9.3221   YY=            -10.7530   ZZ=            -14.9296
   XY=             -3.2999   XZ=             -0.0000   YZ=              0.0000

 8\MP4DQ=-33.8379948\MP4SDQ=-33.8403546\CCSD=-33.8409355\CCSD(T)=-33.84
 Normal termination of Gaussian 16 at Sun Dec 10 06:19:47 2023.
