 Gaussian 16, Revision A.03,
 Gaussian 16:  ES64L-G16RevA.03 25-Dec-2016

 ------------------
 #p CCSD(T)/CEP-31G
 ------------------

 ------------
 H2O_H2O_4460
 ------------
 Symbolic Z-matrix:
 Charge =  0 Multiplicity = 1

                         Standard orientation:
 ---------------------------------------------------------------------
 Center     Atomic      Atomic             Coordinates (Angstroms)
 Number     Number       Type             X           Y           Z
 ---------------------------------------------------------------------
      1          8           0        0.063217    2.885096    0.000000
      2          1           0        0.062315    1.902495    0.000000
      3          1           0       -0.865983    3.204615    0.000000
      4          8           0        0.063217   -2.709561   -0.000000
      5          1           0        0.660672   -3.489660   -0.000000
      6          1           0       -0.868479   -3.021730   -0.000000
 ---------------------------------------------------------------------

 SCF Done:  E(RHF) =  -33.6530585766     A.U. after   11 cycles
 E2 =    -0.2283127829D+00 EUMP2 =    -0.33881371359496D+02
 CCSD(T)
 CCSD(T)= -0.33898335590D+02

 The electronic state is 1-A'.
 Alpha  occ. eigenvalues --   -1.36275  -1.34712  -0.71917  -0.70336  -0.56084
 Alpha  occ. eigenvalues --   -0.54484  -0.50865  -0.49302
 Alpha virt. eigenvalues --    0.19546   0.21185   0.29811   0.31461   0.79690
 Alpha virt. eigenvalues --    0.81219   0.82562   0.84219   0.85726   0.87357
 Alpha virt. eigenvalues --    1.16682   1.18245   1.21123   1.22769   2.56657

 Mulliken charges:
               1
     1  O   -0.746099
     2  H    0.378596
     3  H    0.367490
     4  O   -0.745784
     5  H    0.374718
     6  H    0.371078
 Sum of Mulliken charges =   0.00000

 Dipole moment (field-independent basis, Debye):
    X=             -2.9044    Y=             -4.1196    Z=             -0.0000  Tot=              5.0405
 Quadrupole moment (field-independent basis, Debye-Ang):
   XX=             -9.7753   YY=             -5.5724   ZZ=            -14.9911
   XY=             -5.7631   XZ=             -0.0000   YZ=              0.0000

 541\MP4DQ=-33.8927002\MP4SDQ=-33.8947248\CCSD=-33.8957774\CCSD(T)=-33.
 Normal termination of Gaussian 16 at Sun Dec 10 06:53:16 2023.
