 Gaussian 16, Revision A.03,
 Gaussian 16:  ES64L-G16RevA.03 25-Dec-2016

 ------------------
 #p CCSD(T)/CEP-31G
 ------------------

 ------------
 H2O_H2O_4485
 ------------
 Symbolic Z-matrix:
 Charge =  0 Multiplicity = 1

                         Standard orientation:
 ---------------------------------------------------------------------
 Center     Atomic      Atomic             Coordinates (Angstroms)
 Number     Number       Type             X           Y           Z
 ---------------------------------------------------------------------
      1          8           0        0.063217    2.895068    0.000000
      2          1           0        0.062318    1.912467    0.000000
      3          1           0       -0.865984    3.214584   -0.000000
      4          8           0        0.063217   -2.719532    0.000000
      5          1           0        0.660674   -3.499630    0.000000
      6          1           0       -0.868478   -3.031705   -0.000000
 ---------------------------------------------------------------------

 SCF Done:  E(RHF) =  -33.6530433248     A.U. after   11 cycles
 E2 =    -0.2283132459D+00 EUMP2 =    -0.33881356570696D+02
 CCSD(T)
 CCSD(T)= -0.33898321240D+02

 The electronic state is 1-A'.
 Alpha  occ. eigenvalues --   -1.36270  -1.34719  -0.71912  -0.70343  -0.56078
 Alpha  occ. eigenvalues --   -0.54490  -0.50860  -0.49309
 Alpha virt. eigenvalues --    0.19551   0.21176   0.29816   0.31451   0.79695
 Alpha virt. eigenvalues --    0.81213   0.82570   0.84213   0.85732   0.87350
 Alpha virt. eigenvalues --    1.16686   1.18237   1.21127   1.22758   2.56662

 Mulliken charges:
               1
     1  O   -0.746039
     2  H    0.378503
     3  H    0.367524
     4  O   -0.745729
     5  H    0.374673
     6  H    0.371067
 Sum of Mulliken charges =  -0.00000

 Dipole moment (field-independent basis, Debye):
    X=             -2.9046    Y=             -4.1189    Z=             -0.0000  Tot=              5.0401
 Quadrupole moment (field-independent basis, Debye-Ang):
   XX=             -9.7753   YY=             -5.5521   ZZ=            -14.9911
   XY=             -5.7769   XZ=              0.0000   YZ=             -0.0000

 398\MP4DQ=-33.8926858\MP4SDQ=-33.8947104\CCSD=-33.895763\CCSD(T)=-33.8
 Normal termination of Gaussian 16 at Sun Dec 10 06:53:44 2023.
