 Gaussian 16, Revision A.03,
 Gaussian 16:  ES64L-G16RevA.03 25-Dec-2016

 ------------------
 #p CCSD(T)/CEP-31G
 ------------------

 ------------
 H2O_H2O_4476
 ------------
 Symbolic Z-matrix:
 Charge =  0 Multiplicity = 1

                         Standard orientation:
 ---------------------------------------------------------------------
 Center     Atomic      Atomic             Coordinates (Angstroms)
 Number     Number       Type             X           Y           Z
 ---------------------------------------------------------------------
      1          8           0        0.090684   -2.875065    0.000000
      2          1           0        0.090615   -1.892464    0.000000
      3          1           0       -0.838787   -3.193797    0.000000
      4          8           0        0.090684    2.736354    0.000000
      5          1           0        0.154880    3.716856    0.000000
      6          1           0       -0.857644    2.479095    0.000000
 ---------------------------------------------------------------------

 SCF Done:  E(RHF) =  -33.6520933445     A.U. after   11 cycles
 E2 =    -0.2283572152D+00 EUMP2 =    -0.33880450559779D+02
 CCSD(T)
 CCSD(T)= -0.33897444010D+02

 The electronic state is 1-A'.
 Alpha  occ. eigenvalues --   -1.36307  -1.35127  -0.71955  -0.70745  -0.56065
 Alpha  occ. eigenvalues --   -0.54863  -0.50882  -0.49699
 Alpha virt. eigenvalues --    0.19393   0.20755   0.29723   0.30955   0.79682
 Alpha virt. eigenvalues --    0.80842   0.82641   0.83860   0.85705   0.87043
 Alpha virt. eigenvalues --    1.16593   1.17801   1.21060   1.22311   2.56467

 Mulliken charges:
               1
     1  O   -0.742381
     2  H    0.375065
     3  H    0.367311
     4  O   -0.742687
     5  H    0.374554
     6  H    0.368139
 Sum of Mulliken charges =   0.00000

 Dipole moment (field-independent basis, Debye):
    X=             -4.1715    Y=              3.2568    Z=              0.0000  Tot=              5.2923
 Quadrupole moment (field-independent basis, Debye-Ang):
   XX=            -11.1261   YY=             -9.0368   ZZ=            -14.9886
   XY=              2.6466   XZ=              0.0000   YZ=              0.0000

 0592\MP4DQ=-33.8918007\MP4SDQ=-33.8938279\CCSD=-33.8948824\CCSD(T)=-33
 Normal termination of Gaussian 16 at Sun Dec 10 06:53:34 2023.
