 Gaussian 16, Revision A.03,
 Gaussian 16:  ES64L-G16RevA.03 25-Dec-2016

 ------------------
 #p CCSD(T)/CEP-31G
 ------------------

 ------------
 H2O_H2O_3644
 ------------
 Symbolic Z-matrix:
 Charge =  0 Multiplicity = 1

                         Standard orientation:
 ---------------------------------------------------------------------
 Center     Atomic      Atomic             Coordinates (Angstroms)
 Number     Number       Type             X           Y           Z
 ---------------------------------------------------------------------
      1          8           0        0.030171    2.556073    0.000000
      2          1           0        0.028013    1.573474    0.000000
      3          1           0       -0.898619    2.876781   -0.000000
      4          8           0        0.030171   -2.380454    0.000000
      5          1           0        0.959930   -2.698343    0.000000
      6          1           0       -0.572066   -3.156866   -0.000000
 ---------------------------------------------------------------------

 SCF Done:  E(RHF) =  -33.6543343777     A.U. after   11 cycles
 E2 =    -0.2282778532D+00 EUMP2 =    -0.33882612230941D+02
 CCSD(T)
 CCSD(T)= -0.33899541358D+02

 The electronic state is 1-A'.
 Alpha  occ. eigenvalues --   -1.36458  -1.34390  -0.72100  -0.70024  -0.56339
 Alpha  occ. eigenvalues --   -0.54205  -0.51066  -0.49002
 Alpha virt. eigenvalues --    0.19295   0.21669   0.29685   0.31902   0.79493
 Alpha virt. eigenvalues --    0.81494   0.82243   0.84478   0.85513   0.87618
 Alpha virt. eigenvalues --    1.16550   1.18697   1.20956   1.23590   2.56509

 Mulliken charges:
               1
     1  O   -0.751038
     2  H    0.382654
     3  H    0.368202
     4  O   -0.749930
     5  H    0.375600
     6  H    0.374511
 Sum of Mulliken charges =   0.00000

 Dipole moment (field-independent basis, Debye):
    X=             -1.3802    Y=             -4.1486    Z=             -0.0000  Tot=              4.3722
 Quadrupole moment (field-independent basis, Debye-Ang):
   XX=             -9.4722   YY=             -6.2124   ZZ=            -14.9937
   XY=             -7.8081   XZ=              0.0000   YZ=             -0.0000

 592\MP4DQ=-33.8939107\MP4SDQ=-33.895936\CCSD=-33.8969834\CCSD(T)=-33.8
 Normal termination of Gaussian 16 at Sun Dec 10 06:38:34 2023.
