 Gaussian 16, Revision A.03,
 Gaussian 16:  ES64L-G16RevA.03 25-Dec-2016

 ------------------
 #p CCSD(T)/CEP-31G
 ------------------

 -----------
 H2O_H2O_621
 -----------
 Symbolic Z-matrix:
 Charge =  0 Multiplicity = 1

                         Standard orientation:
 ---------------------------------------------------------------------
 Center     Atomic      Atomic             Coordinates (Angstroms)
 Number     Number       Type             X           Y           Z
 ---------------------------------------------------------------------
      1          8           0       -0.023389    1.346587    0.000000
      2          1           0       -0.018698    0.363997    0.000000
      3          1           0        0.904572    1.669688    0.000000
      4          8           0       -0.023389   -1.176299    0.000000
      5          1           0       -0.986184   -1.372593    0.000000
      6          1           0        0.474540   -2.023395    0.000000
 ---------------------------------------------------------------------

 SCF Done:  E(RHF) =  -33.6567667846     A.U. after   11 cycles
 E2 =    -0.2284885224D+00 EUMP2 =    -0.33885255307071D+02
 CCSD(T)
 CCSD(T)= -0.33901202030D+02

 The electronic state is 1-A'.
 Alpha  occ. eigenvalues --   -1.40509  -1.29924  -0.76444  -0.69589  -0.59140
 Alpha  occ. eigenvalues --   -0.55071  -0.48951  -0.44490
 Alpha virt. eigenvalues --    0.17357   0.26884   0.27971   0.52213   0.74230
 Alpha virt. eigenvalues --    0.75738   0.86633   0.88538   0.94144   1.03474
 Alpha virt. eigenvalues --    1.15783   1.20883   1.25417   1.37658   2.65291

 Mulliken charges:
               1
     1  O   -0.774754
     2  H    0.407092
     3  H    0.346284
     4  O   -0.835983
     5  H    0.412658
     6  H    0.444703
 Sum of Mulliken charges =   0.00000

 Dipole moment (field-independent basis, Debye):
    X=              1.0379    Y=             -4.7800    Z=              0.0000  Tot=              4.8914
 Quadrupole moment (field-independent basis, Debye-Ang):
   XX=             -9.5219   YY=             -9.4300   ZZ=            -15.0127
   XY=              4.2999   XZ=              0.0000   YZ=              0.0000

 013\MP4DQ=-33.8952589\MP4SDQ=-33.8974344\CCSD=-33.898286\CCSD(T)=-33.9
 Normal termination of Gaussian 16 at Sun Dec 10 06:30:12 2023.
