 Gaussian 16, Revision A.03,
 Gaussian 16:  ES64L-G16RevA.03 25-Dec-2016

 ------------------
 #p CCSD(T)/CEP-31G
 ------------------

 ------------
 H2O_H2O_1910
 ------------
 Symbolic Z-matrix:
 Charge =  0 Multiplicity = 1

                         Standard orientation:
 ---------------------------------------------------------------------
 Center     Atomic      Atomic             Coordinates (Angstroms)
 Number     Number       Type             X           Y           Z
 ---------------------------------------------------------------------
      1          8           0        0.063263    1.867926   -0.000000
      2          1           0        0.061846    0.885326   -0.000000
      3          1           0       -0.865769    2.187932   -0.000000
      4          8           0        0.063263   -1.692457    0.000000
      5          1           0        0.660309   -2.472869    0.000000
      6          1           0       -0.868596   -2.004139    0.000000
 ---------------------------------------------------------------------

 SCF Done:  E(RHF) =  -33.6579004940     A.U. after   11 cycles
 E2 =    -0.2286693522D+00 EUMP2 =    -0.33886569846193D+02
 CCSD(T)
 CCSD(T)= -0.33903464519D+02

 The electronic state is 1-A'.
 Alpha  occ. eigenvalues --   -1.37494  -1.33148  -0.73164  -0.68785  -0.57686
 Alpha  occ. eigenvalues --   -0.52947  -0.52143  -0.47781
 Alpha virt. eigenvalues --    0.17930   0.24048   0.28854   0.35566   0.78102
 Alpha virt. eigenvalues --    0.82567   0.83043   0.85568   0.89457   0.92017
 Alpha virt. eigenvalues --    1.15522   1.19962   1.20430   1.33853   2.51450

 Mulliken charges:
               1
     1  O   -0.767346
     2  H    0.407405
     3  H    0.357723
     4  O   -0.763972
     5  H    0.389588
     6  H    0.376602
 Sum of Mulliken charges =   0.00000

 Dipole moment (field-independent basis, Debye):
    X=             -2.8491    Y=             -4.3432    Z=              0.0000  Tot=              5.1943
 Quadrupole moment (field-independent basis, Debye-Ang):
   XX=             -9.7767   YY=             -7.7192   ZZ=            -15.0005
   XY=             -4.3530   XZ=              0.0000   YZ=             -0.0000

 9939\MP4DQ=-33.8977323\MP4SDQ=-33.8998162\CCSD=-33.9008385\CCSD(T)=-33
 Normal termination of Gaussian 16 at Sun Dec 10 06:54:56 2023.
