 Gaussian 16, Revision A.03,
 Gaussian 16:  ES64L-G16RevA.03 25-Dec-2016

 ------------------
 #p CCSD(T)/CEP-31G
 ------------------

 -----------
 H2O_H2O_742
 -----------
 Symbolic Z-matrix:
 Charge =  0 Multiplicity = 1

                         Standard orientation:
 ---------------------------------------------------------------------
 Center     Atomic      Atomic             Coordinates (Angstroms)
 Number     Number       Type             X           Y           Z
 ---------------------------------------------------------------------
      1          8           0        0.037584    1.401092   -0.000000
      2          1           0        0.033992    0.418497   -0.000000
      3          1           0       -0.890738    1.723153   -0.000000
      4          8           0        0.037584   -1.222243    0.000000
      5          1           0        0.917258   -1.660054    0.000000
      6          1           0       -0.661852   -1.912385    0.000000
 ---------------------------------------------------------------------

 SCF Done:  E(RHF) =  -33.6611438882     A.U. after   11 cycles
 E2 =    -0.2289656879D+00 EUMP2 =    -0.33890109576088D+02
 CCSD(T)
 CCSD(T)= -0.33906161751D+02

 The electronic state is 1-A'.
 Alpha  occ. eigenvalues --   -1.39892  -1.30173  -0.75362  -0.69351  -0.59164
 Alpha  occ. eigenvalues --   -0.54601  -0.49401  -0.44759
 Alpha virt. eigenvalues --    0.17400   0.27414   0.27509   0.50262   0.74613
 Alpha virt. eigenvalues --    0.75495   0.85737   0.87992   0.96237   0.99792
 Alpha virt. eigenvalues --    1.15453   1.18319   1.23905   1.37086   2.59828

 Mulliken charges:
               1
     1  O   -0.783407
     2  H    0.431271
     3  H    0.342715
     4  O   -0.827366
     5  H    0.415712
     6  H    0.421076
 Sum of Mulliken charges =  -0.00000

 Dipole moment (field-independent basis, Debye):
    X=             -1.6381    Y=             -4.8704    Z=              0.0000  Tot=              5.1384
 Quadrupole moment (field-independent basis, Debye-Ang):
   XX=             -9.3427   YY=             -9.2550   ZZ=            -15.0191
   XY=             -4.1548   XZ=              0.0000   YZ=             -0.0000

 29\MP4DQ=-33.9002584\MP4SDQ=-33.9023997\CCSD=-33.9032685\CCSD(T)=-33.9
 Normal termination of Gaussian 16 at Sun Dec 10 06:32:28 2023.
