 Gaussian 16, Revision A.03,
 Gaussian 16:  ES64L-G16RevA.03 25-Dec-2016

 ------------------
 #p CCSD(T)/CEP-31G
 ------------------

 ------------
 H2O_H2O_2471
 ------------
 Symbolic Z-matrix:
 Charge =  0 Multiplicity = 1

                         Standard orientation:
 ---------------------------------------------------------------------
 Center     Atomic      Atomic             Coordinates (Angstroms)
 Number     Number       Type             X           Y           Z
 ---------------------------------------------------------------------
      1          8           0       -0.023239    2.084545    0.000000
      2          1           0       -0.020279    1.101948    0.000000
      3          1           0        0.905289    2.406010    0.000000
      4          8           0       -0.023239   -1.914175    0.000000
      5          1           0       -0.986379   -2.108774    0.000000
      6          1           0        0.473196   -2.762147    0.000000
 ---------------------------------------------------------------------

 SCF Done:  E(RHF) =  -33.6568719483     A.U. after   11 cycles
 E2 =    -0.2283998779D+00 EUMP2 =    -0.33885271826197D+02
 CCSD(T)
 CCSD(T)= -0.33902164911D+02

 The electronic state is 1-A'.
 Alpha  occ. eigenvalues --   -1.36993  -1.33744  -0.72650  -0.69390  -0.57043
 Alpha  occ. eigenvalues --   -0.53607  -0.51634  -0.48392
 Alpha virt. eigenvalues --    0.18252   0.23050   0.29288   0.33242   0.78877
 Alpha virt. eigenvalues --    0.82135   0.83239   0.85011   0.86770   0.88082
 Alpha virt. eigenvalues --    1.16048   1.19800   1.20551   1.30046   2.54631

 Mulliken charges:
               1
     1  O   -0.762111
     2  H    0.393571
     3  H    0.366851
     4  O   -0.757823
     5  H    0.379649
     6  H    0.379862
 Sum of Mulliken charges =  -0.00000

 Dipole moment (field-independent basis, Debye):
    X=              1.0517    Y=             -4.1220    Z=              0.0000  Tot=              4.2541
 Quadrupole moment (field-independent basis, Debye-Ang):
   XX=             -9.5861   YY=             -7.4301   ZZ=            -14.9984
   XY=              6.8469   XZ=              0.0000   YZ=              0.0000

 98\MP4DQ=-33.8964948\MP4SDQ=-33.8985514\CCSD=-33.8995814\CCSD(T)=-33.9
 Normal termination of Gaussian 16 at Sun Dec 10 07:06:57 2023.
