 Gaussian 16, Revision A.03,
 Gaussian 16:  ES64L-G16RevA.03 25-Dec-2016

 ------------------
 #p CCSD(T)/CEP-31G
 ------------------

 ------------
 H2O_H2O_2087
 ------------
 Symbolic Z-matrix:
 Charge =  0 Multiplicity = 1

                         Standard orientation:
 ---------------------------------------------------------------------
 Center     Atomic      Atomic             Coordinates (Angstroms)
 Number     Number       Type             X           Y           Z
 ---------------------------------------------------------------------
      1          8           0        0.056018    1.939580   -0.000000
      2          1           0        0.054322    0.956980   -0.000000
      3          1           0       -0.872924    2.259850   -0.000000
      4          8           0        0.056018   -1.760707    0.000000
      5          1           0        0.749622   -2.456709    0.000000
      6          1           0       -0.827309   -2.191103    0.000000
 ---------------------------------------------------------------------

 SCF Done:  E(RHF) =  -33.6577215951     A.U. after   11 cycles
 E2 =    -0.2285732644D+00 EUMP2 =    -0.33886294859562D+02
 CCSD(T)
 CCSD(T)= -0.33903181308D+02

 The electronic state is 1-A'.
 Alpha  occ. eigenvalues --   -1.37317  -1.33245  -0.72973  -0.68874  -0.57473
 Alpha  occ. eigenvalues --   -0.53071  -0.51968  -0.47885
 Alpha virt. eigenvalues --    0.18135   0.23745   0.29017   0.34742   0.78410
 Alpha virt. eigenvalues --    0.82784   0.83219   0.85673   0.88750   0.89230
 Alpha virt. eigenvalues --    1.15752   1.20201   1.20260   1.32212   2.52230

 Mulliken charges:
               1
     1  O   -0.766192
     2  H    0.404045
     3  H    0.359924
     4  O   -0.761111
     5  H    0.386082
     6  H    0.377252
 Sum of Mulliken charges =  -0.00000

 Dipole moment (field-independent basis, Debye):
    X=             -2.5289    Y=             -4.3926    Z=              0.0000  Tot=              5.0686
 Quadrupole moment (field-independent basis, Debye-Ang):
   XX=             -9.5806   YY=             -7.4178   ZZ=            -15.0002
   XY=             -4.8066   XZ=              0.0000   YZ=             -0.0000

 5\MP4DQ=-33.8974751\MP4SDQ=-33.8995476\CCSD=-33.9005727\CCSD(T)=-33.90
 Normal termination of Gaussian 16 at Sun Dec 10 06:58:19 2023.
