 Gaussian 16, Revision A.03,
 Gaussian 16:  ES64L-G16RevA.03 25-Dec-2016

 ------------------
 #p CCSD(T)/CEP-31G
 ------------------

 ------------
 H2O_H2O_4190
 ------------
 Symbolic Z-matrix:
 Charge =  0 Multiplicity = 1

                         Standard orientation:
 ---------------------------------------------------------------------
 Center     Atomic      Atomic             Coordinates (Angstroms)
 Number     Number       Type             X           Y           Z
 ---------------------------------------------------------------------
      1          8           0        0.044832    2.778063   -0.000000
      2          1           0        0.043313    1.795463   -0.000000
      3          1           0       -0.884167    3.098166    0.000000
      4          8           0        0.044832   -2.597638   -0.000000
      5          1           0        0.860991   -3.144804   -0.000000
      6          1           0       -0.737448   -3.192233    0.000000
 ---------------------------------------------------------------------

 SCF Done:  E(RHF) =  -33.6535929721     A.U. after   11 cycles
 E2 =    -0.2282920309D+00 EUMP2 =    -0.33881885002942D+02
 CCSD(T)
 CCSD(T)= -0.33898834100D+02

 The electronic state is 1-A'.
 Alpha  occ. eigenvalues --   -1.36320  -1.34557  -0.71960  -0.70186  -0.56159
 Alpha  occ. eigenvalues --   -0.54348  -0.50918  -0.49157
 Alpha virt. eigenvalues --    0.19516   0.21383   0.29799   0.31659   0.79637
 Alpha virt. eigenvalues --    0.81354   0.82442   0.84352   0.85666   0.87466
 Alpha virt. eigenvalues --    1.16659   1.18433   1.21100   1.22984   2.56618

 Mulliken charges:
               1
     1  O   -0.748161
     2  H    0.380240
     3  H    0.367885
     4  O   -0.747462
     5  H    0.374913
     6  H    0.372586
 Sum of Mulliken charges =  -0.00000

 Dipole moment (field-independent basis, Debye):
    X=             -2.0567    Y=             -4.2409    Z=              0.0000  Tot=              4.7133
 Quadrupole moment (field-independent basis, Debye-Ang):
   XX=             -9.4281   YY=             -5.3860   ZZ=            -14.9923
   XY=             -7.1970   XZ=             -0.0000   YZ=              0.0000

 37\MP4DQ=-33.8932022\MP4SDQ=-33.8952259\CCSD=-33.896277\CCSD(T)=-33.89
 Normal termination of Gaussian 16 at Sun Dec 10 06:48:25 2023.
