 Gaussian 16, Revision A.03,
 Gaussian 16:  ES64L-G16RevA.03 25-Dec-2016

 ------------------
 #p CCSD(T)/CEP-31G
 ------------------

 ------------
 H2O_H2O_1268
 ------------
 Symbolic Z-matrix:
 Charge =  0 Multiplicity = 1

                         Standard orientation:
 ---------------------------------------------------------------------
 Center     Atomic      Atomic             Coordinates (Angstroms)
 Number     Number       Type             X           Y           Z
 ---------------------------------------------------------------------
      1          8           0        0.033888    1.609740    0.000000
      2          1           0        0.030587    0.627144    0.000000
      3          1           0       -0.894529    1.931527    0.000000
      4          8           0        0.033888   -1.432291   -0.000000
      5          1           0        0.940425   -1.811364   -0.000000
      6          1           0       -0.618695   -2.166894   -0.000000
 ---------------------------------------------------------------------

 SCF Done:  E(RHF) =  -33.6627451949     A.U. after   11 cycles
 E2 =    -0.2288974394D+00 EUMP2 =    -0.33891642634297D+02
 CCSD(T)
 CCSD(T)= -0.33908294235D+02

 The electronic state is 1-A'.
 Alpha  occ. eigenvalues --   -1.38336  -1.31829  -0.73979  -0.68043  -0.58932
 Alpha  occ. eigenvalues --   -0.53061  -0.51549  -0.46508
 Alpha virt. eigenvalues --    0.17819   0.25859   0.28348   0.41730   0.76400
 Alpha virt. eigenvalues --    0.78998   0.85254   0.86260   0.91935   1.01347
 Alpha virt. eigenvalues --    1.15226   1.18700   1.22127   1.34862   2.50327

 Mulliken charges:
               1
     1  O   -0.785678
     2  H    0.428124
     3  H    0.355618
     4  O   -0.794903
     5  H    0.396389
     6  H    0.400450
 Sum of Mulliken charges =  -0.00000

 Dipole moment (field-independent basis, Debye):
    X=             -1.5083    Y=             -4.5563    Z=             -0.0000  Tot=              4.7995
 Quadrupole moment (field-independent basis, Debye-Ang):
   XX=             -9.3962   YY=             -8.4076   ZZ=            -15.0138
   XY=             -4.8685   XZ=             -0.0000   YZ=              0.0000

 7866\MP4DQ=-33.9024922\MP4SDQ=-33.9045917\CCSD=-33.9055715\CCSD(T)=-33
 Normal termination of Gaussian 16 at Sun Dec 10 06:42:28 2023.
