 Gaussian 16, Revision A.03,
 Gaussian 16:  ES64L-G16RevA.03 25-Dec-2016

 ------------------
 #p CCSD(T)/CEP-31G
 ------------------

 ------------
 H2O_H2O_1117
 ------------
 Symbolic Z-matrix:
 Charge =  0 Multiplicity = 1

                         Standard orientation:
 ---------------------------------------------------------------------
 Center     Atomic      Atomic             Coordinates (Angstroms)
 Number     Number       Type             X           Y           Z
 ---------------------------------------------------------------------
      1          8           0        0.037550    1.550684    0.000000
      2          1           0        0.034326    0.568088    0.000000
      3          1           0       -0.890892    1.872399    0.000000
      4          8           0        0.037550   -1.371807   -0.000000
      5          1           0        0.917389   -1.809290   -0.000000
      6          1           0       -0.661627   -2.062211   -0.000000
 ---------------------------------------------------------------------

 SCF Done:  E(RHF) =  -33.6632529048     A.U. after   11 cycles
 E2 =    -0.2289886028D+00 EUMP2 =    -0.33892241507607D+02
 CCSD(T)
 CCSD(T)= -0.33908771523D+02

 The electronic state is 1-A'.
 Alpha  occ. eigenvalues --   -1.38669  -1.31413  -0.74274  -0.68066  -0.59193
 Alpha  occ. eigenvalues --   -0.53407  -0.51044  -0.46078
 Alpha virt. eigenvalues --    0.17723   0.26293   0.28134   0.43845   0.75888
 Alpha virt. eigenvalues --    0.77961   0.85977   0.86032   0.93516   1.01057
 Alpha virt. eigenvalues --    1.15188   1.18746   1.22497   1.35176   2.51450

 Mulliken charges:
               1
     1  O   -0.786931
     2  H    0.432973
     3  H    0.351935
     4  O   -0.803715
     5  H    0.401959
     6  H    0.403780
 Sum of Mulliken charges =  -0.00000

 Dipole moment (field-independent basis, Debye):
    X=             -1.6610    Y=             -4.6512    Z=             -0.0000  Tot=              4.9389
 Quadrupole moment (field-independent basis, Debye-Ang):
   XX=             -9.3679   YY=             -8.6135   ZZ=            -15.0168
   XY=             -4.5902   XZ=             -0.0000   YZ=              0.0000

 556\MP4DQ=-33.9029462\MP4SDQ=-33.9050518\CCSD=-33.9060084\CCSD(T)=-33.
 Normal termination of Gaussian 16 at Sun Dec 10 06:39:31 2023.
