 Gaussian 16, Revision A.03,
 Gaussian 16:  ES64L-G16RevA.03 25-Dec-2016

 ------------------
 #p CCSD(T)/CEP-31G
 ------------------

 ------------
 H2O_H2O_1258
 ------------
 Symbolic Z-matrix:
 Charge =  0 Multiplicity = 1

                         Standard orientation:
 ---------------------------------------------------------------------
 Center     Atomic      Atomic             Coordinates (Angstroms)
 Number     Number       Type             X           Y           Z
 ---------------------------------------------------------------------
      1          8           0        0.070234    1.605786    0.000000
      2          1           0        0.068965    0.623185    0.000000
      3          1           0       -0.858846    1.925653    0.000000
      4          8           0        0.070234   -1.435601   -0.000000
      5          1           0        0.560436   -2.287193   -0.000000
      6          1           0       -0.894306   -1.623128   -0.000000
 ---------------------------------------------------------------------

 SCF Done:  E(RHF) =  -33.6595097235     A.U. after   11 cycles
 E2 =    -0.2289938473D+00 EUMP2 =    -0.33888503570873D+02
 CCSD(T)
 CCSD(T)= -0.33905284626D+02

 The electronic state is 1-A'.
 Alpha  occ. eigenvalues --   -1.38446  -1.32290  -0.74200  -0.68305  -0.58775
 Alpha  occ. eigenvalues --   -0.53101  -0.51931  -0.46896
 Alpha virt. eigenvalues --    0.17443   0.25495   0.28085   0.41147   0.76314
 Alpha virt. eigenvalues --    0.79485   0.84998   0.85373   0.92249   1.05622
 Alpha virt. eigenvalues --    1.15086   1.18180   1.21590   1.36364   2.50339

 Mulliken charges:
               1
     1  O   -0.772901
     2  H    0.422111
     3  H    0.348493
     4  O   -0.789035
     5  H    0.411170
     6  H    0.380162
 Sum of Mulliken charges =   0.00000

 Dipole moment (field-independent basis, Debye):
    X=             -3.1063    Y=             -4.3954    Z=             -0.0000  Tot=              5.3822
 Quadrupole moment (field-independent basis, Debye-Ang):
   XX=            -10.0336   YY=             -8.5310   ZZ=            -15.0060
   XY=             -3.7290   XZ=             -0.0000   YZ=              0.0000

 7406\MP4DQ=-33.8994404\MP4SDQ=-33.9015726\CCSD=-33.9025607\CCSD(T)=-33
 Normal termination of Gaussian 16 at Sun Dec 10 06:42:16 2023.
