 Gaussian 16, Revision A.03,
 Gaussian 16:  ES64L-G16RevA.03 25-Dec-2016

 ------------------
 #p CCSD(T)/CEP-31G
 ------------------

 -----------
 H2O_H2O_320
 -----------
 Symbolic Z-matrix:
 Charge =  0 Multiplicity = 1

                         Standard orientation:
 ---------------------------------------------------------------------
 Center     Atomic      Atomic             Coordinates (Angstroms)
 Number     Number       Type             X           Y           Z
 ---------------------------------------------------------------------
      1          8           0        0.026872    1.228448    0.000000
      2          1           0        0.021945    0.245859    0.000000
      3          1           0       -0.901012    1.551771   -0.000000
      4          8           0        0.026872   -1.055356    0.000000
      5          1           0        0.974705   -1.314427    0.000000
      6          1           0       -0.525589   -1.867941   -0.000000
 ---------------------------------------------------------------------

 SCF Done:  E(RHF) =  -33.6380214983     A.U. after   11 cycles
 E2 =    -0.2279924752D+00 EUMP2 =    -0.33866013973547D+02
 CCSD(T)
 CCSD(T)= -0.33881191848D+02

 The electronic state is 1-A'.
 Alpha  occ. eigenvalues --   -1.42793  -1.28239  -0.78669  -0.72977  -0.57302
 Alpha  occ. eigenvalues --   -0.56894  -0.46370  -0.42576
 Alpha virt. eigenvalues --    0.16963   0.25913   0.29216   0.58717   0.73590
 Alpha virt. eigenvalues --    0.74368   0.87589   0.90436   0.93916   1.01151
 Alpha virt. eigenvalues --    1.14973   1.19990   1.27594   1.36893   2.81418

 Mulliken charges:
               1
     1  O   -0.762252
     2  H    0.369770
     3  H    0.331314
     4  O   -0.831288
     5  H    0.429595
     6  H    0.462862
 Sum of Mulliken charges =   0.00000

 Dipole moment (field-independent basis, Debye):
    X=             -1.1625    Y=             -5.2012    Z=             -0.0000  Tot=              5.3296
 Quadrupole moment (field-independent basis, Debye-Ang):
   XX=             -9.4096   YY=            -10.0696   ZZ=            -14.9842
   XY=             -3.7847   XZ=              0.0000   YZ=             -0.0000

 MP4DQ=-33.8751507\MP4SDQ=-33.8773851\CCSD=-33.8781075\CCSD(T)=-33.8811
 Normal termination of Gaussian 16 at Sun Dec 10 06:24:22 2023.
