 Gaussian 16, Revision A.03,
 Gaussian 16:  ES64L-G16RevA.03 25-Dec-2016

 ------------------
 #p CCSD(T)/CEP-31G
 ------------------

 -----------
 H2O_H2O_179
 -----------
 Symbolic Z-matrix:
 Charge =  0 Multiplicity = 1

                         Standard orientation:
 ---------------------------------------------------------------------
 Center     Atomic      Atomic             Coordinates (Angstroms)
 Number     Number       Type             X           Y           Z
 ---------------------------------------------------------------------
      1          8           0        0.082836   -1.168444    0.000000
      2          1           0        0.082047   -0.185843    0.000000
      3          1           0       -0.846401   -1.487857    0.000000
      4          8           0        0.082836    1.013996    0.000000
      5          1           0        0.336390    1.963320    0.000000
      6          1           0       -0.897408    0.945970    0.000000
 ---------------------------------------------------------------------

 SCF Done:  E(RHF) =  -33.6043804252     A.U. after   11 cycles
 E2 =    -0.2281846474D+00 EUMP2 =    -0.33832565072527D+02
 CCSD(T)
 CCSD(T)= -0.33847961481D+02

 The electronic state is 1-A'.
 Alpha  occ. eigenvalues --   -1.45081  -1.29078  -0.82651  -0.72277  -0.58011
 Alpha  occ. eigenvalues --   -0.56537  -0.47037  -0.43168
 Alpha virt. eigenvalues --    0.16071   0.23742   0.29633   0.59557   0.73145
 Alpha virt. eigenvalues --    0.75278   0.88512   0.90276   0.97021   1.08713
 Alpha virt. eigenvalues --    1.12081   1.22308   1.26297   1.43187   2.97059

 Mulliken charges:
               1
     1  O   -0.694949
     2  H    0.282639
     3  H    0.307498
     4  O   -0.786137
     5  H    0.495862
     6  H    0.395087
 Sum of Mulliken charges =  -0.00000

 Dipole moment (field-independent basis, Debye):
    X=             -3.4096    Y=              4.9544    Z=              0.0000  Tot=              6.0143
 Quadrupole moment (field-independent basis, Debye-Ang):
   XX=            -10.6569   YY=            -10.2601   ZZ=            -14.9252
   XY=              2.7417   XZ=              0.0000   YZ=              0.0000

 345\MP4DQ=-33.8416299\MP4SDQ=-33.8441016\CCSD=-33.8447953\CCSD(T)=-33.
 Normal termination of Gaussian 16 at Sun Dec 10 06:21:34 2023.
