 Gaussian 16, Revision A.03,
 Gaussian 16:  ES64L-G16RevA.03 25-Dec-2016

 ------------------
 #p CCSD(T)/CEP-31G
 ------------------

 ----------
 H2O_H2O_10
 ----------
 Symbolic Z-matrix:
 Charge =  0 Multiplicity = 1

                         Standard orientation:
 ---------------------------------------------------------------------
 Center     Atomic      Atomic             Coordinates (Angstroms)
 Number     Number       Type             X           Y           Z
 ---------------------------------------------------------------------
      1          8           0        0.063357    1.109993    0.000000
      2          1           0        0.060890    0.127395    0.000000
      3          1           0       -0.865333    1.430992    0.000000
      4          8           0        0.063357   -0.934660   -0.000000
      5          1           0        0.659568   -1.715709   -0.000000
      6          1           0       -0.868835   -1.245344   -0.000000
 ---------------------------------------------------------------------

 SCF Done:  E(RHF) =  -33.5774327022     A.U. after   11 cycles
 E2 =    -0.2274252013D+00 EUMP2 =    -0.33804857903495D+02
 CCSD(T)
 CCSD(T)= -0.33819346209D+02

 The electronic state is 1-A'.
 Alpha  occ. eigenvalues --   -1.47387  -1.26570  -0.83157  -0.78012  -0.59842
 Alpha  occ. eigenvalues --   -0.53672  -0.43055  -0.40331
 Alpha virt. eigenvalues --    0.15851   0.24093   0.30782   0.62401   0.73101
 Alpha virt. eigenvalues --    0.73711   0.87252   0.92188   0.92243   1.09091
 Alpha virt. eigenvalues --    1.10582   1.18453   1.30605   1.37464   3.06726

 Mulliken charges:
               1
     1  O   -0.722784
     2  H    0.254192
     3  H    0.292192
     4  O   -0.740766
     5  H    0.486473
     6  H    0.430693
 Sum of Mulliken charges =   0.00000

 Dipole moment (field-independent basis, Debye):
    X=             -2.5069    Y=             -5.7886    Z=             -0.0000  Tot=              6.3081
 Quadrupole moment (field-independent basis, Debye-Ang):
   XX=             -9.6654   YY=            -10.8637   ZZ=            -14.8934
   XY=             -3.1218   XZ=             -0.0000   YZ=              0.0000

 48\MP4DQ=-33.8130109\MP4SDQ=-33.8154891\CCSD=-33.8160461\CCSD(T)=-33.8
 Normal termination of Gaussian 16 at Sun Dec 10 06:18:13 2023.
