 Gaussian 16, Revision A.03,
 Gaussian 16:  ES64L-G16RevA.03 25-Dec-2016

 ------------------
 #p CCSD(T)/CEP-31G
 ------------------

 -----------
 H2O_H2O_807
 -----------
 Symbolic Z-matrix:
 Charge =  0 Multiplicity = 1

                         Standard orientation:
 ---------------------------------------------------------------------
 Center     Atomic      Atomic             Coordinates (Angstroms)
 Number     Number       Type             X           Y           Z
 ---------------------------------------------------------------------
      1          8           0        0.073578    1.424489    0.000000
      2          1           0        0.072350    0.441888    0.000000
      3          1           0       -0.855515    1.744318    0.000000
      4          8           0        0.073578   -1.257622   -0.000000
      5          1           0        0.507069   -2.139434   -0.000000
      6          1           0       -0.901158   -1.381705   -0.000000
 ---------------------------------------------------------------------

 SCF Done:  E(RHF) =  -33.6566090691     A.U. after   11 cycles
 E2 =    -0.2290138441D+00 EUMP2 =    -0.33885622913202D+02
 CCSD(T)
 CCSD(T)= -0.33902065386D+02

 The electronic state is 1-A'.
 Alpha  occ. eigenvalues --   -1.39768  -1.31261  -0.75744  -0.68769  -0.59196
 Alpha  occ. eigenvalues --   -0.54338  -0.50569  -0.45776
 Alpha virt. eigenvalues --    0.17021   0.26332   0.27514   0.47734   0.74710
 Alpha virt. eigenvalues --    0.77082   0.85228   0.87132   0.94968   1.08625
 Alpha virt. eigenvalues --    1.16455   1.20609   1.22743   1.36523   2.57719

 Mulliken charges:
               1
     1  O   -0.762188
     2  H    0.415970
     3  H    0.337379
     4  O   -0.816282
     5  H    0.439072
     6  H    0.386049
 Sum of Mulliken charges =  -0.00000

 Dipole moment (field-independent basis, Debye):
    X=             -3.1783    Y=             -4.5508    Z=             -0.0000  Tot=              5.5508
 Quadrupole moment (field-independent basis, Debye-Ang):
   XX=            -10.1828   YY=             -9.1320   ZZ=            -15.0062
   XY=             -3.4144   XZ=              0.0000   YZ=              0.0000

 22\MP4DQ=-33.8961028\MP4SDQ=-33.8983031\CCSD=-33.8992185\CCSD(T)=-33.9
 Normal termination of Gaussian 16 at Sun Dec 10 06:33:42 2023.
