 Gaussian 16, Revision A.03,
 Gaussian 16:  ES64L-G16RevA.03 25-Dec-2016

 ------------------
 #p CCSD(T)/CEP-31G
 ------------------

 ------------
 H2O_H2O_1281
 ------------
 Symbolic Z-matrix:
 Charge =  0 Multiplicity = 1

                         Standard orientation:
 ---------------------------------------------------------------------
 Center     Atomic      Atomic             Coordinates (Angstroms)
 Number     Number       Type             X           Y           Z
 ---------------------------------------------------------------------
      1          8           0        0.076782    1.611942    0.000000
      2          1           0        0.075884    0.629341    0.000000
      3          1           0       -0.852419    1.931458   -0.000000
      4          8           0        0.076782   -1.448779    0.000000
      5          1           0        0.451978   -2.356928    0.000000
      6          1           0       -0.903962   -1.509175   -0.000000
 ---------------------------------------------------------------------

 SCF Done:  E(RHF) =  -33.6579459666     A.U. after   11 cycles
 E2 =    -0.2289842751D+00 EUMP2 =    -0.33886930241687D+02
 CCSD(T)
 CCSD(T)= -0.33903795050D+02

 The electronic state is 1-A'.
 Alpha  occ. eigenvalues --   -1.38435  -1.32639  -0.74273  -0.68494  -0.58659
 Alpha  occ. eigenvalues --   -0.53055  -0.52272  -0.47225
 Alpha virt. eigenvalues --    0.17266   0.25276   0.28027   0.40470   0.76349
 Alpha virt. eigenvalues --    0.79867   0.84706   0.85239   0.91537   1.07856
 Alpha virt. eigenvalues --    1.15363   1.17654   1.21692   1.37565   2.50309

 Mulliken charges:
               1
     1  O   -0.767253
     2  H    0.414882
     3  H    0.348734
     4  O   -0.783698
     5  H    0.411134
     6  H    0.376202
 Sum of Mulliken charges =   0.00000

 Dipole moment (field-independent basis, Debye):
    X=             -3.4089    Y=             -4.2175    Z=             -0.0000  Tot=              5.4229
 Quadrupole moment (field-independent basis, Debye-Ang):
   XX=            -10.3445   YY=             -8.6494   ZZ=            -15.0019
   XY=             -3.4211   XZ=              0.0000   YZ=             -0.0000

 347\MP4DQ=-33.8979363\MP4SDQ=-33.9000837\CCSD=-33.9010781\CCSD(T)=-33.
 Normal termination of Gaussian 16 at Sun Dec 10 06:42:44 2023.
