 Gaussian 16, Revision A.03,
 Gaussian 16:  ES64L-G16RevA.03 25-Dec-2016

 ------------------
 #p CCSD(T)/CEP-31G
 ------------------

 ------------
 H2O_H2O_2143
 ------------
 Symbolic Z-matrix:
 Charge =  0 Multiplicity = 1

                         Standard orientation:
 ---------------------------------------------------------------------
 Center     Atomic      Atomic             Coordinates (Angstroms)
 Number     Number       Type             X           Y           Z
 ---------------------------------------------------------------------
      1          8           0        0.033833    1.958777    0.000000
      2          1           0        0.031147    0.976179    0.000000
      3          1           0       -0.894786    2.279982    0.000000
      4          8           0        0.033833   -1.781286   -0.000000
      5          1           0        0.940607   -2.159791   -0.000000
      6          1           0       -0.618291   -2.516298   -0.000000
 ---------------------------------------------------------------------

 SCF Done:  E(RHF) =  -33.6582038665     A.U. after   11 cycles
 E2 =    -0.2285085244D+00 EUMP2 =    -0.33886712390894D+02
 CCSD(T)
 CCSD(T)= -0.33903585823D+02

 The electronic state is 1-A'.
 Alpha  occ. eigenvalues --   -1.37241  -1.33276  -0.72892  -0.68929  -0.57416
 Alpha  occ. eigenvalues --   -0.53138  -0.51901  -0.47935
 Alpha virt. eigenvalues --    0.18210   0.23711   0.29128   0.34531   0.78499
 Alpha virt. eigenvalues --    0.82697   0.83072   0.86069   0.87662   0.89445
 Alpha virt. eigenvalues --    1.15860   1.20061   1.20509   1.32018   2.52661

 Mulliken charges:
               1
     1  O   -0.768075
     2  H    0.402274
     3  H    0.363542
     4  O   -0.762178
     5  H    0.383117
     6  H    0.381321
 Sum of Mulliken charges =   0.00000

 Dipole moment (field-independent basis, Debye):
    X=             -1.5265    Y=             -4.3452    Z=             -0.0000  Tot=              4.6056
 Quadrupole moment (field-independent basis, Debye-Ang):
   XX=             -9.4221   YY=             -7.4069   ZZ=            -15.0012
   XY=             -5.8779   XZ=             -0.0000   YZ=              0.0000

 MP4DQ=-33.8978897\MP4SDQ=-33.8999584\CCSD=-33.9009834\CCSD(T)=-33.9035
 Normal termination of Gaussian 16 at Sun Dec 10 06:59:25 2023.
