 Gaussian 16, Revision A.03,
 Gaussian 16:  ES64L-G16RevA.03 25-Dec-2016

 ------------------
 #p CCSD(T)/CEP-31G
 ------------------

 ------------
 H2O_H2O_2909
 ------------
 Symbolic Z-matrix:
 Charge =  0 Multiplicity = 1

                         Standard orientation:
 ---------------------------------------------------------------------
 Center     Atomic      Atomic             Coordinates (Angstroms)
 Number     Number       Type             X           Y           Z
 ---------------------------------------------------------------------
      1          8           0        0.066764    2.265514   -0.000000
      2          1           0        0.065743    1.282913   -0.000000
      3          1           0       -0.862398    2.585145   -0.000000
      4          8           0        0.066764   -2.092415    0.000000
      5          1           0        0.611820   -2.909984    0.000000
      6          1           0       -0.883383   -2.342866    0.000000
 ---------------------------------------------------------------------

 SCF Done:  E(RHF) =  -33.6547065375     A.U. after   11 cycles
 E2 =    -0.2283721748D+00 EUMP2 =    -0.33883078712329D+02
 CCSD(T)
 CCSD(T)= -0.33900005626D+02

 The electronic state is 1-A'.
 Alpha  occ. eigenvalues --   -1.36787  -1.34104  -0.72442  -0.69710  -0.56696
 Alpha  occ. eigenvalues --   -0.53901  -0.51398  -0.48711
 Alpha virt. eigenvalues --    0.18593   0.22271   0.29341   0.32378   0.79173
 Alpha virt. eigenvalues --    0.81787   0.82760   0.84840   0.85185   0.88088
 Alpha virt. eigenvalues --    1.16209   1.19215   1.20625   1.26334   2.55828

 Mulliken charges:
               1
     1  O   -0.752783
     2  H    0.388213
     3  H    0.363677
     4  O   -0.751036
     5  H    0.379686
     6  H    0.372242
 Sum of Mulliken charges =   0.00000

 Dipole moment (field-independent basis, Debye):
    X=             -3.0451    Y=             -4.1472    Z=              0.0000  Tot=              5.1451
 Quadrupole moment (field-independent basis, Debye-Ang):
   XX=             -9.8967   YY=             -6.9675   ZZ=            -14.9942
   XY=             -4.6645   XZ=              0.0000   YZ=             -0.0000

 2\MP4DQ=-33.894355\MP4SDQ=-33.8963963\CCSD=-33.8974354\CCSD(T)=-33.900
 Normal termination of Gaussian 16 at Sun Dec 10 06:25:21 2023.
