 Gaussian 16, Revision A.03,
 Gaussian 16:  ES64L-G16RevA.03 25-Dec-2016

 ------------------
 #p CCSD(T)/CEP-31G
 ------------------

 ------------
 H2O_H2O_2298
 ------------
 Symbolic Z-matrix:
 Charge =  0 Multiplicity = 1

                         Standard orientation:
 ---------------------------------------------------------------------
 Center     Atomic      Atomic             Coordinates (Angstroms)
 Number     Number       Type             X           Y           Z
 ---------------------------------------------------------------------
      1          8           0       -0.016668    2.010943    0.000000
      2          1           0       -0.013311    1.028348    0.000000
      3          1           0        0.911731    2.332783    0.000000
      4          8           0       -0.016668   -1.847570    0.000000
      5          1           0       -0.996940   -1.915184    0.000000
      6          1           0        0.365203   -2.752932    0.000000
 ---------------------------------------------------------------------

 SCF Done:  E(RHF) =  -33.6572318380     A.U. after   11 cycles
 E2 =    -0.2284420522D+00 EUMP2 =    -0.33885673890201D+02
 CCSD(T)
 CCSD(T)= -0.33902575052D+02

 The electronic state is 1-A'.
 Alpha  occ. eigenvalues --   -1.37107  -1.33737  -0.72778  -0.69394  -0.57186
 Alpha  occ. eigenvalues --   -0.53605  -0.51749  -0.48392
 Alpha virt. eigenvalues --    0.17958   0.23354   0.29214   0.33605   0.78699
 Alpha virt. eigenvalues --    0.82205   0.82876   0.85249   0.87751   0.88859
 Alpha virt. eigenvalues --    1.15908   1.19825   1.20529   1.32245   2.54328

 Mulliken charges:
               1
     1  O   -0.764138
     2  H    0.394425
     3  H    0.367783
     4  O   -0.759983
     5  H    0.379793
     6  H    0.382121
 Sum of Mulliken charges =  -0.00000

 Dipole moment (field-independent basis, Debye):
    X=              0.7521    Y=             -3.9721    Z=              0.0000  Tot=              4.0426
 Quadrupole moment (field-independent basis, Debye-Ang):
   XX=             -9.7596   YY=             -7.8856   ZZ=            -14.9988
   XY=              7.0245   XZ=              0.0000   YZ=              0.0000

 343\MP4DQ=-33.8968874\MP4SDQ=-33.8989538\CCSD=-33.8999814\CCSD(T)=-33.
 Normal termination of Gaussian 16 at Sun Dec 10 07:03:43 2023.
