 Gaussian 16, Revision A.03,
 Gaussian 16:  ES64L-G16RevA.03 25-Dec-2016

 ------------------
 #p CCSD(T)/CEP-31G
 ------------------

 ----------
 H2O_H2O_41
 ----------
 Symbolic Z-matrix:
 Charge =  0 Multiplicity = 1

                         Standard orientation:
 ---------------------------------------------------------------------
 Center     Atomic      Atomic             Coordinates (Angstroms)
 Number     Number       Type             X           Y           Z
 ---------------------------------------------------------------------
      1          8           0        0.041353    1.122361   -0.000000
      2          1           0        0.037094    0.139769   -0.000000
      3          1           0       -0.886750    1.445053    0.000000
      4          8           0        0.041353   -0.942631   -0.000000
      5          1           0        0.890173   -1.437615   -0.000000
      6          1           0       -0.702159   -1.585045    0.000000
 ---------------------------------------------------------------------

 SCF Done:  E(RHF) =  -33.5894885711     A.U. after   11 cycles
 E2 =    -0.2271344048D+00 EUMP2 =    -0.33816622975938D+02
 CCSD(T)
 CCSD(T)= -0.33831010807D+02

 The electronic state is 1-A'.
 Alpha  occ. eigenvalues --   -1.46639  -1.26221  -0.81225  -0.79046  -0.59528
 Alpha  occ. eigenvalues --   -0.53957  -0.42724  -0.40049
 Alpha virt. eigenvalues --    0.16161   0.24789   0.30665   0.62579   0.73196
 Alpha virt. eigenvalues --    0.73592   0.84803   0.91845   0.92355   1.06848
 Alpha virt. eigenvalues --    1.13196   1.16509   1.31104   1.36946   2.97701

 Mulliken charges:
               1
     1  O   -0.745691
     2  H    0.276590
     3  H    0.302862
     4  O   -0.750417
     5  H    0.457819
     6  H    0.458838
 Sum of Mulliken charges =   0.00000

 Dipole moment (field-independent basis, Debye):
    X=             -1.6718    Y=             -5.8577    Z=              0.0000  Tot=              6.0916
 Quadrupole moment (field-independent basis, Debye-Ang):
   XX=             -9.2510   YY=            -10.8610   ZZ=            -14.9142
   XY=             -3.2699   XZ=             -0.0000   YZ=              0.0000

 MP4DQ=-33.8248003\MP4SDQ=-33.8271738\CCSD=-33.8277329\CCSD(T)=-33.8310
 Normal termination of Gaussian 16 at Sun Dec 10 06:18:49 2023.
