 Gaussian 16, Revision A.03,
 Gaussian 16:  ES64L-G16RevA.03 25-Dec-2016

 ------------------
 #p CCSD(T)/CEP-31G
 ------------------

 ------------
 H2O_H2O_1206
 ------------
 Symbolic Z-matrix:
 Charge =  0 Multiplicity = 1

                         Standard orientation:
 ---------------------------------------------------------------------
 Center     Atomic      Atomic             Coordinates (Angstroms)
 Number     Number       Type             X           Y           Z
 ---------------------------------------------------------------------
      1          8           0        0.076784    1.582025   -0.000000
      2          1           0        0.075868    0.599424   -0.000000
      3          1           0       -0.852412    1.901558   -0.000000
      4          8           0        0.076784   -1.418865    0.000000
      5          1           0        0.451963   -2.327020    0.000000
      6          1           0       -0.903961   -1.479243    0.000000
 ---------------------------------------------------------------------

 SCF Done:  E(RHF) =  -33.6579767410     A.U. after   11 cycles
 E2 =    -0.2290043581D+00 EUMP2 =    -0.33886981099052D+02
 CCSD(T)
 CCSD(T)= -0.33903814132D+02

 The electronic state is 1-A'.
 Alpha  occ. eigenvalues --   -1.38594  -1.32490  -0.74459  -0.68443  -0.58797
 Alpha  occ. eigenvalues --   -0.53210  -0.52091  -0.47069
 Alpha virt. eigenvalues --    0.17226   0.25453   0.27918   0.41386   0.76089
 Alpha virt. eigenvalues --    0.79477   0.85029   0.85220   0.91979   1.09097
 Alpha virt. eigenvalues --    1.15926   1.17409   1.21843   1.37430   2.50613

 Mulliken charges:
               1
     1  O   -0.766964
     2  H    0.415538
     3  H    0.347333
     4  O   -0.787814
     5  H    0.414902
     6  H    0.377005
 Sum of Mulliken charges =  -0.00000

 Dipole moment (field-independent basis, Debye):
    X=             -3.3986    Y=             -4.2475    Z=              0.0000  Tot=              5.4398
 Quadrupole moment (field-independent basis, Debye-Ang):
   XX=            -10.3455   YY=             -8.7173   ZZ=            -15.0027
   XY=             -3.3992   XZ=              0.0000   YZ=             -0.0000

 436\MP4DQ=-33.8979395\MP4SDQ=-33.900095\CCSD=-33.9010819\CCSD(T)=-33.9
 Normal termination of Gaussian 16 at Sun Dec 10 06:41:15 2023.
