 Gaussian 16, Revision A.03,
 Gaussian 16:  ES64L-G16RevA.03 25-Dec-2016

 ------------------
 #p CCSD(T)/CEP-31G
 ------------------

 ------------
 H2O_H2O_3736
 ------------
 Symbolic Z-matrix:
 Charge =  0 Multiplicity = 1

                         Standard orientation:
 ---------------------------------------------------------------------
 Center     Atomic      Atomic             Coordinates (Angstroms)
 Number     Number       Type             X           Y           Z
 ---------------------------------------------------------------------
      1          8           0        0.059630    2.596956   -0.000000
      2          1           0        0.058503    1.614355   -0.000000
      3          1           0       -0.869497    2.916689   -0.000000
      4          8           0        0.059630   -2.419496    0.000000
      5          1           0        0.706656   -3.158998    0.000000
      6          1           0       -0.849739   -2.791725    0.000000
 ---------------------------------------------------------------------

 SCF Done:  E(RHF) =  -33.6537620759     A.U. after   11 cycles
 E2 =    -0.2283022205D+00 EUMP2 =    -0.33882064296444D+02
 CCSD(T)
 CCSD(T)= -0.33899008336D+02

 The electronic state is 1-A'.
 Alpha  occ. eigenvalues --   -1.36450  -1.34441  -0.72094  -0.70061  -0.56300
 Alpha  occ. eigenvalues --   -0.54230  -0.51049  -0.49041
 Alpha virt. eigenvalues --    0.19306   0.21573   0.29666   0.31816   0.79513
 Alpha virt. eigenvalues --    0.81465   0.82290   0.84495   0.85504   0.87645
 Alpha virt. eigenvalues --    1.16537   1.18594   1.20956   1.23391   2.56506

 Mulliken charges:
               1
     1  O   -0.748826
     2  H    0.382291
     3  H    0.366395
     4  O   -0.748123
     5  H    0.376335
     6  H    0.371928
 Sum of Mulliken charges =  -0.00000

 Dipole moment (field-independent basis, Debye):
    X=             -2.7317    Y=             -4.1912    Z=              0.0000  Tot=              5.0028
 Quadrupole moment (field-independent basis, Debye-Ang):
   XX=             -9.6724   YY=             -6.0164   ZZ=            -14.9925
   XY=             -5.6545   XZ=              0.0000   YZ=             -0.0000

 6259\MP4DQ=-33.8933748\MP4SDQ=-33.8954005\CCSD=-33.8964495\CCSD(T)=-33
 Normal termination of Gaussian 16 at Sun Dec 10 06:40:14 2023.
