 Gaussian 16, Revision A.03,
 Gaussian 16:  ES64L-G16RevA.03 25-Dec-2016

 ------------------
 #p CCSD(T)/CEP-31G
 ------------------

 ------------
 H2O_H2O_2651
 ------------
 Symbolic Z-matrix:
 Charge =  0 Multiplicity = 1

                         Standard orientation:
 ---------------------------------------------------------------------
 Center     Atomic      Atomic             Coordinates (Angstroms)
 Number     Number       Type             X           Y           Z
 ---------------------------------------------------------------------
      1          8           0        0.090685   -2.147112    0.000000
      2          1           0        0.090593   -1.164511    0.000000
      3          1           0       -0.838778   -2.465866    0.000000
      4          8           0        0.090685    2.008405    0.000000
      5          1           0        0.154858    2.988910    0.000000
      6          1           0       -0.857635    1.751123    0.000000
 ---------------------------------------------------------------------

 SCF Done:  E(RHF) =  -33.6528333069     A.U. after   11 cycles
 E2 =    -0.2285076362D+00 EUMP2 =    -0.33881340943154D+02
 CCSD(T)
 CCSD(T)= -0.33898336605D+02

 The electronic state is 1-A'.
 Alpha  occ. eigenvalues --   -1.36980  -1.34693  -0.72673  -0.70270  -0.56792
 Alpha  occ. eigenvalues --   -0.54422  -0.51556  -0.49263
 Alpha virt. eigenvalues --    0.17227   0.22478   0.29120   0.32012   0.78997
 Alpha virt. eigenvalues --    0.81319   0.82763   0.84289   0.86320   0.87799
 Alpha virt. eigenvalues --    1.15582   1.18792   1.20506   1.28994   2.56071

 Mulliken charges:
               1
     1  O   -0.746037
     2  H    0.382594
     3  H    0.362614
     4  O   -0.746075
     5  H    0.380796
     6  H    0.366109
 Sum of Mulliken charges =  -0.00000

 Dipole moment (field-independent basis, Debye):
    X=             -4.1381    Y=              3.3416    Z=              0.0000  Tot=              5.3189
 Quadrupole moment (field-independent basis, Debye-Ang):
   XX=            -11.1447   YY=             -9.1885   ZZ=            -14.9888
   XY=              2.5544   XZ=              0.0000   YZ=              0.0000

 172\MP4DQ=-33.8926566\MP4SDQ=-33.8947113\CCSD=-33.8957506\CCSD(T)=-33.
 Normal termination of Gaussian 16 at Sun Dec 10 06:20:44 2023.
