 Gaussian 16, Revision A.03,
 Gaussian 16:  ES64L-G16RevA.03 25-Dec-2016

 ------------------
 #p CCSD(T)/CEP-31G
 ------------------

 ---------
 H2O_H2O_0
 ---------
 Symbolic Z-matrix:
 Charge =  0 Multiplicity = 1

                         Standard orientation:
 ---------------------------------------------------------------------
 Center     Atomic      Atomic             Coordinates (Angstroms)
 Number     Number       Type             X           Y           Z
 ---------------------------------------------------------------------
      1          8           0        0.092949   -1.086872    0.000000
      2          1           0        0.092949   -0.104270    0.000000
      3          1           0       -0.836544   -1.405538    0.000000
      4          8           0        0.092949    0.954085    0.000000
      5          1           0        0.092949    1.936686    0.000000
      6          1           0       -0.836544    0.635418    0.000000
 ---------------------------------------------------------------------

 SCF Done:  E(RHF) =  -33.5355908290     A.U. after   11 cycles
 E2 =    -0.2285733456D+00 EUMP2 =    -0.33764164174572D+02
 CCSD(T)
 CCSD(T)= -0.33779317513D+02

 The electronic state is 1-A'.
 Alpha  occ. eigenvalues --   -1.49540  -1.29189  -0.87679  -0.71854  -0.59765
 Alpha  occ. eigenvalues --   -0.55839  -0.46590  -0.43162
 Alpha virt. eigenvalues --    0.15880   0.21989   0.30427   0.60198   0.72822
 Alpha virt. eigenvalues --    0.76012   0.90414   0.91123   0.95815   1.08151
 Alpha virt. eigenvalues --    1.11236   1.20994   1.28260   1.53907   2.98902

 Mulliken charges:
               1
     1  O   -0.635555
     2  H    0.103402
     3  H    0.297412
     4  O   -0.637681
     5  H    0.493702
     6  H    0.378721
 Sum of Mulliken charges =  -0.00000

 Dipole moment (field-independent basis, Debye):
    X=             -3.8165    Y=              4.7229    Z=              0.0000  Tot=              6.0722
 Quadrupole moment (field-independent basis, Debye-Ang):
   XX=            -11.2974   YY=            -10.8302   ZZ=            -14.8354
   XY=              2.0176   XZ=              0.0000   YZ=              0.0000

 MP4DQ=-33.7726182\MP4SDQ=-33.7753707\CCSD=-33.7759022\CCSD(T)=-33.7793
 Normal termination of Gaussian 16 at Sun Dec 10 06:18:01 2023.
