 Gaussian 16, Revision A.03,
 Gaussian 16:  ES64L-G16RevA.03 25-Dec-2016

 ------------------
 #p CCSD(T)/CEP-31G
 ------------------

 ------------
 H2O_H2O_1955
 ------------
 Symbolic Z-matrix:
 Charge =  0 Multiplicity = 1

                         Standard orientation:
 ---------------------------------------------------------------------
 Center     Atomic      Atomic             Coordinates (Angstroms)
 Number     Number       Type             X           Y           Z
 ---------------------------------------------------------------------
      1          8           0        0.079862    1.878944    0.000000
      2          1           0        0.079244    0.896343    0.000000
      3          1           0       -0.849430    2.198195   -0.000000
      4          8           0        0.079862   -1.719903   -0.000000
      5          1           0        0.395124   -2.650556   -0.000000
      6          1           0       -0.902733   -1.716306   -0.000000
 ---------------------------------------------------------------------

 SCF Done:  E(RHF) =  -33.6556382944     A.U. after   11 cycles
 E2 =    -0.2287109752D+00 EUMP2 =    -0.33884349269672D+02
 CCSD(T)
 CCSD(T)= -0.33901323462D+02

 The electronic state is 1-A'.
 Alpha  occ. eigenvalues --   -1.37494  -1.33721  -0.73216  -0.69299  -0.57515
 Alpha  occ. eigenvalues --   -0.53470  -0.52101  -0.48317
 Alpha virt. eigenvalues --    0.17410   0.23728   0.28750   0.34685   0.78152
 Alpha virt. eigenvalues --    0.82520   0.82555   0.85063   0.88759   0.93470
 Alpha virt. eigenvalues --    1.15356   1.19187   1.20637   1.35867   2.52660

 Mulliken charges:
               1
     1  O   -0.758787
     2  H    0.398981
     3  H    0.357472
     4  O   -0.757968
     5  H    0.389364
     6  H    0.370939
 Sum of Mulliken charges =   0.00000

 Dipole moment (field-independent basis, Debye):
    X=             -3.6111    Y=             -3.9333    Z=             -0.0000  Tot=              5.3395
 Quadrupole moment (field-independent basis, Debye-Ang):
   XX=            -10.4971   YY=             -8.3149   ZZ=            -14.9948
   XY=             -3.4106   XZ=              0.0000   YZ=             -0.0000

 6\MP4DQ=-33.8955755\MP4SDQ=-33.8976721\CCSD=-33.8986972\CCSD(T)=-33.90
 Normal termination of Gaussian 16 at Sun Dec 10 06:55:47 2023.
