 Gaussian 16, Revision A.03,
 Gaussian 16:  ES64L-G16RevA.03 25-Dec-2016

 ------------------
 #p CCSD(T)/CEP-31G
 ------------------

 ------------
 H2O_H2O_3733
 ------------
 Symbolic Z-matrix:
 Charge =  0 Multiplicity = 1

                         Standard orientation:
 ---------------------------------------------------------------------
 Center     Atomic      Atomic             Coordinates (Angstroms)
 Number     Number       Type             X           Y           Z
 ---------------------------------------------------------------------
      1          8           0        0.070191    2.593043    0.000000
      2          1           0        0.069421    1.610441    0.000000
      3          1           0       -0.859052    2.912437    0.000000
      4          8           0        0.070191   -2.422786    0.000000
      5          1           0        0.560825   -3.274128    0.000000
      6          1           0       -0.894255   -2.610804    0.000000
 ---------------------------------------------------------------------

 SCF Done:  E(RHF) =  -33.6534039236     A.U. after   11 cycles
 E2 =    -0.2283165053D+00 EUMP2 =    -0.33881720428908D+02
 CCSD(T)
 CCSD(T)= -0.33898675040D+02

 The electronic state is 1-A'.
 Alpha  occ. eigenvalues --   -1.36462  -1.34550  -0.72109  -0.70166  -0.56292
 Alpha  occ. eigenvalues --   -0.54325  -0.51055  -0.49143
 Alpha virt. eigenvalues --    0.19240   0.21466   0.29619   0.31696   0.79509
 Alpha virt. eigenvalues --    0.81369   0.82314   0.84397   0.85488   0.87595
 Alpha virt. eigenvalues --    1.16505   1.18474   1.20908   1.23332   2.56480

 Mulliken charges:
               1
     1  O   -0.747458
     2  H    0.381319
     3  H    0.366013
     4  O   -0.747139
     5  H    0.376474
     6  H    0.370791
 Sum of Mulliken charges =  -0.00000

 Dipole moment (field-independent basis, Debye):
    X=             -3.2171    Y=             -4.0221    Z=              0.0000  Tot=              5.1504
 Quadrupole moment (field-independent basis, Debye-Ang):
   XX=            -10.0260   YY=             -6.5548   ZZ=            -14.9917
   XY=             -4.7697   XZ=              0.0000   YZ=              0.0000

 2916\MP4DQ=-33.8930387\MP4SDQ=-33.8950652\CCSD=-33.896115\CCSD(T)=-33.
 Normal termination of Gaussian 16 at Sun Dec 10 06:40:10 2023.
