 Gaussian 16, Revision A.03,
 Gaussian 16:  ES64L-G16RevA.03 25-Dec-2016

 ------------------
 #p CCSD(T)/CEP-31G
 ------------------

 ------------
 H2O_H2O_3583
 ------------
 Symbolic Z-matrix:
 Charge =  0 Multiplicity = 1

                         Standard orientation:
 ---------------------------------------------------------------------
 Center     Atomic      Atomic             Coordinates (Angstroms)
 Number     Number       Type             X           Y           Z
 ---------------------------------------------------------------------
      1          8           0        0.070193    2.533210   -0.000000
      2          1           0        0.069404    1.550609   -0.000000
      3          1           0       -0.859044    2.852622    0.000000
      4          8           0        0.070193   -2.362956   -0.000000
      5          1           0        0.560811   -3.214308   -0.000000
      6          1           0       -0.894257   -2.550955    0.000000
 ---------------------------------------------------------------------

 SCF Done:  E(RHF) =  -33.6535547459     A.U. after   11 cycles
 E2 =    -0.2283198712D+00 EUMP2 =    -0.33881874617055D+02
 CCSD(T)
 CCSD(T)= -0.33898825196D+02

 The electronic state is 1-A'.
 Alpha  occ. eigenvalues --   -1.36510  -1.34493  -0.72159  -0.70107  -0.56349
 Alpha  occ. eigenvalues --   -0.54271  -0.51105  -0.49087
 Alpha virt. eigenvalues --    0.19142   0.21570   0.29571   0.31778   0.79462
 Alpha virt. eigenvalues --    0.81422   0.82275   0.84458   0.85430   0.87672
 Alpha virt. eigenvalues --    1.16460   1.18569   1.20855   1.23612   2.56448

 Mulliken charges:
               1
     1  O   -0.748047
     2  H    0.382194
     3  H    0.365662
     4  O   -0.747644
     5  H    0.376941
     6  H    0.370894
 Sum of Mulliken charges =   0.00000

 Dipole moment (field-independent basis, Debye):
    X=             -3.2150    Y=             -4.0296    Z=              0.0000  Tot=              5.1550
 Quadrupole moment (field-independent basis, Debye-Ang):
   XX=            -10.0265   YY=             -6.6602   ZZ=            -14.9920
   XY=             -4.7060   XZ=             -0.0000   YZ=              0.0000

 4404\MP4DQ=-33.8931881\MP4SDQ=-33.8952158\CCSD=-33.8962643\CCSD(T)=-33
 Normal termination of Gaussian 16 at Sun Dec 10 06:37:29 2023.
