 Gaussian 16, Revision A.03,
 Gaussian 16:  ES64L-G16RevA.03 25-Dec-2016

 ------------------
 #p CCSD(T)/CEP-31G
 ------------------

 ------------
 H2O_H2O_2533
 ------------
 Symbolic Z-matrix:
 Charge =  0 Multiplicity = 1

                         Standard orientation:
 ---------------------------------------------------------------------
 Center     Atomic      Atomic             Coordinates (Angstroms)
 Number     Number       Type             X           Y           Z
 ---------------------------------------------------------------------
      1          8           0        0.070207    2.114377   -0.000000
      2          1           0        0.069255    1.131776   -0.000000
      3          1           0       -0.858977    2.433943   -0.000000
      4          8           0        0.070207   -1.944146    0.000000
      5          1           0        0.560684   -2.795579    0.000000
      6          1           0       -0.894274   -2.131986    0.000000
 ---------------------------------------------------------------------

 SCF Done:  E(RHF) =  -33.6552719262     A.U. after   11 cycles
 E2 =    -0.2284591098D+00 EUMP2 =    -0.33883731035988D+02
 CCSD(T)
 CCSD(T)= -0.33900661041D+02

 The electronic state is 1-A'.
 Alpha  occ. eigenvalues --   -1.37008  -1.33912  -0.72674  -0.69508  -0.56964
 Alpha  occ. eigenvalues --   -0.53706  -0.51624  -0.48521
 Alpha virt. eigenvalues --    0.18159   0.22773   0.29161   0.32932   0.78914
 Alpha virt. eigenvalues --    0.82014   0.83437   0.84981   0.85971   0.88327
 Alpha virt. eigenvalues --    1.15958   1.19542   1.20464   1.29367   2.54801

 Mulliken charges:
               1
     1  O   -0.755617
     2  H    0.392341
     3  H    0.361776
     4  O   -0.753015
     5  H    0.382138
     6  H    0.372376
 Sum of Mulliken charges =  -0.00000

 Dipole moment (field-independent basis, Debye):
    X=             -3.1932    Y=             -4.1194    Z=              0.0000  Tot=              5.2121
 Quadrupole moment (field-independent basis, Debye-Ang):
   XX=            -10.0310   YY=             -7.4094   ZZ=            -14.9950
   XY=             -4.2578   XZ=              0.0000   YZ=             -0.0000

 4\MP4DQ=-33.8949863\MP4SDQ=-33.8970434\CCSD=-33.8980768\CCSD(T)=-33.90
 Normal termination of Gaussian 16 at Sun Dec 10 06:18:36 2023.
