 Gaussian 16, Revision A.03,
 Gaussian 16:  ES64L-G16RevA.03 25-Dec-2016

 ------------------
 #p CCSD(T)/CEP-31G
 ------------------

 ------------
 H2O_H2O_3674
 ------------
 Symbolic Z-matrix:
 Charge =  0 Multiplicity = 1

                         Standard orientation:
 ---------------------------------------------------------------------
 Center     Atomic      Atomic             Coordinates (Angstroms)
 Number     Number       Type             X           Y           Z
 ---------------------------------------------------------------------
      1          8           0       -0.013498    2.557167    0.000000
      2          1           0       -0.010778    1.574569    0.000000
      3          1           0        0.915109    2.878405    0.000000
      4          8           0       -0.013498   -2.397898    0.000000
      5          1           0       -0.996096   -2.400619    0.000000
      6          1           0        0.307741   -3.326506    0.000000
 ---------------------------------------------------------------------

 SCF Done:  E(RHF) =  -33.6541400197     A.U. after   11 cycles
 E2 =    -0.2282721763D+00 EUMP2 =    -0.33882412196063D+02
 CCSD(T)
 CCSD(T)= -0.33899349151D+02

 The electronic state is 1-A'.
 Alpha  occ. eigenvalues --   -1.36445  -1.34608  -0.72092  -0.70251  -0.56312
 Alpha  occ. eigenvalues --   -0.54423  -0.51050  -0.49220
 Alpha virt. eigenvalues --    0.19195   0.21504   0.29686   0.31660   0.79508
 Alpha virt. eigenvalues --    0.81284   0.82274   0.84234   0.85495   0.87423
 Alpha virt. eigenvalues --    1.16528   1.18504   1.20955   1.23419   2.56452

 Mulliken charges:
               1
     1  O   -0.750301
     2  H    0.380185
     3  H    0.369984
     4  O   -0.749729
     5  H    0.374337
     6  H    0.375524
 Sum of Mulliken charges =  -0.00000

 Dipole moment (field-independent basis, Debye):
    X=              0.6177    Y=             -3.7573    Z=              0.0000  Tot=              3.8077
 Quadrupole moment (field-independent basis, Debye-Ang):
   XX=             -9.8737   YY=             -7.3971   ZZ=            -14.9931
   XY=              9.2539   XZ=              0.0000   YZ=              0.0000

 64\MP4DQ=-33.8937169\MP4SDQ=-33.8957419\CCSD=-33.8967906\CCSD(T)=-33.8
 Normal termination of Gaussian 16 at Sun Dec 10 06:39:06 2023.
