 Gaussian 16, Revision A.03,
 Gaussian 16:  ES64L-G16RevA.03 25-Dec-2016

 ------------------
 #p CCSD(T)/CEP-31G
 ------------------

 ------------
 H2O_H2O_2744
 ------------
 Symbolic Z-matrix:
 Charge =  0 Multiplicity = 1

                         Standard orientation:
 ---------------------------------------------------------------------
 Center     Atomic      Atomic             Coordinates (Angstroms)
 Number     Number       Type             X           Y           Z
 ---------------------------------------------------------------------
      1          8           0        0.030204    2.197073   -0.000000
      2          1           0        0.027679    1.214475   -0.000000
      3          1           0       -0.898467    2.518128   -0.000000
      4          8           0        0.030204   -2.021476    0.000000
      5          1           0        0.959845   -2.339714    0.000000
      6          1           0       -0.572324   -2.797663    0.000000
 ---------------------------------------------------------------------

 SCF Done:  E(RHF) =  -33.6561371588     A.U. after   11 cycles
 E2 =    -0.2283491141D+00 EUMP2 =    -0.33884486272903D+02
 CCSD(T)
 CCSD(T)= -0.33901381009D+02

 The electronic state is 1-A'.
 Alpha  occ. eigenvalues --   -1.36837  -1.33870  -0.72485  -0.69504  -0.56831
 Alpha  occ. eigenvalues --   -0.53720  -0.51470  -0.48506
 Alpha virt. eigenvalues --    0.18581   0.22633   0.29399   0.32754   0.79085
 Alpha virt. eigenvalues --    0.81980   0.83155   0.84523   0.85766   0.88028
 Alpha virt. eigenvalues --    1.16220   1.19568   1.20645   1.27468   2.55386

 Mulliken charges:
               1
     1  O   -0.758588
     2  H    0.390871
     3  H    0.366476
     4  O   -0.755090
     5  H    0.378863
     6  H    0.377467
 Sum of Mulliken charges =  -0.00000

 Dipole moment (field-independent basis, Debye):
    X=             -1.3720    Y=             -4.2185    Z=              0.0000  Tot=              4.4360
 Quadrupole moment (field-independent basis, Debye-Ang):
   XX=             -9.4664   YY=             -6.9479   ZZ=            -14.9972
   XY=             -6.7602   XZ=              0.0000   YZ=             -0.0000

 9738\MP4DQ=-33.8957296\MP4SDQ=-33.8977745\CCSD=-33.8988089\CCSD(T)=-33
 Normal termination of Gaussian 16 at Sun Dec 10 06:22:23 2023.
