 Gaussian 16, Revision A.03,
 Gaussian 16:  ES64L-G16RevA.03 25-Dec-2016

 ------------------
 #p CCSD(T)/CEP-31G
 ------------------

 ------------
 H2O_H2O_4748
 ------------
 Symbolic Z-matrix:
 Charge =  0 Multiplicity = 1

                         Standard orientation:
 ---------------------------------------------------------------------
 Center     Atomic      Atomic             Coordinates (Angstroms)
 Number     Number       Type             X           Y           Z
 ---------------------------------------------------------------------
      1          8           0       -0.016574    2.988208    0.000000
      2          1           0       -0.014346    2.005609    0.000000
      3          1           0        0.912194    3.308981    0.000000
      4          8           0       -0.016574   -2.824797    0.000000
      5          1           0       -0.996923   -2.891284    0.000000
      6          1           0        0.364257   -3.730597    0.000000
 ---------------------------------------------------------------------

 SCF Done:  E(RHF) =  -33.6532295351     A.U. after   11 cycles
 E2 =    -0.2282963179D+00 EUMP2 =    -0.33881525852994D+02
 CCSD(T)
 CCSD(T)= -0.33898486699D+02

 The electronic state is 1-A'.
 Alpha  occ. eigenvalues --   -1.36205  -1.34868  -0.71845  -0.70507  -0.56019
 Alpha  occ. eigenvalues --   -0.54655  -0.50798  -0.49465
 Alpha virt. eigenvalues --    0.19638   0.21014   0.29897   0.31286   0.79753
 Alpha virt. eigenvalues --    0.81057   0.82632   0.84043   0.85786   0.87134
 Alpha virt. eigenvalues --    1.16760   1.18101   1.21203   1.22582   2.56729

 Mulliken charges:
               1
     1  O   -0.746720
     2  H    0.376633
     3  H    0.370083
     4  O   -0.746388
     5  H    0.373027
     6  H    0.373365
 Sum of Mulliken charges =  -0.00000

 Dipole moment (field-independent basis, Debye):
    X=              0.7616    Y=             -3.8242    Z=              0.0000  Tot=              3.8993
 Quadrupole moment (field-independent basis, Debye-Ang):
   XX=             -9.7745   YY=             -6.4668   ZZ=            -14.9914
   XY=             10.4844   XZ=              0.0000   YZ=              0.0000

 055\MP4DQ=-33.8928525\MP4SDQ=-33.8948764\CCSD=-33.8959293\CCSD(T)=-33.
 Normal termination of Gaussian 16 at Sun Dec 10 06:58:28 2023.
