 Gaussian 16, Revision A.03,
 Gaussian 16:  ES64L-G16RevA.03 25-Dec-2016

 ------------------
 #p CCSD(T)/CEP-31G
 ------------------

 ------------
 H2O_H2O_1912
 ------------
 Symbolic Z-matrix:
 Charge =  0 Multiplicity = 1

                         Standard orientation:
 ---------------------------------------------------------------------
 Center     Atomic      Atomic             Coordinates (Angstroms)
 Number     Number       Type             X           Y           Z
 ---------------------------------------------------------------------
      1          8           0        0.056024    1.869772   -0.000000
      2          1           0        0.054262    0.887172   -0.000000
      3          1           0       -0.872896    2.190105   -0.000000
      4          8           0        0.056024   -1.690907    0.000000
      5          1           0        0.749582   -2.386956    0.000000
      6          1           0       -0.827332   -2.121243    0.000000
 ---------------------------------------------------------------------

 SCF Done:  E(RHF) =  -33.6584912063     A.U. after   11 cycles
 E2 =    -0.2286522290D+00 EUMP2 =    -0.33887143435270D+02
 CCSD(T)
 CCSD(T)= -0.33904015123D+02

 The electronic state is 1-A'.
 Alpha  occ. eigenvalues --   -1.37478  -1.33029  -0.73134  -0.68683  -0.57714
 Alpha  occ. eigenvalues --   -0.52847  -0.52139  -0.47674
 Alpha virt. eigenvalues --    0.18049   0.24125   0.28899   0.35713   0.78113
 Alpha virt. eigenvalues --    0.82604   0.83128   0.85779   0.89492   0.91310
 Alpha virt. eigenvalues --    1.15589   1.20127   1.20403   1.33212   2.51258

 Mulliken charges:
               1
     1  O   -0.769568
     2  H    0.408876
     3  H    0.358487
     4  O   -0.765068
     5  H    0.388684
     6  H    0.378590
 Sum of Mulliken charges =   0.00000

 Dipole moment (field-independent basis, Debye):
    X=             -2.5211    Y=             -4.4238    Z=              0.0000  Tot=              5.0918
 Quadrupole moment (field-independent basis, Debye-Ang):
   XX=             -9.5786   YY=             -7.6039   ZZ=            -15.0019
   XY=             -4.6862   XZ=              0.0000   YZ=             -0.0000

 5\MP4DQ=-33.89829\MP4SDQ=-33.9003691\CCSD=-33.9013905\CCSD(T)=-33.9040
 Normal termination of Gaussian 16 at Sun Dec 10 06:54:58 2023.
