 Gaussian 16, Revision A.03,
 Gaussian 16:  ES64L-G16RevA.03 25-Dec-2016

 ------------------
 #p CCSD(T)/CEP-31G
 ------------------

 ------------
 H2O_H2O_1742
 ------------
 Symbolic Z-matrix:
 Charge =  0 Multiplicity = 1

                         Standard orientation:
 ---------------------------------------------------------------------
 Center     Atomic      Atomic             Coordinates (Angstroms)
 Number     Number       Type             X           Y           Z
 ---------------------------------------------------------------------
      1          8           0        0.037508    1.799999   -0.000000
      2          1           0        0.034753    0.817401   -0.000000
      3          1           0       -0.891089    2.121269   -0.000000
      4          8           0        0.037508   -1.621086    0.000000
      5          1           0        0.917554   -2.058148    0.000000
      6          1           0       -0.661339   -2.311824    0.000000
 ---------------------------------------------------------------------

 SCF Done:  E(RHF) =  -33.6601675001     A.U. after   11 cycles
 E2 =    -0.2286907534D+00 EUMP2 =    -0.33888858253501D+02
 CCSD(T)
 CCSD(T)= -0.33905682472D+02

 The electronic state is 1-A'.
 Alpha  occ. eigenvalues --   -1.37630  -1.32712  -0.73277  -0.68448  -0.58013
 Alpha  occ. eigenvalues --   -0.52550  -0.52316  -0.47384
 Alpha virt. eigenvalues --    0.18056   0.24622   0.28843   0.36999   0.77763
 Alpha virt. eigenvalues --    0.81672   0.83589   0.86340   0.89434   0.94193
 Alpha virt. eigenvalues --    1.15503   1.19738   1.20968   1.33758   2.50477

 Mulliken charges:
               1
     1  O   -0.776451
     2  H    0.414239
     3  H    0.360040
     4  O   -0.772296
     5  H    0.388268
     6  H    0.386200
 Sum of Mulliken charges =  -0.00000

 Dipole moment (field-independent basis, Debye):
    X=             -1.6825    Y=             -4.4559    Z=              0.0000  Tot=              4.7630
 Quadrupole moment (field-independent basis, Debye-Ang):
   XX=             -9.3936   YY=             -7.7890   ZZ=            -15.0057
   XY=             -5.2795   XZ=              0.0000   YZ=             -0.0000

 084\MP4DQ=-33.8999442\MP4SDQ=-33.9020256\CCSD=-33.9030403\CCSD(T)=-33.
 Normal termination of Gaussian 16 at Sun Dec 10 06:51:46 2023.
