 Gaussian 16, Revision A.03,
 Gaussian 16:  ES64L-G16RevA.03 25-Dec-2016

 ------------------
 #p CCSD(T)/CEP-31G
 ------------------

 ------------
 H2O_H2O_1882
 ------------
 Symbolic Z-matrix:
 Charge =  0 Multiplicity = 1

                         Standard orientation:
 ---------------------------------------------------------------------
 Center     Atomic      Atomic             Coordinates (Angstroms)
 Number     Number       Type             X           Y           Z
 ---------------------------------------------------------------------
      1          8           0        0.073553    1.853304    0.000000
      2          1           0        0.072622    0.870704    0.000000
      3          1           0       -0.855638    2.172851    0.000000
      4          8           0        0.073553   -1.686393   -0.000000
      5          1           0        0.507312   -2.568073   -0.000000
      6          1           0       -0.901145   -1.810770   -0.000000
 ---------------------------------------------------------------------

 SCF Done:  E(RHF) =  -33.6568112666     A.U. after   11 cycles
 E2 =    -0.2287131494D+00 EUMP2 =    -0.33885524416019D+02
 CCSD(T)
 CCSD(T)= -0.33902464008D+02

 The electronic state is 1-A'.
 Alpha  occ. eigenvalues --   -1.37548  -1.33396  -0.73251  -0.69004  -0.57662
 Alpha  occ. eigenvalues --   -0.53162  -0.52175  -0.48008
 Alpha virt. eigenvalues --    0.17639   0.23967   0.28750   0.35381   0.78028
 Alpha virt. eigenvalues --    0.82380   0.82893   0.85295   0.89217   0.93922
 Alpha virt. eigenvalues --    1.15369   1.19463   1.20613   1.35436   2.51808

 Mulliken charges:
               1
     1  O   -0.763367
     2  H    0.404201
     3  H    0.356836
     4  O   -0.762111
     5  H    0.390884
     6  H    0.373558
 Sum of Mulliken charges =  -0.00000

 Dipole moment (field-independent basis, Debye):
    X=             -3.3170    Y=             -4.1410    Z=             -0.0000  Tot=              5.3057
 Quadrupole moment (field-independent basis, Debye-Ang):
   XX=            -10.1806   YY=             -8.0494   ZZ=            -14.9977
   XY=             -3.7943   XZ=             -0.0000   YZ=              0.0000

 8\MP4DQ=-33.8967148\MP4SDQ=-33.8988098\CCSD=-33.8998329\CCSD(T)=-33.90
 Normal termination of Gaussian 16 at Sun Dec 10 06:54:25 2023.
