 Gaussian 16, Revision A.03,
 Gaussian 16:  ES64L-G16RevA.03 25-Dec-2016

 ------------------
 #p CCSD(T)/CEP-31G
 ------------------

 ------------
 H2O_H2O_4773
 ------------
 Symbolic Z-matrix:
 Charge =  0 Multiplicity = 1

                         Standard orientation:
 ---------------------------------------------------------------------
 Center     Atomic      Atomic             Coordinates (Angstroms)
 Number     Number       Type             X           Y           Z
 ---------------------------------------------------------------------
      1          8           0       -0.016573    2.998180    0.000000
      2          1           0       -0.014353    2.015581    0.000000
      3          1           0        0.912197    3.318946    0.000000
      4          8           0       -0.016573   -2.834768    0.000000
      5          1           0       -0.996923   -2.901249    0.000000
      6          1           0        0.364251   -3.740571    0.000000
 ---------------------------------------------------------------------

 SCF Done:  E(RHF) =  -33.6532143138     A.U. after   11 cycles
 E2 =    -0.2282969697D+00 EUMP2 =    -0.33881511283457D+02
 CCSD(T)
 CCSD(T)= -0.33898472541D+02

 The electronic state is 1-A'.
 Alpha  occ. eigenvalues --   -1.36201  -1.34873  -0.71841  -0.70512  -0.56014
 Alpha  occ. eigenvalues --   -0.54660  -0.50793  -0.49470
 Alpha virt. eigenvalues --    0.19642   0.21007   0.29901   0.31279   0.79757
 Alpha virt. eigenvalues --    0.81052   0.82638   0.84038   0.85792   0.87129
 Alpha virt. eigenvalues --    1.16763   1.18094   1.21207   1.22574   2.56734

 Mulliken charges:
               1
     1  O   -0.746659
     2  H    0.376566
     3  H    0.370090
     4  O   -0.746332
     5  H    0.373002
     6  H    0.373334
 Sum of Mulliken charges =   0.00000

 Dipole moment (field-independent basis, Debye):
    X=              0.7616    Y=             -3.8237    Z=              0.0000  Tot=              3.8988
 Quadrupole moment (field-independent basis, Debye-Ang):
   XX=             -9.7746   YY=             -6.4524   ZZ=            -14.9914
   XY=             10.5197   XZ=              0.0000   YZ=              0.0000

 0913\MP4DQ=-33.8928383\MP4SDQ=-33.8948622\CCSD=-33.8959151\CCSD(T)=-33
 Normal termination of Gaussian 16 at Sun Dec 10 06:58:55 2023.
