 Gaussian 16, Revision A.03,
 Gaussian 16:  ES64L-G16RevA.03 25-Dec-2016

 ------------------
 #p CCSD(T)/CEP-31G
 ------------------

 ------------
 H2O_H2O_3978
 ------------
 Symbolic Z-matrix:
 Charge =  0 Multiplicity = 1

                         Standard orientation:
 ---------------------------------------------------------------------
 Center     Atomic      Atomic             Coordinates (Angstroms)
 Number     Number       Type             X           Y           Z
 ---------------------------------------------------------------------
      1          8           0        0.085598   -2.681542    0.000000
      2          1           0        0.085359   -1.698941    0.000000
      3          1           0       -0.843817   -3.000435    0.000000
      4          8           0        0.085598    2.531939    0.000000
      5          1           0        0.277060    3.495707    0.000000
      6          1           0       -0.888171    2.400494    0.000000
 ---------------------------------------------------------------------

 SCF Done:  E(RHF) =  -33.6525060536     A.U. after   11 cycles
 E2 =    -0.2283442371D+00 EUMP2 =    -0.33880850290740D+02
 CCSD(T)
 CCSD(T)= -0.33897831728D+02

 The electronic state is 1-A'.
 Alpha  occ. eigenvalues --   -1.36415  -1.34907  -0.72067  -0.70521  -0.56197
 Alpha  occ. eigenvalues --   -0.54654  -0.50995  -0.49485
 Alpha virt. eigenvalues --    0.19204   0.21085   0.29639   0.31233   0.79572
 Alpha virt. eigenvalues --    0.81047   0.82459   0.84061   0.85550   0.87300
 Alpha virt. eigenvalues --    1.16487   1.18076   1.20960   1.22726   2.56347

 Mulliken charges:
               1
     1  O   -0.744000
     2  H    0.377563
     3  H    0.366396
     4  O   -0.744301
     5  H    0.375724
     6  H    0.368618
 Sum of Mulliken charges =   0.00000

 Dipole moment (field-independent basis, Debye):
    X=             -3.9305    Y=              3.5258    Z=              0.0000  Tot=              5.2802
 Quadrupole moment (field-independent basis, Debye-Ang):
   XX=            -10.8045   YY=             -8.1131   ZZ=            -14.9895
   XY=              3.2682   XZ=              0.0000   YZ=              0.0000

 4471\MP4DQ=-33.8921902\MP4SDQ=-33.8942173\CCSD=-33.8952701\CCSD(T)=-33
 Normal termination of Gaussian 16 at Sun Dec 10 06:44:36 2023.
