 Gaussian 16, Revision A.03,
 Gaussian 16:  ES64L-G16RevA.03 25-Dec-2016

 ------------------
 #p CCSD(T)/CEP-31G
 ------------------

 ------------
 H2O_H2O_1296
 ------------
 Symbolic Z-matrix:
 Charge =  0 Multiplicity = 1

                         Standard orientation:
 ---------------------------------------------------------------------
 Center     Atomic      Atomic             Coordinates (Angstroms)
 Number     Number       Type             X           Y           Z
 ---------------------------------------------------------------------
      1          8           0       -0.023318    1.615846    0.000000
      2          1           0       -0.019451    0.633252    0.000000
      3          1           0        0.904914    1.938167    0.000000
      4          8           0       -0.023318   -1.445519    0.000000
      5          1           0       -0.986278   -1.641005    0.000000
      6          1           0        0.473900   -2.293033    0.000000
 ---------------------------------------------------------------------

 SCF Done:  E(RHF) =  -33.6621259572     A.U. after   11 cycles
 E2 =    -0.2287756356D+00 EUMP2 =    -0.33890901592764D+02
 CCSD(T)
 CCSD(T)= -0.33907621965D+02

 The electronic state is 1-A'.
 Alpha  occ. eigenvalues --   -1.38277  -1.32095  -0.74006  -0.68168  -0.58849
 Alpha  occ. eigenvalues --   -0.52979  -0.51839  -0.46784
 Alpha virt. eigenvalues --    0.17774   0.25737   0.28359   0.41069   0.76464
 Alpha virt. eigenvalues --    0.79374   0.84995   0.86432   0.90578   1.04884
 Alpha virt. eigenvalues --    1.15686   1.17946   1.22172   1.36020   2.50733

 Mulliken charges:
               1
     1  O   -0.784013
     2  H    0.420908
     3  H    0.359766
     4  O   -0.793950
     5  H    0.392425
     6  H    0.404864
 Sum of Mulliken charges =  -0.00000

 Dipole moment (field-independent basis, Debye):
    X=              1.0434    Y=             -4.3757    Z=              0.0000  Tot=              4.4984
 Quadrupole moment (field-independent basis, Debye-Ang):
   XX=             -9.5614   YY=             -8.4770   ZZ=            -15.0118
   XY=              5.2733   XZ=              0.0000   YZ=              0.0000

 05\MP4DQ=-33.9018137\MP4SDQ=-33.9039249\CCSD=-33.9049133\CCSD(T)=-33.9
 Normal termination of Gaussian 16 at Sun Dec 10 06:43:01 2023.
