 Gaussian 16, Revision A.03,
 Gaussian 16:  ES64L-G16RevA.03 25-Dec-2016

 ------------------
 #p CCSD(T)/CEP-31G
 ------------------

 ------------
 H2O_H2O_4406
 ------------
 Symbolic Z-matrix:
 Charge =  0 Multiplicity = 1

                         Standard orientation:
 ---------------------------------------------------------------------
 Center     Atomic      Atomic             Coordinates (Angstroms)
 Number     Number       Type             X           Y           Z
 ---------------------------------------------------------------------
      1          8           0        0.076749    2.858465   -0.000000
      2          1           0        0.076254    1.875864   -0.000000
      3          1           0       -0.852583    3.177600   -0.000000
      4          8           0        0.076749   -2.695239    0.000000
      5          1           0        0.452317   -3.603233    0.000000
      6          1           0       -0.903970   -2.756037    0.000000
 ---------------------------------------------------------------------

 SCF Done:  E(RHF) =  -33.6527060082     A.U. after   11 cycles
 E2 =    -0.2283286815D+00 EUMP2 =    -0.33881034689751D+02
 CCSD(T)
 CCSD(T)= -0.33898009393D+02

 The electronic state is 1-A'.
 Alpha  occ. eigenvalues --   -1.36300  -1.34842  -0.71945  -0.70462  -0.56090
 Alpha  occ. eigenvalues --   -0.54599  -0.50884  -0.49425
 Alpha virt. eigenvalues --    0.19483   0.21046   0.29764   0.31303   0.79675
 Alpha virt. eigenvalues --    0.81103   0.82576   0.84111   0.85697   0.87274
 Alpha virt. eigenvalues --    1.16642   1.18102   1.21082   1.22638   2.56612

 Mulliken charges:
               1
     1  O   -0.744751
     2  H    0.377604
     3  H    0.367134
     4  O   -0.744748
     5  H    0.374868
     6  H    0.369892
 Sum of Mulliken charges =  -0.00000

 Dipole moment (field-independent basis, Debye):
    X=             -3.5273    Y=             -3.8331    Z=              0.0000  Tot=              5.2091
 Quadrupole moment (field-independent basis, Debye-Ang):
   XX=            -10.3172   YY=             -6.7121   ZZ=            -14.9902
   XY=             -4.3671   XZ=              0.0000   YZ=             -0.0000

 267\MP4DQ=-33.8923711\MP4SDQ=-33.8943966\CCSD=-33.8954499\CCSD(T)=-33.
 Normal termination of Gaussian 16 at Sun Dec 10 06:52:18 2023.
