 Gaussian 16, Revision A.03,
 Gaussian 16:  ES64L-G16RevA.03 25-Dec-2016

 ------------------
 #p CCSD(T)/CEP-31G
 ------------------

 -----------
 H2O_H2O_442
 -----------
 Symbolic Z-matrix:
 Charge =  0 Multiplicity = 1

                         Standard orientation:
 ---------------------------------------------------------------------
 Center     Atomic      Atomic             Coordinates (Angstroms)
 Number     Number       Type             X           Y           Z
 ---------------------------------------------------------------------
      1          8           0        0.037617    1.281415   -0.000000
      2          1           0        0.033664    0.298822   -0.000000
      3          1           0       -0.890587    1.603818   -0.000000
      4          8           0        0.037617   -1.102594    0.000000
      5          1           0        0.917130   -1.540729    0.000000
      6          1           0       -0.662071   -1.792480    0.000000
 ---------------------------------------------------------------------

 SCF Done:  E(RHF) =  -33.6498215642     A.U. after   11 cycles
 E2 =    -0.2286078827D+00 EUMP2 =    -0.33878429446887D+02
 CCSD(T)
 CCSD(T)= -0.33893835740D+02

 The electronic state is 1-A'.
 Alpha  occ. eigenvalues --   -1.41659  -1.28777  -0.76812  -0.72420  -0.57838
 Alpha  occ. eigenvalues --   -0.56119  -0.47328  -0.43192
 Alpha virt. eigenvalues --    0.17022   0.26555   0.28684   0.56505   0.73811
 Alpha virt. eigenvalues --    0.74024   0.86113   0.89791   0.94848   1.00766
 Alpha virt. eigenvalues --    1.15144   1.17869   1.25604   1.36628   2.73351

 Mulliken charges:
               1
     1  O   -0.772407
     2  H    0.407055
     3  H    0.330859
     4  O   -0.834400
     5  H    0.430392
     6  H    0.438501
 Sum of Mulliken charges =  -0.00000

 Dipole moment (field-independent basis, Debye):
    X=             -1.6072    Y=             -5.1634    Z=              0.0000  Tot=              5.4078
 Quadrupole moment (field-independent basis, Debye-Ang):
   XX=             -9.3123   YY=             -9.8788   ZZ=            -15.0030
   XY=             -3.7927   XZ=              0.0000   YZ=             -0.0000

 086\MP4DQ=-33.8878399\MP4SDQ=-33.8900367\CCSD=-33.8907936\CCSD(T)=-33.
 Normal termination of Gaussian 16 at Sun Dec 10 06:26:46 2023.
