 Gaussian 16, Revision A.03,
 Gaussian 16:  ES64L-G16RevA.03 25-Dec-2016

 ------------------
 #p CCSD(T)/CEP-31G
 ------------------

 ------------
 H2O_H2O_3677
 ------------
 Symbolic Z-matrix:
 Charge =  0 Multiplicity = 1

                         Standard orientation:
 ---------------------------------------------------------------------
 Center     Atomic      Atomic             Coordinates (Angstroms)
 Number     Number       Type             X           Y           Z
 ---------------------------------------------------------------------
      1          8           0        0.088231   -2.559011    0.000000
      2          1           0        0.088069   -1.576410    0.000000
      3          1           0       -0.841210   -2.877830    0.000000
      4          8           0        0.088231    2.414689    0.000000
      5          1           0        0.216326    3.388905    0.000000
      6          1           0       -0.874874    2.219913    0.000000
 ---------------------------------------------------------------------

 SCF Done:  E(RHF) =  -33.6524663474     A.U. after   11 cycles
 E2 =    -0.2283571266D+00 EUMP2 =    -0.33880823474022D+02
 CCSD(T)
 CCSD(T)= -0.33897807072D+02

 The electronic state is 1-A'.
 Alpha  occ. eigenvalues --   -1.36510  -1.34908  -0.72166  -0.70517  -0.56291
 Alpha  occ. eigenvalues --   -0.54650  -0.51088  -0.49483
 Alpha virt. eigenvalues --    0.18872   0.21257   0.29547   0.31251   0.79485
 Alpha virt. eigenvalues --    0.81049   0.82366   0.84058   0.85444   0.87385
 Alpha virt. eigenvalues --    1.16318   1.18169   1.20870   1.23065   2.56087

 Mulliken charges:
               1
     1  O   -0.743861
     2  H    0.377948
     3  H    0.365820
     4  O   -0.744321
     5  H    0.376493
     6  H    0.367921
 Sum of Mulliken charges =   0.00000

 Dipole moment (field-independent basis, Debye):
    X=             -4.0477    Y=              3.4123    Z=              0.0000  Tot=              5.2941
 Quadrupole moment (field-independent basis, Debye-Ang):
   XX=            -10.9708   YY=             -8.6371   ZZ=            -14.9892
   XY=              2.9164   XZ=              0.0000   YZ=              0.0000

 4204\MP4DQ=-33.8921629\MP4SDQ=-33.8941917\CCSD=-33.8952434\CCSD(T)=-33
 Normal termination of Gaussian 16 at Sun Dec 10 06:39:10 2023.
