 Gaussian 16, Revision A.03,
 Gaussian 16:  ES64L-G16RevA.03 25-Dec-2016

 ------------------
 #p CCSD(T)/CEP-31G
 ------------------

 ------------
 H2O_H2O_1586
 ------------
 Symbolic Z-matrix:
 Charge =  0 Multiplicity = 1

                         Standard orientation:
 ---------------------------------------------------------------------
 Center     Atomic      Atomic             Coordinates (Angstroms)
 Number     Number       Type             X           Y           Z
 ---------------------------------------------------------------------
      1          8           0        0.059683    1.739336   -0.000000
      2          1           0        0.057970    0.756736   -0.000000
      3          1           0       -0.869254    2.059622   -0.000000
      4          8           0        0.059683   -1.561947    0.000000
      5          1           0        0.706269   -2.301834    0.000000
      6          1           0       -0.849907   -1.933633    0.000000
 ---------------------------------------------------------------------

 SCF Done:  E(RHF) =  -33.6597904590     A.U. after   11 cycles
 E2 =    -0.2288336745D+00 EUMP2 =    -0.33888624133525D+02
 CCSD(T)
 CCSD(T)= -0.33905450223D+02

 The electronic state is 1-A'.
 Alpha  occ. eigenvalues --   -1.37863  -1.32601  -0.73527  -0.68367  -0.58241
 Alpha  occ. eigenvalues --   -0.52539  -0.52371  -0.47245
 Alpha virt. eigenvalues --    0.17840   0.24850   0.28600   0.38106   0.77361
 Alpha virt. eigenvalues --    0.81110   0.83965   0.85717   0.90888   0.96857
 Alpha virt. eigenvalues --    1.15187   1.19680   1.20853   1.34541   2.49932

 Mulliken charges:
               1
     1  O   -0.774809
     2  H    0.418503
     3  H    0.354561
     4  O   -0.775453
     5  H    0.396420
     6  H    0.380778
 Sum of Mulliken charges =  -0.00000

 Dipole moment (field-independent basis, Debye):
    X=             -2.6652    Y=             -4.4615    Z=              0.0000  Tot=              5.1969
 Quadrupole moment (field-independent basis, Debye-Ang):
   XX=             -9.6647   YY=             -8.0124   ZZ=            -15.0052
   XY=             -4.3230   XZ=              0.0000   YZ=             -0.0000

 9568\MP4DQ=-33.8996801\MP4SDQ=-33.9017745\CCSD=-33.9027838\CCSD(T)=-33
 Normal termination of Gaussian 16 at Sun Dec 10 06:48:48 2023.
