 Gaussian 16, Revision A.03,
 Gaussian 16:  ES64L-G16RevA.03 25-Dec-2016

 ------------------
 #p CCSD(T)/CEP-31G
 ------------------

 ------------
 H2O_H2O_3337
 ------------
 Symbolic Z-matrix:
 Charge =  0 Multiplicity = 1

                         Standard orientation:
 ---------------------------------------------------------------------
 Center     Atomic      Atomic             Coordinates (Angstroms)
 Number     Number       Type             X           Y           Z
 ---------------------------------------------------------------------
      1          8           0        0.055985    2.438196    0.000000
      2          1           0        0.054649    1.455595    0.000000
      3          1           0       -0.873074    2.758126    0.000000
      4          8           0        0.055985   -2.259282   -0.000000
      5          1           0        0.749845   -2.955030   -0.000000
      6          1           0       -0.827184   -2.690002   -0.000000
 ---------------------------------------------------------------------

 SCF Done:  E(RHF) =  -33.6544128346     A.U. after   11 cycles
 E2 =    -0.2283108102D+00 EUMP2 =    -0.33882723644744D+02
 CCSD(T)
 CCSD(T)= -0.33899650452D+02

 The electronic state is 1-A'.
 Alpha  occ. eigenvalues --   -1.36583  -1.34231  -0.72229  -0.69849  -0.56472
 Alpha  occ. eigenvalues --   -0.54034  -0.51192  -0.48839
 Alpha virt. eigenvalues --    0.19075   0.21910   0.29567   0.32087   0.79376
 Alpha virt. eigenvalues --    0.81654   0.82264   0.84705   0.85338   0.87861
 Alpha virt. eigenvalues --    1.16429   1.18924   1.20845   1.24272   2.56359

 Mulliken charges:
               1
     1  O   -0.751368
     2  H    0.385316
     3  H    0.365646
     4  O   -0.750049
     5  H    0.377567
     6  H    0.372888
 Sum of Mulliken charges =   0.00000

 Dipole moment (field-independent basis, Debye):
    X=             -2.5589    Y=             -4.2492    Z=             -0.0000  Tot=              4.9602
 Quadrupole moment (field-independent basis, Debye-Ang):
   XX=             -9.5843   YY=             -6.2582   ZZ=            -14.9938
   XY=             -5.6682   XZ=             -0.0000   YZ=              0.0000

 635\MP4DQ=-33.8940148\MP4SDQ=-33.8960447\CCSD=-33.8970892\CCSD(T)=-33.
 Normal termination of Gaussian 16 at Sun Dec 10 06:33:07 2023.
