 Gaussian 16, Revision A.03,
 Gaussian 16:  ES64L-G16RevA.03 25-Dec-2016

 ------------------
 #p CCSD(T)/CEP-31G
 ------------------

 ------------
 H2O_H2O_1570
 ------------
 Symbolic Z-matrix:
 Charge =  0 Multiplicity = 1

                         Standard orientation:
 ---------------------------------------------------------------------
 Center     Atomic      Atomic             Coordinates (Angstroms)
 Number     Number       Type             X           Y           Z
 ---------------------------------------------------------------------
      1          8           0        0.026740    1.727081    0.000000
      2          1           0        0.023310    0.744486    0.000000
      3          1           0       -0.901635    2.048990    0.000000
      4          8           0        0.026740   -1.553907   -0.000000
      5          1           0        0.974967   -1.811534   -0.000000
      6          1           0       -0.524482   -2.367333   -0.000000
 ---------------------------------------------------------------------

 SCF Done:  E(RHF) =  -33.6609989786     A.U. after   11 cycles
 E2 =    -0.2287204856D+00 EUMP2 =    -0.33889719464227D+02
 CCSD(T)
 CCSD(T)= -0.33906526184D+02

 The electronic state is 1-A'.
 Alpha  occ. eigenvalues --   -1.37835  -1.32560  -0.73513  -0.68379  -0.58300
 Alpha  occ. eigenvalues --   -0.52527  -0.52383  -0.47245
 Alpha virt. eigenvalues --    0.17913   0.25033   0.28695   0.38270   0.77314
 Alpha virt. eigenvalues --    0.80761   0.84006   0.86460   0.89506   0.99018
 Alpha virt. eigenvalues --    1.15418   1.19006   1.21445   1.35277   2.50399

 Mulliken charges:
               1
     1  O   -0.780095
     2  H    0.416303
     3  H    0.361317
     4  O   -0.779888
     5  H    0.388590
     6  H    0.393773
 Sum of Mulliken charges =  -0.00000

 Dipole moment (field-independent basis, Debye):
    X=             -1.1983    Y=             -4.3575    Z=             -0.0000  Tot=              4.5193
 Quadrupole moment (field-independent basis, Debye-Ang):
   XX=             -9.5005   YY=             -8.1229   ZZ=            -15.0077
   XY=             -5.5029   XZ=             -0.0000   YZ=              0.0000

 2\MP4DQ=-33.9007607\MP4SDQ=-33.9028547\CCSD=-33.9038626\CCSD(T)=-33.90
 Normal termination of Gaussian 16 at Sun Dec 10 06:48:29 2023.
