 Gaussian 16, Revision A.03,
 Gaussian 16:  ES64L-G16RevA.03 25-Dec-2016

 ------------------
 #p CCSD(T)/CEP-31G
 ------------------

 ------------
 H2O_H2O_2417
 ------------
 Symbolic Z-matrix:
 Charge =  0 Multiplicity = 1

                         Standard orientation:
 ---------------------------------------------------------------------
 Center     Atomic      Atomic             Coordinates (Angstroms)
 Number     Number       Type             X           Y           Z
 ---------------------------------------------------------------------
      1          8           0        0.037473    2.069254   -0.000000
      2          1           0        0.035094    1.086656   -0.000000
      3          1           0       -0.891245    2.390171    0.000000
      4          8           0        0.037473   -1.890313   -0.000000
      5          1           0        0.917687   -2.327040   -0.000000
      6          1           0       -0.661110   -2.581318    0.000000
 ---------------------------------------------------------------------

 SCF Done:  E(RHF) =  -33.6571119479     A.U. after   11 cycles
 E2 =    -0.2284280428D+00 EUMP2 =    -0.33885539990683D+02
 CCSD(T)
 CCSD(T)= -0.33902424023D+02

 The electronic state is 1-A'.
 Alpha  occ. eigenvalues --   -1.37043  -1.33538  -0.72691  -0.69171  -0.57119
 Alpha  occ. eigenvalues --   -0.53393  -0.51689  -0.48183
 Alpha virt. eigenvalues --    0.18390   0.23180   0.29265   0.33531   0.78819
 Alpha virt. eigenvalues --    0.82344   0.83764   0.85320   0.86032   0.88408
 Alpha virt. eigenvalues --    1.16046   1.19934   1.20501   1.29750   2.53989

 Mulliken charges:
               1
     1  O   -0.763028
     2  H    0.396863
     3  H    0.364274
     4  O   -0.757854
     5  H    0.381334
     6  H    0.378411
 Sum of Mulliken charges =  -0.00000

 Dipole moment (field-independent basis, Debye):
    X=             -1.6970    Y=             -4.3409    Z=              0.0000  Tot=              4.6608
 Quadrupole moment (field-independent basis, Debye-Ang):
   XX=             -9.4058   YY=             -7.0807   ZZ=            -14.9991
   XY=             -5.9913   XZ=             -0.0000   YZ=              0.0000

 \MP4DQ=-33.8967519\MP4SDQ=-33.8988095\CCSD=-33.8998387\CCSD(T)=-33.902
 Normal termination of Gaussian 16 at Sun Dec 10 07:05:56 2023.
