 Gaussian 16, Revision A.03,
 Gaussian 16:  ES64L-G16RevA.03 25-Dec-2016

 ------------------
 #p CCSD(T)/CEP-31G
 ------------------

 ------------
 H2O_H2O_1637
 ------------
 Symbolic Z-matrix:
 Charge =  0 Multiplicity = 1

                         Standard orientation:
 ---------------------------------------------------------------------
 Center     Atomic      Atomic             Coordinates (Angstroms)
 Number     Number       Type             X           Y           Z
 ---------------------------------------------------------------------
      1          8           0        0.056035    1.760075   -0.000000
      2          1           0        0.054157    0.777475   -0.000000
      3          1           0       -0.872848    2.080517   -0.000000
      4          8           0        0.056035   -1.581222    0.000000
      5          1           0        0.749510   -2.277354    0.000000
      6          1           0       -0.827372   -2.011455    0.000000
 ---------------------------------------------------------------------

 SCF Done:  E(RHF) =  -33.6598717978     A.U. after   11 cycles
 E2 =    -0.2287994129D+00 EUMP2 =    -0.33888671210763D+02
 CCSD(T)
 CCSD(T)= -0.33905495458D+02

 The electronic state is 1-A'.
 Alpha  occ. eigenvalues --   -1.37788  -1.32623  -0.73442  -0.68373  -0.58167
 Alpha  occ. eigenvalues --   -0.52467  -0.52411  -0.47274
 Alpha virt. eigenvalues --    0.17918   0.24769   0.28674   0.37747   0.77501
 Alpha virt. eigenvalues --    0.81347   0.83848   0.85822   0.90679   0.95504
 Alpha virt. eigenvalues --    1.15281   1.19861   1.20771   1.34101   2.50005

 Mulliken charges:
               1
     1  O   -0.775130
     2  H    0.417671
     3  H    0.355658
     4  O   -0.773969
     5  H    0.394266
     6  H    0.381504
 Sum of Mulliken charges =  -0.00000

 Dipole moment (field-independent basis, Debye):
    X=             -2.5053    Y=             -4.4828    Z=              0.0000  Tot=              5.1354
 Quadrupole moment (field-independent basis, Debye-Ang):
   XX=             -9.5735   YY=             -7.9174   ZZ=            -15.0053
   XY=             -4.4971   XZ=              0.0000   YZ=             -0.0000

 098\MP4DQ=-33.8997366\MP4SDQ=-33.9018256\CCSD=-33.9028368\CCSD(T)=-33.
 Normal termination of Gaussian 16 at Sun Dec 10 06:49:48 2023.
