 Gaussian 16, Revision A.03,
 Gaussian 16:  ES64L-G16RevA.03 25-Dec-2016

 ------------------
 #p CCSD(T)/CEP-31G
 ------------------

 ------------
 H2O_H2O_3570
 ------------
 Symbolic Z-matrix:
 Charge =  0 Multiplicity = 1

                         Standard orientation:
 ---------------------------------------------------------------------
 Center     Atomic      Atomic             Coordinates (Angstroms)
 Number     Number       Type             X           Y           Z
 ---------------------------------------------------------------------
      1          8           0        0.026641    2.524863    0.000000
      2          1           0        0.024333    1.542265    0.000000
      3          1           0       -0.902101    2.845712   -0.000000
      4          8           0        0.026641   -2.351629    0.000000
      5          1           0        0.975162   -2.608172    0.000000
      6          1           0       -0.523651   -3.165683   -0.000000
 ---------------------------------------------------------------------

 SCF Done:  E(RHF) =  -33.6544379708     A.U. after   11 cycles
 E2 =    -0.2282768335D+00 EUMP2 =    -0.33882714804276D+02
 CCSD(T)
 CCSD(T)= -0.33899641614D+02

 The electronic state is 1-A'.
 Alpha  occ. eigenvalues --   -1.36480  -1.34386  -0.72123  -0.70022  -0.56366
 Alpha  occ. eigenvalues --   -0.54205  -0.51090  -0.49001
 Alpha virt. eigenvalues --    0.19237   0.21703   0.29660   0.31921   0.79470
 Alpha virt. eigenvalues --    0.81495   0.82230   0.84461   0.85500   0.87623
 Alpha virt. eigenvalues --    1.16530   1.18726   1.20924   1.23740   2.56492

 Mulliken charges:
               1
     1  O   -0.751448
     2  H    0.382789
     3  H    0.368444
     4  O   -0.750319
     5  H    0.375593
     6  H    0.374940
 Sum of Mulliken charges =   0.00000

 Dipole moment (field-independent basis, Debye):
    X=             -1.2181    Y=             -4.0955    Z=             -0.0000  Tot=              4.2728
 Quadrupole moment (field-independent basis, Debye-Ang):
   XX=             -9.5258   YY=             -6.4377   ZZ=            -14.9939
   XY=             -7.9941   XZ=              0.0000   YZ=             -0.0000

 587\MP4DQ=-33.8940106\MP4SDQ=-33.8960364\CCSD=-33.8970832\CCSD(T)=-33.
 Normal termination of Gaussian 16 at Sun Dec 10 06:37:15 2023.
