 Gaussian 16, Revision A.03,
 Gaussian 16:  ES64L-G16RevA.03 25-Dec-2016

 ------------------
 #p CCSD(T)/CEP-31G
 ------------------

 ------------
 H2O_H2O_1865
 ------------
 Symbolic Z-matrix:
 Charge =  0 Multiplicity = 1

                         Standard orientation:
 ---------------------------------------------------------------------
 Center     Atomic      Atomic             Coordinates (Angstroms)
 Number     Number       Type             X           Y           Z
 ---------------------------------------------------------------------
      1          8           0        0.044905    1.850639    0.000000
      2          1           0        0.042587    0.868040    0.000000
      3          1           0       -0.883833    2.171498    0.000000
      4          8           0        0.044905   -1.670286   -0.000000
      5          1           0        0.860618   -2.218117   -0.000000
      6          1           0       -0.737859   -2.264244   -0.000000
 ---------------------------------------------------------------------

 SCF Done:  E(RHF) =  -33.6593213014     A.U. after   11 cycles
 E2 =    -0.2286504133D+00 EUMP2 =    -0.33887971714761D+02
 CCSD(T)
 CCSD(T)= -0.33904817893D+02

 The electronic state is 1-A'.
 Alpha  occ. eigenvalues --   -1.37507  -1.32881  -0.73153  -0.68567  -0.57810
 Alpha  occ. eigenvalues --   -0.52719  -0.52182  -0.47542
 Alpha virt. eigenvalues --    0.18110   0.24311   0.28916   0.36128   0.78028
 Alpha virt. eigenvalues --    0.82330   0.83291   0.86139   0.89283   0.91866
 Alpha virt. eigenvalues --    1.15604   1.20014   1.20648   1.33094   2.50935

 Mulliken charges:
               1
     1  O   -0.772896
     2  H    0.411007
     3  H    0.359676
     4  O   -0.767671
     5  H    0.387762
     6  H    0.382122
 Sum of Mulliken charges =  -0.00000

 Dipole moment (field-independent basis, Debye):
    X=             -2.0180    Y=             -4.4666    Z=             -0.0000  Tot=              4.9013
 Quadrupole moment (field-independent basis, Debye-Ang):
   XX=             -9.4127   YY=             -7.6082   ZZ=            -15.0038
   XY=             -5.1108   XZ=             -0.0000   YZ=              0.0000

 33\MP4DQ=-33.8990933\MP4SDQ=-33.9011704\CCSD=-33.9021896\CCSD(T)=-33.9
 Normal termination of Gaussian 16 at Sun Dec 10 06:54:05 2023.
