 Gaussian 16, Revision A.03,
 Gaussian 16:  ES64L-G16RevA.03 25-Dec-2016

 ------------------
 #p CCSD(T)/CEP-31G
 ------------------

 ------------
 H2O_H2O_1297
 ------------
 Symbolic Z-matrix:
 Charge =  0 Multiplicity = 1

                         Standard orientation:
 ---------------------------------------------------------------------
 Center     Atomic      Atomic             Coordinates (Angstroms)
 Number     Number       Type             X           Y           Z
 ---------------------------------------------------------------------
      1          8           0       -0.019973    1.614067    0.000000
      2          1           0       -0.015920    0.631474    0.000000
      3          1           0        0.908198    1.936564    0.000000
      4          8           0       -0.019973   -1.447016    0.000000
      5          1           0       -0.993631   -1.579288    0.000000
      6          1           0        0.420916   -2.325152    0.000000
 ---------------------------------------------------------------------

 SCF Done:  E(RHF) =  -33.6618039067     A.U. after   11 cycles
 E2 =    -0.2287411345D+00 EUMP2 =    -0.33890545041181D+02
 CCSD(T)
 CCSD(T)= -0.33907289924D+02

 The electronic state is 1-A'.
 Alpha  occ. eigenvalues --   -1.38277  -1.32200  -0.74046  -0.68227  -0.58830
 Alpha  occ. eigenvalues --   -0.52968  -0.51946  -0.46890
 Alpha virt. eigenvalues --    0.17738   0.25705   0.28349   0.40917   0.76451
 Alpha virt. eigenvalues --    0.79487   0.84922   0.86424   0.90195   1.06260
 Alpha virt. eigenvalues --    1.15958   1.17720   1.22158   1.36525   2.50967

 Mulliken charges:
               1
     1  O   -0.783034
     2  H    0.417868
     3  H    0.361165
     4  O   -0.793624
     5  H    0.391457
     6  H    0.406168
 Sum of Mulliken charges =   0.00000

 Dipole moment (field-independent basis, Debye):
    X=              0.8945    Y=             -4.2956    Z=              0.0000  Tot=              4.3878
 Quadrupole moment (field-independent basis, Debye-Ang):
   XX=             -9.6453   YY=             -8.5369   ZZ=            -15.0108
   XY=              5.4158   XZ=              0.0000   YZ=              0.0000

 611\MP4DQ=-33.9014763\MP4SDQ=-33.9035937\CCSD=-33.9045839\CCSD(T)=-33.
 Normal termination of Gaussian 16 at Sun Dec 10 06:43:03 2023.
