 Gaussian 16, Revision A.03,
 Gaussian 16:  ES64L-G16RevA.03 25-Dec-2016

 ------------------
 #p CCSD(T)/CEP-31G
 ------------------

 ------------
 H2O_H2O_3783
 ------------
 Symbolic Z-matrix:
 Charge =  0 Multiplicity = 1

                         Standard orientation:
 ---------------------------------------------------------------------
 Center     Atomic      Atomic             Coordinates (Angstroms)
 Number     Number       Type             X           Y           Z
 ---------------------------------------------------------------------
      1          8           0        0.070191    2.612987   -0.000000
      2          1           0        0.069427    1.630386   -0.000000
      3          1           0       -0.859054    2.932376   -0.000000
      4          8           0        0.070191   -2.442729    0.000000
      5          1           0        0.560829   -3.294069    0.000000
      6          1           0       -0.894254   -2.630753    0.000000
 ---------------------------------------------------------------------

 SCF Done:  E(RHF) =  -33.6533575764     A.U. after   11 cycles
 E2 =    -0.2283158857D+00 EUMP2 =    -0.33881673462135D+02
 CCSD(T)
 CCSD(T)= -0.33898629351D+02

 The electronic state is 1-A'.
 Alpha  occ. eigenvalues --   -1.36447  -1.34568  -0.72094  -0.70185  -0.56275
 Alpha  occ. eigenvalues --   -0.54343  -0.51040  -0.49160
 Alpha virt. eigenvalues --    0.19269   0.21434   0.29634   0.31670   0.79524
 Alpha virt. eigenvalues --    0.81353   0.82331   0.84378   0.85506   0.87571
 Alpha virt. eigenvalues --    1.16519   1.18446   1.20925   1.23256   2.56491

 Mulliken charges:
               1
     1  O   -0.747279
     2  H    0.381047
     3  H    0.366123
     4  O   -0.746980
     5  H    0.376328
     6  H    0.370761
 Sum of Mulliken charges =  -0.00000

 Dipole moment (field-independent basis, Debye):
    X=             -3.2178    Y=             -4.0198    Z=              0.0000  Tot=              5.1491
 Quadrupole moment (field-independent basis, Debye-Ang):
   XX=            -10.0259   YY=             -6.5196   ZZ=            -14.9916
   XY=             -4.7909   XZ=              0.0000   YZ=             -0.0000

 62\MP4DQ=-33.8929932\MP4SDQ=-33.8950194\CCSD=-33.8960695\CCSD(T)=-33.8
 Normal termination of Gaussian 16 at Sun Dec 10 06:41:05 2023.
