 Gaussian 16, Revision A.03,
 Gaussian 16:  ES64L-G16RevA.03 25-Dec-2016

 ------------------
 #p CCSD(T)/CEP-31G
 ------------------

 ------------
 H2O_H2O_4842
 ------------
 Symbolic Z-matrix:
 Charge =  0 Multiplicity = 1

                         Standard orientation:
 ---------------------------------------------------------------------
 Center     Atomic      Atomic             Coordinates (Angstroms)
 Number     Number       Type             X           Y           Z
 ---------------------------------------------------------------------
      1          8           0        0.037402    3.036560    0.000000
      2          1           0        0.035804    2.053960    0.000000
      3          1           0       -0.891571    3.356738    0.000000
      4          8           0        0.037402   -2.857559   -0.000000
      5          1           0        0.917963   -3.293586   -0.000000
      6          1           0       -0.660632   -3.549119   -0.000000
 ---------------------------------------------------------------------

 SCF Done:  E(RHF) =  -33.6531758190     A.U. after   11 cycles
 E2 =    -0.2283036563D+00 EUMP2 =    -0.33881479475311D+02
 CCSD(T)
 CCSD(T)= -0.33898440703D+02

 The electronic state is 1-A'.
 Alpha  occ. eigenvalues --   -1.36192  -1.34756  -0.71831  -0.70389  -0.56005
 Alpha  occ. eigenvalues --   -0.54538  -0.50785  -0.49351
 Alpha virt. eigenvalues --    0.19652   0.21127   0.29904   0.31405   0.79766
 Alpha virt. eigenvalues --    0.81170   0.82647   0.84159   0.85820   0.87266
 Alpha virt. eigenvalues --    1.16769   1.18206   1.21214   1.22692   2.56747

 Mulliken charges:
               1
     1  O   -0.746516
     2  H    0.377601
     3  H    0.368911
     4  O   -0.746042
     5  H    0.373692
     6  H    0.372353
 Sum of Mulliken charges =  -0.00000

 Dipole moment (field-independent basis, Debye):
    X=             -1.7192    Y=             -4.1896    Z=             -0.0000  Tot=              4.5286
 Quadrupole moment (field-independent basis, Debye-Ang):
   XX=             -9.4170   YY=             -4.9255   ZZ=            -14.9914
   XY=             -8.4909   XZ=             -0.0000   YZ=              0.0000

 598\MP4DQ=-33.8928066\MP4SDQ=-33.8948306\CCSD=-33.8958834\CCSD(T)=-33.
 Normal termination of Gaussian 16 at Sun Dec 10 07:00:15 2023.
