 Gaussian 16, Revision A.03,
 Gaussian 16:  ES64L-G16RevA.03 25-Dec-2016

 ------------------
 #p CCSD(T)/CEP-31G
 ------------------

 ------------
 H2O_H2O_1383
 ------------
 Symbolic Z-matrix:
 Charge =  0 Multiplicity = 1

                         Standard orientation:
 ---------------------------------------------------------------------
 Center     Atomic      Atomic             Coordinates (Angstroms)
 Number     Number       Type             X           Y           Z
 ---------------------------------------------------------------------
      1          8           0        0.070231    1.655649   -0.000000
      2          1           0        0.069002    0.673048   -0.000000
      3          1           0       -0.858862    1.975478   -0.000000
      4          8           0        0.070231   -1.485458    0.000000
      5          1           0        0.560467   -2.337030    0.000000
      6          1           0       -0.894303   -1.673024    0.000000
 ---------------------------------------------------------------------

 SCF Done:  E(RHF) =  -33.6591720458     A.U. after   11 cycles
 E2 =    -0.2289423816D+00 EUMP2 =    -0.33888114427393D+02
 CCSD(T)
 CCSD(T)= -0.33904948395D+02

 The electronic state is 1-A'.
 Alpha  occ. eigenvalues --   -1.38210  -1.32538  -0.73946  -0.68389  -0.58540
 Alpha  occ. eigenvalues --   -0.52863  -0.52225  -0.47152
 Alpha virt. eigenvalues --    0.17514   0.25180   0.28257   0.39701   0.76728
 Alpha virt. eigenvalues --    0.80185   0.84487   0.85419   0.91493   1.03365
 Alpha virt. eigenvalues --    1.14954   1.18541   1.21347   1.36356   2.50015

 Mulliken charges:
               1
     1  O   -0.772169
     2  H    0.419351
     3  H    0.350658
     4  O   -0.782167
     5  H    0.405709
     6  H    0.378618
 Sum of Mulliken charges =  -0.00000

 Dipole moment (field-independent basis, Debye):
    X=             -3.1217    Y=             -4.3507    Z=             -0.0000  Tot=              5.3548
 Quadrupole moment (field-independent basis, Debye-Ang):
   XX=            -10.0342   YY=             -8.3966   ZZ=            -15.0043
   XY=             -3.7796   XZ=              0.0000   YZ=             -0.0000

 179\MP4DQ=-33.8991271\MP4SDQ=-33.9012494\CCSD=-33.9022491\CCSD(T)=-33.
 Normal termination of Gaussian 16 at Sun Dec 10 06:44:45 2023.
