 Gaussian 16, Revision A.03,
 Gaussian 16:  ES64L-G16RevA.03 25-Dec-2016

 ------------------
 #p CCSD(T)/CEP-31G
 ------------------

 -----------
 H2O_H2O_191
 -----------
 Symbolic Z-matrix:
 Charge =  0 Multiplicity = 1

                         Standard orientation:
 ---------------------------------------------------------------------
 Center     Atomic      Atomic             Coordinates (Angstroms)
 Number     Number       Type             X           Y           Z
 ---------------------------------------------------------------------
      1          8           0        0.041331    1.182201   -0.000000
      2          1           0        0.037305    0.199608   -0.000000
      3          1           0       -0.886848    1.504673   -0.000000
      4          8           0        0.041331   -1.002452    0.000000
      5          1           0        0.890269   -1.497235    0.000000
      6          1           0       -0.702028   -1.645043    0.000000
 ---------------------------------------------------------------------

 SCF Done:  E(RHF) =  -33.6225362856     A.U. after   11 cycles
 E2 =    -0.2279642600D+00 EUMP2 =    -0.33850500545614D+02
 CCSD(T)
 CCSD(T)= -0.33865236984D+02

 The electronic state is 1-A'.
 Alpha  occ. eigenvalues --   -1.44244  -1.27259  -0.78622  -0.76829  -0.58024
 Alpha  occ. eigenvalues --   -0.55628  -0.44761  -0.41372
 Alpha virt. eigenvalues --    0.16521   0.25560   0.29864   0.61119   0.73380
 Alpha virt. eigenvalues --    0.73412   0.86347   0.91375   0.92488   1.03997
 Alpha virt. eigenvalues --    1.13919   1.16791   1.28281   1.35445   2.88087

 Mulliken charges:
               1
     1  O   -0.757873
     2  H    0.351304
     3  H    0.314244
     4  O   -0.805237
     5  H    0.448379
     6  H    0.449184
 Sum of Mulliken charges =  -0.00000

 Dipole moment (field-independent basis, Debye):
    X=             -1.7076    Y=             -5.5600    Z=              0.0000  Tot=              5.8163
 Quadrupole moment (field-independent basis, Debye-Ang):
   XX=             -9.2761   YY=            -10.4894   ZZ=            -14.9600
   XY=             -3.4559   XZ=              0.0000   YZ=             -0.0000

 12\MP4DQ=-33.8591208\MP4SDQ=-33.8614065\CCSD=-33.8620411\CCSD(T)=-33.8
 Normal termination of Gaussian 16 at Sun Dec 10 06:21:49 2023.
