 Gaussian 16, Revision A.03,
 Gaussian 16:  ES64L-G16RevA.03 25-Dec-2016

 ------------------
 #p CCSD(T)/CEP-31G
 ------------------

 ------------
 H2O_H2O_4645
 ------------
 Symbolic Z-matrix:
 Charge =  0 Multiplicity = 1

                         Standard orientation:
 ---------------------------------------------------------------------
 Center     Atomic      Atomic             Coordinates (Angstroms)
 Number     Number       Type             X           Y           Z
 ---------------------------------------------------------------------
      1          8           0        0.026611    2.953664    0.000000
      2          1           0        0.024648    1.971065    0.000000
      3          1           0       -0.902244    3.274187    0.000000
      4          8           0        0.026611   -2.780411   -0.000000
      5          1           0        0.975221   -3.036621   -0.000000
      6          1           0       -0.523395   -3.594658   -0.000000
 ---------------------------------------------------------------------

 SCF Done:  E(RHF) =  -33.6533357717     A.U. after   11 cycles
 E2 =    -0.2282948025D+00 EUMP2 =    -0.33881630574167D+02
 CCSD(T)
 CCSD(T)= -0.33898587772D+02

 The electronic state is 1-A'.
 Alpha  occ. eigenvalues --   -1.36223  -1.34753  -0.71862  -0.70389  -0.56044
 Alpha  occ. eigenvalues --   -0.54542  -0.50818  -0.49352
 Alpha virt. eigenvalues --    0.19625   0.21141   0.29882   0.31420   0.79733
 Alpha virt. eigenvalues --    0.81167   0.82595   0.84153   0.85773   0.87252
 Alpha virt. eigenvalues --    1.16746   1.18218   1.21187   1.22711   2.56715

 Mulliken charges:
               1
     1  O   -0.747141
     2  H    0.377767
     3  H    0.369368
     4  O   -0.746651
     5  H    0.373604
     6  H    0.373053
 Sum of Mulliken charges =   0.00000

 Dipole moment (field-independent basis, Debye):
    X=             -1.2223    Y=             -4.0581    Z=             -0.0000  Tot=              4.2382
 Quadrupole moment (field-independent basis, Debye-Ang):
   XX=             -9.5298   YY=             -5.6143   ZZ=            -14.9917
   XY=             -9.3142   XZ=             -0.0000   YZ=              0.0000

 2071\MP4DQ=-33.8929546\MP4SDQ=-33.8949782\CCSD=-33.8960307\CCSD(T)=-33
 Normal termination of Gaussian 16 at Sun Dec 10 06:56:37 2023.
