 Gaussian 16, Revision A.03,
 Gaussian 16:  ES64L-G16RevA.03 25-Dec-2016

 ------------------
 #p CCSD(T)/CEP-31G
 ------------------

 -----------
 H2O_H2O_153
 -----------
 Symbolic Z-matrix:
 Charge =  0 Multiplicity = 1

                         Standard orientation:
 ---------------------------------------------------------------------
 Center     Atomic      Atomic             Coordinates (Angstroms)
 Number     Number       Type             X           Y           Z
 ---------------------------------------------------------------------
      1          8           0        0.085624   -1.155808    0.000000
      2          1           0        0.085047   -0.173207    0.000000
      3          1           0       -0.843682   -1.475020    0.000000
      4          8           0        0.085624    1.006264    0.000000
      5          1           0        0.276755    1.970097    0.000000
      6          1           0       -0.888101    0.874483    0.000000
 ---------------------------------------------------------------------

 SCF Done:  E(RHF) =  -33.5955361798     A.U. after   11 cycles
 E2 =    -0.2281973681D+00 EUMP2 =    -0.33823733547837D+02
 CCSD(T)
 CCSD(T)= -0.33839154204D+02

 The electronic state is 1-A'.
 Alpha  occ. eigenvalues --   -1.45654  -1.29215  -0.83511  -0.71984  -0.58239
 Alpha  occ. eigenvalues --   -0.56530  -0.47139  -0.43283
 Alpha virt. eigenvalues --    0.16012   0.23392   0.29736   0.59699   0.73072
 Alpha virt. eigenvalues --    0.75470   0.88923   0.90237   0.96964   1.09318
 Alpha virt. eigenvalues --    1.11666   1.21873   1.26589   1.46112   2.97856

 Mulliken charges:
               1
     1  O   -0.682474
     2  H    0.253844
     3  H    0.306408
     4  O   -0.765936
     5  H    0.496978
     6  H    0.391180
 Sum of Mulliken charges =  -0.00000

 Dipole moment (field-independent basis, Debye):
    X=             -3.5312    Y=              4.8760    Z=              0.0000  Tot=              6.0204
 Quadrupole moment (field-independent basis, Debye-Ang):
   XX=            -10.8314   YY=            -10.3286   ZZ=            -14.9122
   XY=              2.5816   XZ=              0.0000   YZ=              0.0000

 819\MP4DQ=-33.832768\MP4SDQ=-33.8352832\CCSD=-33.8359619\CCSD(T)=-33.8
 Normal termination of Gaussian 16 at Sun Dec 10 06:21:03 2023.
