 Gaussian 16, Revision A.03,
 Gaussian 16:  ES64L-G16RevA.03 25-Dec-2016

 ------------------
 #p CCSD(T)/CEP-31G
 ------------------

 ------------
 H2O_H2O_1544
 ------------
 Symbolic Z-matrix:
 Charge =  0 Multiplicity = 1

                         Standard orientation:
 ---------------------------------------------------------------------
 Center     Atomic      Atomic             Coordinates (Angstroms)
 Number     Number       Type             X           Y           Z
 ---------------------------------------------------------------------
      1          8           0        0.030270    1.718400    0.000000
      2          1           0        0.027004    0.735804    0.000000
      3          1           0       -0.898158    2.040155    0.000000
      4          8           0        0.030270   -1.542849    0.000000
      5          1           0        0.959671   -1.861787    0.000000
      6          1           0       -0.572842   -2.318581    0.000000
 ---------------------------------------------------------------------

 SCF Done:  E(RHF) =  -33.6612529845     A.U. after   11 cycles
 E2 =    -0.2287522995D+00 EUMP2 =    -0.33890005284069D+02
 CCSD(T)
 CCSD(T)= -0.33906792534D+02

 The electronic state is 1-A'.
 Alpha  occ. eigenvalues --   -1.37873  -1.32451  -0.73537  -0.68296  -0.58365
 Alpha  occ. eigenvalues --   -0.52572  -0.52266  -0.47135
 Alpha virt. eigenvalues --    0.17935   0.25111   0.28670   0.38602   0.77248
 Alpha virt. eigenvalues --    0.80626   0.84140   0.86440   0.89907   0.98619
 Alpha virt. eigenvalues --    1.15361   1.19095   1.21473   1.34829   2.50142

 Mulliken charges:
               1
     1  O   -0.780877
     2  H    0.418617
     3  H    0.360029
     4  O   -0.780834
     5  H    0.389807
     6  H    0.393258
 Sum of Mulliken charges =  -0.00000

 Dipole moment (field-independent basis, Debye):
    X=             -1.3552    Y=             -4.4225    Z=              0.0000  Tot=              4.6255
 Quadrupole moment (field-independent basis, Debye-Ang):
   XX=             -9.4452   YY=             -8.0964   ZZ=            -15.0085
   XY=             -5.3288   XZ=              0.0000   YZ=              0.0000

 98\MP4DQ=-33.9010266\MP4SDQ=-33.9031183\CCSD=-33.9041239\CCSD(T)=-33.9
 Normal termination of Gaussian 16 at Sun Dec 10 06:47:58 2023.
