 Gaussian 16, Revision A.03,
 Gaussian 16:  ES64L-G16RevA.03 25-Dec-2016

 ------------------
 #p CCSD(T)/CEP-31G
 ------------------

 ------------
 H2O_H2O_2488
 ------------
 Symbolic Z-matrix:
 Charge =  0 Multiplicity = 1

                         Standard orientation:
 ---------------------------------------------------------------------
 Center     Atomic      Atomic             Coordinates (Angstroms)
 Number     Number       Type             X           Y           Z
 ---------------------------------------------------------------------
      1          8           0        0.052316    2.099672    0.000000
      2          1           0        0.050599    1.117072    0.000000
      3          1           0       -0.876619    2.419962    0.000000
      4          8           0        0.052316   -1.919802   -0.000000
      5          1           0        0.789943   -2.568966   -0.000000
      6          1           0       -0.800981   -2.407030   -0.000000
 ---------------------------------------------------------------------

 SCF Done:  E(RHF) =  -33.6564718108     A.U. after   11 cycles
 E2 =    -0.2284319027D+00 EUMP2 =    -0.33884903713434D+02
 CCSD(T)
 CCSD(T)= -0.33901799410D+02

 The electronic state is 1-A'.
 Alpha  occ. eigenvalues --   -1.37013  -1.33620  -0.72664  -0.69236  -0.57046
 Alpha  occ. eigenvalues --   -0.53453  -0.51650  -0.48252
 Alpha virt. eigenvalues --    0.18416   0.23013   0.29255   0.33301   0.78879
 Alpha virt. eigenvalues --    0.82265   0.84156   0.84823   0.85610   0.88427
 Alpha virt. eigenvalues --    1.16058   1.19811   1.20503   1.29081   2.54270

 Mulliken charges:
               1
     1  O   -0.760308
     2  H    0.395756
     3  H    0.362799
     4  O   -0.755865
     5  H    0.381841
     6  H    0.375778
 Sum of Mulliken charges =  -0.00000

 Dipole moment (field-independent basis, Debye):
    X=             -2.3739    Y=             -4.3568    Z=             -0.0000  Tot=              4.9616
 Quadrupole moment (field-independent basis, Debye-Ang):
   XX=             -9.5109   YY=             -6.9747   ZZ=            -14.9978
   XY=             -5.2828   XZ=             -0.0000   YZ=              0.0000

 3771\MP4DQ=-33.8961301\MP4SDQ=-33.8981857\CCSD=-33.8992166\CCSD(T)=-33
 Normal termination of Gaussian 16 at Sun Dec 10 07:07:15 2023.
