 Gaussian 16, Revision A.03,
 Gaussian 16:  ES64L-G16RevA.03 25-Dec-2016

 ------------------
 #p CCSD(T)/CEP-31G
 ------------------

 -----------
 H2O_H2O_120
 -----------
 Symbolic Z-matrix:
 Charge =  0 Multiplicity = 1

                         Standard orientation:
 ---------------------------------------------------------------------
 Center     Atomic      Atomic             Coordinates (Angstroms)
 Number     Number       Type             X           Y           Z
 ---------------------------------------------------------------------
      1          8           0        0.026904    1.148664   -0.000000
      2          1           0        0.021607    0.166077   -0.000000
      3          1           0       -0.900857    1.472336   -0.000000
      4          8           0        0.026904   -0.975592    0.000000
      5          1           0        0.974640   -1.235020    0.000000
      6          1           0       -0.525862   -1.787967    0.000000
 ---------------------------------------------------------------------

 SCF Done:  E(RHF) =  -33.6064097526     A.U. after   11 cycles
 E2 =    -0.2272134504D+00 EUMP2 =    -0.33833623203033D+02
 CCSD(T)
 CCSD(T)= -0.33848268974D+02

 The electronic state is 1-A'.
 Alpha  occ. eigenvalues --   -1.45389  -1.26920  -0.81509  -0.75661  -0.58618
 Alpha  occ. eigenvalues --   -0.55415  -0.44014  -0.40985
 Alpha virt. eigenvalues --    0.16612   0.24949   0.30198   0.61942   0.73334
 Alpha virt. eigenvalues --    0.73935   0.88033   0.91704   0.92408   1.02985
 Alpha virt. eigenvalues --    1.13248   1.19369   1.30384   1.38519   2.94157

 Mulliken charges:
               1
     1  O   -0.749212
     2  H    0.299489
     3  H    0.319261
     4  O   -0.789362
     5  H    0.441988
     6  H    0.477834
 Sum of Mulliken charges =   0.00000

 Dipole moment (field-independent basis, Debye):
    X=             -1.1342    Y=             -5.5431    Z=              0.0000  Tot=              5.6579
 Quadrupole moment (field-independent basis, Debye-Ang):
   XX=             -9.3687   YY=            -10.5422   ZZ=            -14.9374
   XY=             -3.5042   XZ=              0.0000   YZ=             -0.0000

 163\MP4DQ=-33.8421292\MP4SDQ=-33.8444426\CCSD=-33.8450678\CCSD(T)=-33.
 Normal termination of Gaussian 16 at Sun Dec 10 06:20:24 2023.
