 Gaussian 16, Revision A.03,
 Gaussian 16:  ES64L-G16RevA.03 25-Dec-2016

 ------------------
 #p CCSD(T)/CEP-31G
 ------------------

 -----------
 H2O_H2O_792
 -----------
 Symbolic Z-matrix:
 Charge =  0 Multiplicity = 1

                         Standard orientation:
 ---------------------------------------------------------------------
 Center     Atomic      Atomic             Coordinates (Angstroms)
 Number     Number       Type             X           Y           Z
 ---------------------------------------------------------------------
      1          8           0        0.037579    1.421037    0.000000
      2          1           0        0.034041    0.438442    0.000000
      3          1           0       -0.890761    1.743049    0.000000
      4          8           0        0.037579   -1.242185   -0.000000
      5          1           0        0.917277   -1.679948   -0.000000
      6          1           0       -0.661819   -1.932365   -0.000000
 ---------------------------------------------------------------------

 SCF Done:  E(RHF) =  -33.6619045466     A.U. after   11 cycles
 E2 =    -0.2289895789D+00 EUMP2 =    -0.33890894125525D+02
 CCSD(T)
 CCSD(T)= -0.33907030072D+02

 The electronic state is 1-A'.
 Alpha  occ. eigenvalues --   -1.39683  -1.30366  -0.75182  -0.69038  -0.59257
 Alpha  occ. eigenvalues --   -0.54405  -0.49670  -0.44969
 Alpha virt. eigenvalues --    0.17451   0.27330   0.27532   0.49297   0.74772
 Alpha virt. eigenvalues --    0.75801   0.85754   0.87705   0.96013   0.99999
 Alpha virt. eigenvalues --    1.15443   1.18378   1.23691   1.36917   2.58175

 Mulliken charges:
               1
     1  O   -0.784537
     2  H    0.432787
     3  H    0.344242
     4  O   -0.824550
     5  H    0.413590
     6  H    0.418467
 Sum of Mulliken charges =  -0.00000

 Dipole moment (field-independent basis, Debye):
    X=             -1.6419    Y=             -4.8337    Z=             -0.0000  Tot=              5.1049
 Quadrupole moment (field-independent basis, Debye-Ang):
   XX=             -9.3467   YY=             -9.1609   ZZ=            -15.0196
   XY=             -4.2139   XZ=             -0.0000   YZ=              0.0000

 \MP4DQ=-33.901139\MP4SDQ=-33.9032739\CCSD=-33.9041575\CCSD(T)=-33.9070
 Normal termination of Gaussian 16 at Sun Dec 10 06:33:25 2023.
