 Gaussian 16, Revision A.03,
 Gaussian 16:  ES64L-G16RevA.03 25-Dec-2016

 ------------------
 #p CCSD(T)/CEP-31G
 ------------------

 ------------
 H2O_H2O_3994
 ------------
 Symbolic Z-matrix:
 Charge =  0 Multiplicity = 1

                         Standard orientation:
 ---------------------------------------------------------------------
 Center     Atomic      Atomic             Coordinates (Angstroms)
 Number     Number       Type             X           Y           Z
 ---------------------------------------------------------------------
      1          8           0        0.030161    2.695684    0.000000
      2          1           0        0.028118    1.713084    0.000000
      3          1           0       -0.898668    3.016281    0.000000
      4          8           0        0.030161   -2.520057    0.000000
      5          1           0        0.959958   -2.837837    0.000000
      6          1           0       -0.571985   -3.296540    0.000000
 ---------------------------------------------------------------------

 SCF Done:  E(RHF) =  -33.6538987918     A.U. after   11 cycles
 E2 =    -0.2282799527D+00 EUMP2 =    -0.33882178744488D+02
 CCSD(T)
 CCSD(T)= -0.33899119898D+02

 The electronic state is 1-A'.
 Alpha  occ. eigenvalues --   -1.36360  -1.34530  -0.72001  -0.70164  -0.56216
 Alpha  occ. eigenvalues --   -0.54333  -0.50963  -0.49136
 Alpha virt. eigenvalues --    0.19459   0.21445   0.29768   0.31715   0.79593
 Alpha virt. eigenvalues --    0.81370   0.82364   0.84361   0.85608   0.87472
 Alpha virt. eigenvalues --    1.16632   1.18489   1.21054   1.23118   2.56582

 Mulliken charges:
               1
     1  O   -0.749346
     2  H    0.380672
     3  H    0.368609
     4  O   -0.748536
     5  H    0.374798
     6  H    0.373804
 Sum of Mulliken charges =  -0.00000

 Dipole moment (field-independent basis, Debye):
    X=             -1.3821    Y=             -4.1333    Z=              0.0000  Tot=              4.3582
 Quadrupole moment (field-independent basis, Debye-Ang):
   XX=             -9.4737   YY=             -5.9284   ZZ=            -14.9929
   XY=             -8.2153   XZ=              0.0000   YZ=              0.0000

 7394\MP4DQ=-33.8934892\MP4SDQ=-33.8955128\CCSD=-33.8965629\CCSD(T)=-33
 Normal termination of Gaussian 16 at Sun Dec 10 06:44:53 2023.
