 Gaussian 16, Revision A.03,
 Gaussian 16:  ES64L-G16RevA.03 25-Dec-2016

 ------------------
 #p CCSD(T)/CEP-31G
 ------------------

 -----------
 H2O_H2O_912
 -----------
 Symbolic Z-matrix:
 Charge =  0 Multiplicity = 1

                         Standard orientation:
 ---------------------------------------------------------------------
 Center     Atomic      Atomic             Coordinates (Angstroms)
 Number     Number       Type             X           Y           Z
 ---------------------------------------------------------------------
      1          8           0        0.056070    1.470867    0.000000
      2          1           0        0.053799    0.488268    0.000000
      3          1           0       -0.872684    1.791680   -0.000000
      4          8           0        0.056070   -1.292059    0.000000
      5          1           0        0.749267   -1.988468    0.000000
      6          1           0       -0.827508   -1.721938   -0.000000
 ---------------------------------------------------------------------

 SCF Done:  E(RHF) =  -33.6617626239     A.U. after   11 cycles
 E2 =    -0.2291431867D+00 EUMP2 =    -0.33890905810600D+02
 CCSD(T)
 CCSD(T)= -0.33907256761D+02

 The electronic state is 1-A'.
 Alpha  occ. eigenvalues --   -1.39285  -1.30939  -0.74853  -0.68557  -0.59258
 Alpha  occ. eigenvalues --   -0.54002  -0.50369  -0.45536
 Alpha virt. eigenvalues --    0.17421   0.26743   0.27717   0.46910   0.75159
 Alpha virt. eigenvalues --    0.76710   0.85311   0.86954   0.95991   1.01495
 Alpha virt. eigenvalues --    1.14983   1.18791   1.22475   1.36101   2.54954

 Mulliken charges:
               1
     1  O   -0.781096
     2  H    0.435869
     3  H    0.342349
     4  O   -0.815001
     5  H    0.421045
     6  H    0.396833
 Sum of Mulliken charges =  -0.00000

 Dipole moment (field-independent basis, Debye):
    X=             -2.4306    Y=             -4.7561    Z=             -0.0000  Tot=              5.3412
 Quadrupole moment (field-independent basis, Debye-Ang):
   XX=             -9.5463   YY=             -8.9461   ZZ=            -15.0165
   XY=             -3.9864   XZ=              0.0000   YZ=             -0.0000

 064\MP4DQ=-33.9013733\MP4SDQ=-33.903509\CCSD=-33.9044256\CCSD(T)=-33.9
 Normal termination of Gaussian 16 at Sun Dec 10 06:35:40 2023.
