 Gaussian 16, Revision A.03,
 Gaussian 16:  ES64L-G16RevA.03 25-Dec-2016

 ------------------
 #p CCSD(T)/CEP-31G
 ------------------

 ------------
 H2O_H2O_3519
 ------------
 Symbolic Z-matrix:
 Charge =  0 Multiplicity = 1

                         Standard orientation:
 ---------------------------------------------------------------------
 Center     Atomic      Atomic             Coordinates (Angstroms)
 Number     Number       Type             X           Y           Z
 ---------------------------------------------------------------------
      1          8           0        0.030175    2.506212   -0.000000
      2          1           0        0.027973    1.523613   -0.000000
      3          1           0       -0.898601    2.826962   -0.000000
      4          8           0        0.030175   -2.330596    0.000000
      5          1           0        0.959920   -2.648528    0.000000
      6          1           0       -0.572097   -3.106980    0.000000
 ---------------------------------------------------------------------

 SCF Done:  E(RHF) =  -33.6545198914     A.U. after   11 cycles
 E2 =    -0.2282798083D+00 EUMP2 =    -0.33882799699701D+02
 CCSD(T)
 CCSD(T)= -0.33899723957D+02

 The electronic state is 1-A'.
 Alpha  occ. eigenvalues --   -1.36498  -1.34333  -0.72141  -0.69967  -0.56390
 Alpha  occ. eigenvalues --   -0.54152  -0.51110  -0.48948
 Alpha virt. eigenvalues --    0.19218   0.21766   0.29651   0.31978   0.79452
 Alpha virt. eigenvalues --    0.81545   0.82223   0.84516   0.85487   0.87675
 Alpha virt. eigenvalues --    1.16516   1.18791   1.20917   1.23852   2.56475

 Mulliken charges:
               1
     1  O   -0.751765
     2  H    0.383481
     3  H    0.368030
     4  O   -0.750497
     5  H    0.375939
     6  H    0.374811
 Sum of Mulliken charges =   0.00000

 Dipole moment (field-independent basis, Debye):
    X=             -1.3793    Y=             -4.1555    Z=              0.0000  Tot=              4.3784
 Quadrupole moment (field-independent basis, Debye-Ang):
   XX=             -9.4716   YY=             -6.3137   ZZ=            -14.9941
   XY=             -7.6627   XZ=              0.0000   YZ=             -0.0000

 405\MP4DQ=-33.8940927\MP4SDQ=-33.8961191\CCSD=-33.8971653\CCSD(T)=-33.
 Normal termination of Gaussian 16 at Sun Dec 10 06:36:20 2023.
