 Gaussian 16, Revision A.03,
 Gaussian 16:  ES64L-G16RevA.03 25-Dec-2016

 ------------------
 #p CCSD(T)/CEP-31G
 ------------------

 ------------
 H2O_H2O_3546
 ------------
 Symbolic Z-matrix:
 Charge =  0 Multiplicity = 1

                         Standard orientation:
 ---------------------------------------------------------------------
 Center     Atomic      Atomic             Coordinates (Angstroms)
 Number     Number       Type             X           Y           Z
 ---------------------------------------------------------------------
      1          8           0       -0.023194    2.513349    0.000000
      2          1           0       -0.020756    1.530751    0.000000
      3          1           0        0.905506    2.834321    0.000000
      4          8           0       -0.023194   -2.342954    0.000000
      5          1           0       -0.986437   -2.537040    0.000000
      6          1           0        0.472790   -3.191191    0.000000
 ---------------------------------------------------------------------

 SCF Done:  E(RHF) =  -33.6544546251     A.U. after   11 cycles
 E2 =    -0.2282755682D+00 EUMP2 =    -0.33882730193341D+02
 CCSD(T)
 CCSD(T)= -0.33899657099D+02

 The electronic state is 1-A'.
 Alpha  occ. eigenvalues --   -1.36487  -1.34412  -0.72131  -0.70050  -0.56373
 Alpha  occ. eigenvalues --   -0.54232  -0.51097  -0.49027
 Alpha virt. eigenvalues --    0.19200   0.21697   0.29649   0.31901   0.79464
 Alpha virt. eigenvalues --    0.81469   0.82230   0.84421   0.85497   0.87600
 Alpha virt. eigenvalues --    1.16519   1.18713   1.20910   1.23790   2.56485

 Mulliken charges:
               1
     1  O   -0.751521
     2  H    0.382527
     3  H    0.368774
     4  O   -0.750455
     5  H    0.375431
     6  H    0.375244
 Sum of Mulliken charges =  -0.00000

 Dipole moment (field-independent basis, Debye):
    X=              1.0602    Y=             -4.0289    Z=              0.0000  Tot=              4.1661
 Quadrupole moment (field-independent basis, Debye-Ang):
   XX=             -9.5945   YY=             -6.6545   ZZ=            -14.9939
   XY=              8.2371   XZ=              0.0000   YZ=              0.0000

 738\MP4DQ=-33.8940257\MP4SDQ=-33.8960517\CCSD=-33.8970984\CCSD(T)=-33.
 Normal termination of Gaussian 16 at Sun Dec 10 06:36:49 2023.
