 Gaussian 16, Revision A.03,
 Gaussian 16:  ES64L-G16RevA.03 25-Dec-2016

 ------------------
 #p CCSD(T)/CEP-31G
 ------------------

 ------------
 H2O_H2O_2451
 ------------
 Symbolic Z-matrix:
 Charge =  0 Multiplicity = 1

                         Standard orientation:
 ---------------------------------------------------------------------
 Center     Atomic      Atomic             Coordinates (Angstroms)
 Number     Number       Type             X           Y           Z
 ---------------------------------------------------------------------
      1          8           0        0.090685   -2.067336    0.000000
      2          1           0        0.090589   -1.084735    0.000000
      3          1           0       -0.838776   -2.386094    0.000000
      4          8           0        0.090685    1.928630    0.000000
      5          1           0        0.154855    2.909134    0.000000
      6          1           0       -0.857634    1.671344    0.000000
 ---------------------------------------------------------------------

 SCF Done:  E(RHF) =  -33.6529984488     A.U. after   11 cycles
 E2 =    -0.2285756472D+00 EUMP2 =    -0.33881574096011D+02
 CCSD(T)
 CCSD(T)= -0.33898578586D+02

 The electronic state is 1-A'.
 Alpha  occ. eigenvalues --   -1.37113  -1.34609  -0.72822  -0.70174  -0.56939
 Alpha  occ. eigenvalues --   -0.54334  -0.51688  -0.49178
 Alpha virt. eigenvalues --    0.16998   0.22781   0.29005   0.32418   0.78821
 Alpha virt. eigenvalues --    0.81458   0.82844   0.84385   0.87381   0.88052
 Alpha virt. eigenvalues --    1.15484   1.18817   1.20490   1.31262   2.55820

 Mulliken charges:
               1
     1  O   -0.747165
     2  H    0.384410
     3  H    0.361613
     4  O   -0.746908
     5  H    0.382220
     6  H    0.365831
 Sum of Mulliken charges =  -0.00000

 Dipole moment (field-independent basis, Debye):
    X=             -4.1313    Y=              3.3612    Z=              0.0000  Tot=              5.3259
 Quadrupole moment (field-independent basis, Debye-Ang):
   XX=            -11.1485   YY=             -9.2061   ZZ=            -14.9888
   XY=              2.5431   XZ=              0.0000   YZ=              0.0000

 433\MP4DQ=-33.8928808\MP4SDQ=-33.8949472\CCSD=-33.8959826\CCSD(T)=-33.
 Normal termination of Gaussian 16 at Sun Dec 10 07:06:34 2023.
