 Gaussian 16, Revision A.03,
 Gaussian 16:  ES64L-G16RevA.03 25-Dec-2016

 ------------------
 #p CCSD(T)/CEP-31G
 ------------------

 -----------
 H2O_H2O_927
 -----------
 Symbolic Z-matrix:
 Charge =  0 Multiplicity = 1

                         Standard orientation:
 ---------------------------------------------------------------------
 Center     Atomic      Atomic             Coordinates (Angstroms)
 Number     Number       Type             X           Y           Z
 ---------------------------------------------------------------------
      1          8           0        0.088240   -1.462087    0.000000
      2          1           0        0.087952   -0.479486    0.000000
      3          1           0       -0.841160   -1.781026    0.000000
      4          8           0        0.088240    1.317788    0.000000
      5          1           0        0.216210    2.292020    0.000000
      6          1           0       -0.874839    1.122888    0.000000
 ---------------------------------------------------------------------

 SCF Done:  E(RHF) =  -33.6513327137     A.U. after   11 cycles
 E2 =    -0.2291607842D+00 EUMP2 =    -0.33880493497830D+02
 CCSD(T)
 CCSD(T)= -0.33897354763D+02

 The electronic state is 1-A'.
 Alpha  occ. eigenvalues --   -1.39508  -1.32749  -0.76009  -0.68567  -0.59133
 Alpha  occ. eigenvalues --   -0.53937  -0.52176  -0.47224
 Alpha virt. eigenvalues --    0.16661   0.25384   0.27603   0.44396   0.74906
 Alpha virt. eigenvalues --    0.78935   0.84925   0.85833   0.92091   1.11775
 Alpha virt. eigenvalues --    1.14938   1.23019   1.28350   1.37284   2.52570

 Mulliken charges:
               1
     1  O   -0.742316
     2  H    0.383240
     3  H    0.342287
     4  O   -0.781230
     5  H    0.427908
     6  H    0.370111
 Sum of Mulliken charges =  -0.00000

 Dipole moment (field-independent basis, Debye):
    X=             -3.8867    Y=              3.9151    Z=              0.0000  Tot=              5.5168
 Quadrupole moment (field-independent basis, Debye-Ang):
   XX=            -11.0384   YY=             -9.3638   ZZ=            -14.9919
   XY=              2.6166   XZ=              0.0000   YZ=              0.0000

 29\MP4DQ=-33.8913475\MP4SDQ=-33.8935975\CCSD=-33.8945451\CCSD(T)=-33.8
 Normal termination of Gaussian 16 at Sun Dec 10 06:35:57 2023.
