 Gaussian 16, Revision A.03,
 Gaussian 16:  ES64L-G16RevA.03 25-Dec-2016

 ------------------
 #p CCSD(T)/CEP-31G
 ------------------

 ------------
 H2O_H2O_2117
 ------------
 Symbolic Z-matrix:
 Charge =  0 Multiplicity = 1

                         Standard orientation:
 ---------------------------------------------------------------------
 Center     Atomic      Atomic             Coordinates (Angstroms)
 Number     Number       Type             X           Y           Z
 ---------------------------------------------------------------------
      1          8           0        0.037487    1.949586    0.000000
      2          1           0        0.034954    0.966988    0.000000
      3          1           0       -0.891181    2.270647    0.000000
      4          8           0        0.037487   -1.770656   -0.000000
      5          1           0        0.917633   -2.207520   -0.000000
      6          1           0       -0.661204   -2.461552   -0.000000
 ---------------------------------------------------------------------

 SCF Done:  E(RHF) =  -33.6582889782     A.U. after   11 cycles
 E2 =    -0.2285243288D+00 EUMP2 =    -0.33886813307002D+02
 CCSD(T)
 CCSD(T)= -0.33903683666D+02

 The electronic state is 1-A'.
 Alpha  occ. eigenvalues --   -1.37267  -1.33220  -0.72916  -0.68872  -0.57453
 Alpha  occ. eigenvalues --   -0.53078  -0.51928  -0.47878
 Alpha virt. eigenvalues --    0.18221   0.23768   0.29105   0.34678   0.78461
 Alpha virt. eigenvalues --    0.82765   0.83097   0.86124   0.87750   0.89504
 Alpha virt. eigenvalues --    1.15840   1.20081   1.20497   1.31989   2.52423

 Mulliken charges:
               1
     1  O   -0.768421
     2  H    0.403404
     3  H    0.362742
     4  O   -0.762406
     5  H    0.383770
     6  H    0.380912
 Sum of Mulliken charges =  -0.00000

 Dipole moment (field-independent basis, Debye):
    X=             -1.6912    Y=             -4.3853    Z=             -0.0000  Tot=              4.7001
 Quadrupole moment (field-independent basis, Debye-Ang):
   XX=             -9.4018   YY=             -7.3797   ZZ=            -15.0015
   XY=             -5.6777   XZ=              0.0000   YZ=             -0.0000

 362\MP4DQ=-33.8979855\MP4SDQ=-33.9000547\CCSD=-33.9010792\CCSD(T)=-33.
 Normal termination of Gaussian 16 at Sun Dec 10 06:58:54 2023.
