 Gaussian 16, Revision A.03,
 Gaussian 16:  ES64L-G16RevA.03 25-Dec-2016

 ------------------
 #p CCSD(T)/CEP-31G
 ------------------

 -----------
 H2O_H2O_773
 -----------
 Symbolic Z-matrix:
 Charge =  0 Multiplicity = 1

                         Standard orientation:
 ---------------------------------------------------------------------
 Center     Atomic      Atomic             Coordinates (Angstroms)
 Number     Number       Type             X           Y           Z
 ---------------------------------------------------------------------
      1          8           0        0.016796   -1.402634    0.000000
      2          1           0        0.011894   -0.420045    0.000000
      3          1           0       -0.911095   -1.725934    0.000000
      4          8           0        0.016796    1.239314    0.000000
      5          1           0        0.996962    1.308470    0.000000
      6          1           0       -0.366499    2.144074    0.000000
 ---------------------------------------------------------------------

 SCF Done:  E(RHF) =  -33.6590808864     A.U. after   11 cycles
 E2 =    -0.2284900950D+00 EUMP2 =    -0.33887570981474D+02
 CCSD(T)
 CCSD(T)= -0.33903883042D+02

 The electronic state is 1-A'.
 Alpha  occ. eigenvalues --   -1.39797  -1.30816  -0.75945  -0.68456  -0.59600
 Alpha  occ. eigenvalues --   -0.54390  -0.50120  -0.45447
 Alpha virt. eigenvalues --    0.17491   0.26914   0.27652   0.48794   0.74638
 Alpha virt. eigenvalues --    0.77030   0.86590   0.87493   0.92394   1.07859
 Alpha virt. eigenvalues --    1.15613   1.21879   1.26153   1.37418   2.59599

 Mulliken charges:
               1
     1  O   -0.775243
     2  H    0.403843
     3  H    0.354827
     4  O   -0.826431
     5  H    0.403964
     6  H    0.439039
 Sum of Mulliken charges =   0.00000

 Dipole moment (field-independent basis, Debye):
    X=             -0.7529    Y=              4.4881    Z=              0.0000  Tot=              4.5508
 Quadrupole moment (field-independent basis, Debye-Ang):
   XX=             -9.7178   YY=             -9.1964   ZZ=            -15.0137
   XY=              4.7599   XZ=              0.0000   YZ=              0.0000

 \MP4DQ=-33.8979618\MP4SDQ=-33.9001362\CCSD=-33.9010442\CCSD(T)=-33.903
 Normal termination of Gaussian 16 at Sun Dec 10 06:33:03 2023.
