 Gaussian 16, Revision A.03,
 Gaussian 16:  ES64L-G16RevA.03 25-Dec-2016

 ------------------
 #p CCSD(T)/CEP-31G
 ------------------

 ------------
 H2O_H2O_2984
 ------------
 Symbolic Z-matrix:
 Charge =  0 Multiplicity = 1

                         Standard orientation:
 ---------------------------------------------------------------------
 Center     Atomic      Atomic             Coordinates (Angstroms)
 Number     Number       Type             X           Y           Z
 ---------------------------------------------------------------------
      1          8           0        0.066762    2.295431    0.000000
      2          1           0        0.065756    1.312830    0.000000
      3          1           0       -0.862404    2.615049    0.000000
      4          8           0        0.066762   -2.122330   -0.000000
      5          1           0        0.611830   -2.939892   -0.000000
      6          1           0       -0.883382   -2.372794   -0.000000
 ---------------------------------------------------------------------

 SCF Done:  E(RHF) =  -33.6545674765     A.U. after   11 cycles
 E2 =    -0.2283611763D+00 EUMP2 =    -0.33882928652729D+02
 CCSD(T)
 CCSD(T)= -0.33899857294D+02

 The electronic state is 1-A'.
 Alpha  occ. eigenvalues --   -1.36749  -1.34150  -0.72403  -0.69756  -0.56650
 Alpha  occ. eigenvalues --   -0.53945  -0.51358  -0.48755
 Alpha virt. eigenvalues --    0.18666   0.22180   0.29371   0.32292   0.79214
 Alpha virt. eigenvalues --    0.81741   0.82616   0.84804   0.85191   0.88042
 Alpha virt. eigenvalues --    1.16245   1.19138   1.20653   1.25879   2.55973

 Mulliken charges:
               1
     1  O   -0.752171
     2  H    0.387426
     3  H    0.363965
     4  O   -0.750634
     5  H    0.379306
     6  H    0.372108
 Sum of Mulliken charges =   0.00000

 Dipole moment (field-independent basis, Debye):
    X=             -3.0467    Y=             -4.1402    Z=             -0.0000  Tot=              5.1404
 Quadrupole moment (field-independent basis, Debye-Ang):
   XX=             -9.8964   YY=             -6.9097   ZZ=            -14.9939
   XY=             -4.7013   XZ=             -0.0000   YZ=              0.0000

 9\MP4DQ=-33.8942096\MP4SDQ=-33.8962485\CCSD=-33.8972889\CCSD(T)=-33.89
 Normal termination of Gaussian 16 at Sun Dec 10 06:26:43 2023.
