 Gaussian 16, Revision A.03,
 Gaussian 16:  ES64L-G16RevA.03 25-Dec-2016

 ------------------
 #p CCSD(T)/CEP-31G
 ------------------

 ------------
 H2O_H2O_2198
 ------------
 Symbolic Z-matrix:
 Charge =  0 Multiplicity = 1

                         Standard orientation:
 ---------------------------------------------------------------------
 Center     Atomic      Atomic             Coordinates (Angstroms)
 Number     Number       Type             X           Y           Z
 ---------------------------------------------------------------------
      1          8           0       -0.016674    1.971054    0.000000
      2          1           0       -0.013246    0.988459    0.000000
      3          1           0        0.911702    2.292961    0.000000
      4          8           0       -0.016674   -1.807684    0.000000
      5          1           0       -0.996942   -1.875369    0.000000
      6          1           0        0.365263   -2.713018    0.000000
 ---------------------------------------------------------------------

 SCF Done:  E(RHF) =  -33.6575889266     A.U. after   11 cycles
 E2 =    -0.2284716369D+00 EUMP2 =    -0.33886060563521D+02
 CCSD(T)
 CCSD(T)= -0.33902961018D+02

 The electronic state is 1-A'.
 Alpha  occ. eigenvalues --   -1.37182  -1.33642  -0.72859  -0.69304  -0.57294
 Alpha  occ. eigenvalues --   -0.53512  -0.51828  -0.48302
 Alpha virt. eigenvalues --    0.17907   0.23551   0.29165   0.33972   0.78573
 Alpha virt. eigenvalues --    0.82342   0.82724   0.85445   0.87803   0.89974
 Alpha virt. eigenvalues --    1.15852   1.19845   1.20540   1.33229   2.53897

 Mulliken charges:
               1
     1  O   -0.765872
     2  H    0.396242
     3  H    0.367509
     4  O   -0.761560
     5  H    0.380435
     6  H    0.383246
 Sum of Mulliken charges =   0.00000

 Dipole moment (field-independent basis, Debye):
    X=              0.7514    Y=             -3.9865    Z=              0.0000  Tot=              4.0567
 Quadrupole moment (field-independent basis, Debye-Ang):
   XX=             -9.7583   YY=             -7.9494   ZZ=            -14.9994
   XY=              6.8820   XZ=              0.0000   YZ=              0.0000

 5114\MP4DQ=-33.8972632\MP4SDQ=-33.8993351\CCSD=-33.900361\CCSD(T)=-33.
 Normal termination of Gaussian 16 at Sun Dec 10 07:00:43 2023.
