 Gaussian 16, Revision A.03,
 Gaussian 16:  ES64L-G16RevA.03 25-Dec-2016

 ------------------
 #p CCSD(T)/CEP-31G
 ------------------

 ------------
 H2O_H2O_1132
 ------------
 Symbolic Z-matrix:
 Charge =  0 Multiplicity = 1

                         Standard orientation:
 ---------------------------------------------------------------------
 Center     Atomic      Atomic             Coordinates (Angstroms)
 Number     Number       Type             X           Y           Z
 ---------------------------------------------------------------------
      1          8           0        0.073569    1.554132    0.000000
      2          1           0        0.072449    0.571531    0.000000
      3          1           0       -0.855560    1.873858    0.000000
      4          8           0        0.073569   -1.387249   -0.000000
      5          1           0        0.507158   -2.269013   -0.000000
      6          1           0       -0.901153   -1.511439   -0.000000
 ---------------------------------------------------------------------

 SCF Done:  E(RHF) =  -33.6588154731     A.U. after   11 cycles
 E2 =    -0.2290230339D+00 EUMP2 =    -0.33887838507000D+02
 CCSD(T)
 CCSD(T)= -0.33904588295D+02

 The electronic state is 1-A'.
 Alpha  occ. eigenvalues --   -1.38745  -1.32160  -0.74579  -0.68342  -0.58960
 Alpha  occ. eigenvalues --   -0.53379  -0.51731  -0.46742
 Alpha virt. eigenvalues --    0.17276   0.25726   0.27850   0.42578   0.75853
 Alpha virt. eigenvalues --    0.78911   0.85262   0.85471   0.92765   1.08665
 Alpha virt. eigenvalues --    1.16154   1.17459   1.21912   1.36807   2.51211

 Mulliken charges:
               1
     1  O   -0.769653
     2  H    0.420186
     3  H    0.345848
     4  O   -0.794774
     5  H    0.418412
     6  H    0.379980
 Sum of Mulliken charges =   0.00000

 Dipole moment (field-independent basis, Debye):
    X=             -3.2398    Y=             -4.3694    Z=             -0.0000  Tot=              5.4394
 Quadrupole moment (field-independent basis, Debye-Ang):
   XX=            -10.1850   YY=             -8.7247   ZZ=            -15.0056
   XY=             -3.5334   XZ=             -0.0000   YZ=              0.0000

 187\MP4DQ=-33.8987085\MP4SDQ=-33.9008622\CCSD=-33.9018378\CCSD(T)=-33.
 Normal termination of Gaussian 16 at Sun Dec 10 06:39:48 2023.
