 Gaussian 16, Revision A.03,
 Gaussian 16:  ES64L-G16RevA.03 25-Dec-2016

 ------------------
 #p CCSD(T)/CEP-31G
 ------------------

 ------------
 H2O_H2O_3895
 ------------
 Symbolic Z-matrix:
 Charge =  0 Multiplicity = 1

                         Standard orientation:
 ---------------------------------------------------------------------
 Center     Atomic      Atomic             Coordinates (Angstroms)
 Number     Number       Type             X           Y           Z
 ---------------------------------------------------------------------
      1          8           0        0.026631    2.654501    0.000000
      2          1           0        0.024440    1.671902    0.000000
      3          1           0       -0.902149    2.975239    0.000000
      4          8           0        0.026631   -2.481260   -0.000000
      5          1           0        0.975182   -2.737692   -0.000000
      6          1           0       -0.523564   -3.295379   -0.000000
 ---------------------------------------------------------------------

 SCF Done:  E(RHF) =  -33.6540097671     A.U. after   11 cycles
 E2 =    -0.2282769962D+00 EUMP2 =    -0.33882286763371D+02
 CCSD(T)
 CCSD(T)= -0.33899225125D+02

 The electronic state is 1-A'.
 Alpha  occ. eigenvalues --   -1.36385  -1.34519  -0.72026  -0.70155  -0.56246
 Alpha  occ. eigenvalues --   -0.54327  -0.50989  -0.49127
 Alpha virt. eigenvalues --    0.19413   0.21478   0.29744   0.31738   0.79567
 Alpha virt. eigenvalues --    0.81377   0.82328   0.84363   0.85577   0.87483
 Alpha virt. eigenvalues --    1.16611   1.18516   1.21023   1.23208   2.56560

 Mulliken charges:
               1
     1  O   -0.749778
     2  H    0.380895
     3  H    0.368798
     4  O   -0.748951
     5  H    0.374828
     6  H    0.374208
 Sum of Mulliken charges =  -0.00000

 Dipole moment (field-independent basis, Debye):
    X=             -1.2197    Y=             -4.0804    Z=             -0.0000  Tot=              4.2588
 Quadrupole moment (field-independent basis, Debye-Ang):
   XX=             -9.5274   YY=             -6.1895   ZZ=            -14.9930
   XY=             -8.3933   XZ=             -0.0000   YZ=             -0.0000

 8443\MP4DQ=-33.8935945\MP4SDQ=-33.8956184\CCSD=-33.8966679\CCSD(T)=-33
 Normal termination of Gaussian 16 at Sun Dec 10 06:43:06 2023.
