 Gaussian 16, Revision A.03,
 Gaussian 16:  ES64L-G16RevA.03 25-Dec-2016

 ------------------
 #p CCSD(T)/CEP-31G
 ------------------

 ------------
 H2O_H2O_3058
 ------------
 Symbolic Z-matrix:
 Charge =  0 Multiplicity = 1

                         Standard orientation:
 ---------------------------------------------------------------------
 Center     Atomic      Atomic             Coordinates (Angstroms)
 Number     Number       Type             X           Y           Z
 ---------------------------------------------------------------------
      1          8           0        0.070199    2.323794   -0.000000
      2          1           0        0.069337    1.341193   -0.000000
      3          1           0       -0.859014    2.643276    0.000000
      4          8           0        0.070199   -2.153551   -0.000000
      5          1           0        0.560753   -3.004939   -0.000000
      6          1           0       -0.894264   -2.341477    0.000000
 ---------------------------------------------------------------------

 SCF Done:  E(RHF) =  -33.6542475887     A.U. after   11 cycles
 E2 =    -0.2283579876D+00 EUMP2 =    -0.33882605576357D+02
 CCSD(T)
 CCSD(T)= -0.33899541844D+02

 The electronic state is 1-A'.
 Alpha  occ. eigenvalues --   -1.36718  -1.34249  -0.72374  -0.69854  -0.56600
 Alpha  occ. eigenvalues --   -0.54036  -0.51322  -0.48849
 Alpha virt. eigenvalues --    0.18679   0.22058   0.29377   0.32159   0.79251
 Alpha virt. eigenvalues --    0.81652   0.82491   0.84713   0.85236   0.87975
 Alpha virt. eigenvalues --    1.16255   1.19015   1.20662   1.25503   2.56121

 Mulliken charges:
               1
     1  O   -0.750886
     2  H    0.386134
     3  H    0.364104
     4  O   -0.749783
     5  H    0.378993
     6  H    0.371439
 Sum of Mulliken charges =  -0.00000

 Dipole moment (field-independent basis, Debye):
    X=             -3.2060    Y=             -4.0654    Z=              0.0000  Tot=              5.1775
 Quadrupole moment (field-independent basis, Debye-Ang):
   XX=            -10.0285   YY=             -7.0292   ZZ=            -14.9932
   XY=             -4.4824   XZ=             -0.0000   YZ=              0.0000

 1458\MP4DQ=-33.8938954\MP4SDQ=-33.8959324\CCSD=-33.8969744\CCSD(T)=-33
 Normal termination of Gaussian 16 at Sun Dec 10 06:28:06 2023.
