 Gaussian 16, Revision A.03,
 Gaussian 16:  ES64L-G16RevA.03 25-Dec-2016

 ------------------
 #p CCSD(T)/CEP-31G
 ------------------

 -----------
 H2O_H2O_896
 -----------
 Symbolic Z-matrix:
 Charge =  0 Multiplicity = 1

                         Standard orientation:
 ---------------------------------------------------------------------
 Center     Atomic      Atomic             Coordinates (Angstroms)
 Number     Number       Type             X           Y           Z
 ---------------------------------------------------------------------
      1          8           0       -0.023357    1.456286    0.000000
      2          1           0       -0.019040    0.473694    0.000000
      3          1           0        0.904727    1.779032    0.000000
      4          8           0       -0.023357   -1.285980    0.000000
      5          1           0       -0.986226   -1.481907    0.000000
      6          1           0        0.474250   -2.133267    0.000000
 ---------------------------------------------------------------------

 SCF Done:  E(RHF) =  -33.6619276218     A.U. after   11 cycles
 E2 =    -0.2287345439D+00 EUMP2 =    -0.33890662165693D+02
 CCSD(T)
 CCSD(T)= -0.33907049572D+02

 The electronic state is 1-A'.
 Alpha  occ. eigenvalues --   -1.39302  -1.30994  -0.75120  -0.68339  -0.59477
 Alpha  occ. eigenvalues --   -0.53989  -0.50446  -0.45645
 Alpha virt. eigenvalues --    0.17569   0.26886   0.27705   0.46931   0.75083
 Alpha virt. eigenvalues --    0.77117   0.86362   0.86963   0.92897   1.05927
 Alpha virt. eigenvalues --    1.16202   1.19332   1.23767   1.36898   2.55759

 Mulliken charges:
               1
     1  O   -0.783069
     2  H    0.421165
     3  H    0.353473
     4  O   -0.819989
     5  H    0.402503
     6  H    0.425916
 Sum of Mulliken charges =  -0.00000

 Dipole moment (field-independent basis, Debye):
    X=              1.0420    Y=             -4.5695    Z=              0.0000  Tot=              4.6868
 Quadrupole moment (field-independent basis, Debye-Ang):
   XX=             -9.5432   YY=             -8.9835   ZZ=            -15.0172
   XY=              4.7027   XZ=              0.0000   YZ=              0.0000

 12\MP4DQ=-33.9011718\MP4SDQ=-33.9033121\CCSD=-33.9042391\CCSD(T)=-33.9
 Normal termination of Gaussian 16 at Sun Dec 10 06:35:22 2023.
