 Gaussian 16, Revision A.03,
 Gaussian 16:  ES64L-G16RevA.03 25-Dec-2016

 ------------------
 #p CCSD(T)/CEP-31G
 ------------------

 ------------
 H2O_H2O_1053
 ------------
 Symbolic Z-matrix:
 Charge =  0 Multiplicity = 1

                         Standard orientation:
 ---------------------------------------------------------------------
 Center     Atomic      Atomic             Coordinates (Angstroms)
 Number     Number       Type             X           Y           Z
 ---------------------------------------------------------------------
      1          8           0        0.085613   -1.514810    0.000000
      2          1           0        0.085180   -0.532208    0.000000
      3          1           0       -0.843740   -1.833886    0.000000
      4          8           0        0.085613    1.365240    0.000000
      5          1           0        0.276885    2.329046    0.000000
      6          1           0       -0.888132    1.233603    0.000000
 ---------------------------------------------------------------------

 SCF Done:  E(RHF) =  -33.6542007448     A.U. after   11 cycles
 E2 =    -0.2290975731D+00 EUMP2 =    -0.33883298317896D+02
 CCSD(T)
 CCSD(T)= -0.33900188870D+02

 The electronic state is 1-A'.
 Alpha  occ. eigenvalues --   -1.39064  -1.32782  -0.75274  -0.68603  -0.58958
 Alpha  occ. eigenvalues --   -0.53578  -0.52288  -0.47299
 Alpha virt. eigenvalues --    0.16824   0.25408   0.27657   0.42755   0.75423
 Alpha virt. eigenvalues --    0.79274   0.84961   0.85359   0.91789   1.11705
 Alpha virt. eigenvalues --    1.15696   1.22520   1.22868   1.38071   2.51336

 Mulliken charges:
               1
     1  O   -0.752512
     2  H    0.397078
     3  H    0.344797
     4  O   -0.783068
     5  H    0.421902
     6  H    0.371802
 Sum of Mulliken charges =   0.00000

 Dipole moment (field-independent basis, Debye):
    X=             -3.7855    Y=              3.9805    Z=              0.0000  Tot=              5.4931
 Quadrupole moment (field-independent basis, Debye-Ang):
   XX=            -10.8614   YY=             -9.1482   ZZ=            -14.9957
   XY=              2.8292   XZ=              0.0000   YZ=              0.0000

 5578\MP4DQ=-33.8942377\MP4SDQ=-33.896449\CCSD=-33.897419\CCSD(T)=-33.9
 Normal termination of Gaussian 16 at Sun Dec 10 06:38:19 2023.
