 Gaussian 16, Revision A.03,
 Gaussian 16:  ES64L-G16RevA.03 25-Dec-2016

 ------------------
 #p CCSD(T)/CEP-31G
 ------------------

 ------------
 H2O_H2O_1213
 ------------
 Symbolic Z-matrix:
 Charge =  0 Multiplicity = 1

                         Standard orientation:
 ---------------------------------------------------------------------
 Center     Atomic      Atomic             Coordinates (Angstroms)
 Number     Number       Type             X           Y           Z
 ---------------------------------------------------------------------
      1          8           0        0.052369    1.591074    0.000000
      2          1           0        0.050071    0.608475    0.000000
      3          1           0       -0.876376    1.911913    0.000000
      4          8           0        0.052369   -1.411265   -0.000000
      5          1           0        0.789611   -2.060866   -0.000000
      6          1           0       -0.801215   -1.897988   -0.000000
 ---------------------------------------------------------------------

 SCF Done:  E(RHF) =  -33.6622664842     A.U. after   11 cycles
 E2 =    -0.2290383374D+00 EUMP2 =    -0.33891304821548D+02
 CCSD(T)
 CCSD(T)= -0.33907925748D+02

 The electronic state is 1-A'.
 Alpha  occ. eigenvalues --   -1.38478  -1.31719  -0.74094  -0.68057  -0.58991
 Alpha  occ. eigenvalues --   -0.53200  -0.51382  -0.46367
 Alpha virt. eigenvalues --    0.17709   0.25918   0.28221   0.42437   0.76216
 Alpha virt. eigenvalues --    0.78697   0.85494   0.85688   0.93638   1.00070
 Alpha virt. eigenvalues --    1.14912   1.19396   1.21682   1.34613   2.50432

 Mulliken charges:
               1
     1  O   -0.783134
     2  H    0.432218
     3  H    0.349952
     4  O   -0.795821
     5  H    0.405816
     6  H    0.390968
 Sum of Mulliken charges =  -0.00000

 Dipole moment (field-independent basis, Debye):
    X=             -2.3080    Y=             -4.6349    Z=             -0.0000  Tot=              5.1777
 Quadrupole moment (field-independent basis, Debye-Ang):
   XX=             -9.4841   YY=             -8.4635   ZZ=            -15.0133
   XY=             -4.3063   XZ=             -0.0000   YZ=              0.0000

 125\MP4DQ=-33.9021081\MP4SDQ=-33.9042128\CCSD=-33.905184\CCSD(T)=-33.9
 Normal termination of Gaussian 16 at Sun Dec 10 06:41:23 2023.
