 Gaussian 16, Revision A.03,
 Gaussian 16:  ES64L-G16RevA.03 25-Dec-2016

 ------------------
 #p CCSD(T)/CEP-31G
 ------------------

 ------------
 H2O_H2O_2617
 ------------
 Symbolic Z-matrix:
 Charge =  0 Multiplicity = 1

                         Standard orientation:
 ---------------------------------------------------------------------
 Center     Atomic      Atomic             Coordinates (Angstroms)
 Number     Number       Type             X           Y           Z
 ---------------------------------------------------------------------
      1          8           0        0.037465    2.149033    0.000000
      2          1           0        0.035177    1.166434    0.000000
      3          1           0       -0.891284    2.469862   -0.000000
      4          8           0        0.037465   -1.970085    0.000000
      5          1           0        0.917719   -2.406729    0.000000
      6          1           0       -0.661053   -2.661155   -0.000000
 ---------------------------------------------------------------------

 SCF Done:  E(RHF) =  -33.6564662632     A.U. after   11 cycles
 E2 =    -0.2283804734D+00 EUMP2 =    -0.33884846736573D+02
 CCSD(T)
 CCSD(T)= -0.33901736810D+02

 The electronic state is 1-A'.
 Alpha  occ. eigenvalues --   -1.36916  -1.33716  -0.72564  -0.69346  -0.56939
 Alpha  occ. eigenvalues --   -0.53565  -0.51554  -0.48355
 Alpha virt. eigenvalues --    0.18532   0.22843   0.29354   0.33025   0.78991
 Alpha virt. eigenvalues --    0.82140   0.83708   0.84534   0.85729   0.88200
 Alpha virt. eigenvalues --    1.16160   1.19730   1.20590   1.28191   2.54850

 Mulliken charges:
               1
     1  O   -0.760056
     2  H    0.393457
     3  H    0.365077
     4  O   -0.755811
     5  H    0.380073
     6  H    0.377260
 Sum of Mulliken charges =  -0.00000

 Dipole moment (field-independent basis, Debye):
    X=             -1.7004    Y=             -4.3156    Z=             -0.0000  Tot=              4.6385
 Quadrupole moment (field-independent basis, Debye-Ang):
   XX=             -9.4077   YY=             -6.8916   ZZ=            -14.9979
   XY=             -6.1988   XZ=              0.0000   YZ=             -0.0000

 323\MP4DQ=-33.8960785\MP4SDQ=-33.8981281\CCSD=-33.8991604\CCSD(T)=-33.
 Normal termination of Gaussian 16 at Sun Dec 10 06:20:07 2023.
