 Gaussian 16, Revision A.03,
 Gaussian 16:  ES64L-G16RevA.03 25-Dec-2016

 ------------------
 #p CCSD(T)/CEP-31G
 ------------------

 -----------
 H2O_H2O_334
 -----------
 Symbolic Z-matrix:
 Charge =  0 Multiplicity = 1

                         Standard orientation:
 ---------------------------------------------------------------------
 Center     Atomic      Atomic             Coordinates (Angstroms)
 Number     Number       Type             X           Y           Z
 ---------------------------------------------------------------------
      1          8           0        0.066844    1.238344   -0.000000
      2          1           0        0.064914    0.255745   -0.000000
      3          1           0       -0.862022    1.558836   -0.000000
      4          8           0        0.066844   -1.065369    0.000000
      5          1           0        0.611142   -1.883443    0.000000
      6          1           0       -0.883536   -1.314940    0.000000
 ---------------------------------------------------------------------

 SCF Done:  E(RHF) =  -33.6369735865     A.U. after   11 cycles
 E2 =    -0.2286184374D+00 EUMP2 =    -0.33865592023920D+02
 CCSD(T)
 CCSD(T)= -0.33880939271D+02

 The electronic state is 1-A'.
 Alpha  occ. eigenvalues --   -1.42738  -1.28823  -0.78568  -0.72977  -0.57097
 Alpha  occ. eigenvalues --   -0.56824  -0.47113  -0.43079
 Alpha virt. eigenvalues --    0.16530   0.25557   0.28995   0.57830   0.73520
 Alpha virt. eigenvalues --    0.74422   0.86498   0.90081   0.95764   1.06320
 Alpha virt. eigenvalues --    1.13685   1.19837   1.24868   1.34879   2.83180

 Mulliken charges:
               1
     1  O   -0.746469
     2  H    0.383417
     3  H    0.316443
     4  O   -0.831262
     5  H    0.469035
     6  H    0.408836
 Sum of Mulliken charges =   0.00000

 Dipole moment (field-independent basis, Debye):
    X=             -2.7544    Y=             -5.1602    Z=              0.0000  Tot=              5.8493
 Quadrupole moment (field-independent basis, Debye-Ang):
   XX=             -9.8482   YY=            -10.0360   ZZ=            -14.9782
   XY=             -3.3609   XZ=              0.0000   YZ=             -0.0000

 6\MP4DQ=-33.8748178\MP4SDQ=-33.8771149\CCSD=-33.8778451\CCSD(T)=-33.88
 Normal termination of Gaussian 16 at Sun Dec 10 06:24:38 2023.
