 Gaussian 16, Revision A.03,
 Gaussian 16:  ES64L-G16RevA.03 25-Dec-2016

 ------------------
 #p CCSD(T)/CEP-31G
 ------------------

 ------------
 H2O_H2O_1267
 ------------
 Symbolic Z-matrix:
 Charge =  0 Multiplicity = 1

                         Standard orientation:
 ---------------------------------------------------------------------
 Center     Atomic      Atomic             Coordinates (Angstroms)
 Number     Number       Type             X           Y           Z
 ---------------------------------------------------------------------
      1          8           0        0.037539    1.610520    0.000000
      2          1           0        0.034441    0.627923    0.000000
      3          1           0       -0.890945    1.932115    0.000000
      4          8           0        0.037539   -1.431633   -0.000000
      5          1           0        0.917433   -1.869003   -0.000000
      6          1           0       -0.661549   -2.122127   -0.000000
 ---------------------------------------------------------------------

 SCF Done:  E(RHF) =  -33.6627658485     A.U. after   11 cycles
 E2 =    -0.2289319567D+00 EUMP2 =    -0.33891697805204D+02
 CCSD(T)
 CCSD(T)= -0.33908339629D+02

 The electronic state is 1-A'.
 Alpha  occ. eigenvalues --   -1.38342  -1.31795  -0.73968  -0.68027  -0.58934
 Alpha  occ. eigenvalues --   -0.53070  -0.51510  -0.46470
 Alpha virt. eigenvalues --    0.17820   0.25860   0.28347   0.41800   0.76401
 Alpha virt. eigenvalues --    0.78964   0.85281   0.86161   0.92338   1.00399
 Alpha virt. eigenvalues --    1.15132   1.18965   1.22032   1.34600   2.50221

 Mulliken charges:
               1
     1  O   -0.785605
     2  H    0.429515
     3  H    0.354490
     4  O   -0.794490
     5  H    0.397750
     6  H    0.398340
 Sum of Mulliken charges =   0.00000

 Dipole moment (field-independent basis, Debye):
    X=             -1.6675    Y=             -4.5907    Z=             -0.0000  Tot=              4.8841
 Quadrupole moment (field-independent basis, Debye-Ang):
   XX=             -9.3756   YY=             -8.3930   ZZ=            -15.0139
   XY=             -4.7594   XZ=             -0.0000   YZ=              0.0000

 346\MP4DQ=-33.9025385\MP4SDQ=-33.9046361\CCSD=-33.9056145\CCSD(T)=-33.
 Normal termination of Gaussian 16 at Sun Dec 10 06:42:27 2023.
