 Gaussian 16, Revision A.03,
 Gaussian 16:  ES64L-G16RevA.03 25-Dec-2016

 ------------------
 #p CCSD(T)/CEP-31G
 ------------------

 -----------
 H2O_H2O_482
 -----------
 Symbolic Z-matrix:
 Charge =  0 Multiplicity = 1

                         Standard orientation:
 ---------------------------------------------------------------------
 Center     Atomic      Atomic             Coordinates (Angstroms)
 Number     Number       Type             X           Y           Z
 ---------------------------------------------------------------------
      1          8           0        0.073589    1.294844    0.000000
      2          1           0        0.072229    0.312244    0.000000
      3          1           0       -0.855462    1.614797   -0.000000
      4          8           0        0.073589   -1.127997    0.000000
      5          1           0        0.506963   -2.009866    0.000000
      6          1           0       -0.901162   -1.251950   -0.000000
 ---------------------------------------------------------------------

 SCF Done:  E(RHF) =  -33.6456322563     A.U. after   11 cycles
 E2 =    -0.2287675738D+00 EUMP2 =    -0.33874399830100D+02
 CCSD(T)
 CCSD(T)= -0.33890265687D+02

 The electronic state is 1-A'.
 Alpha  occ. eigenvalues --   -1.41561  -1.29976  -0.77803  -0.70670  -0.58281
 Alpha  occ. eigenvalues --   -0.55838  -0.48747  -0.44340
 Alpha virt. eigenvalues --    0.16658   0.25736   0.28308   0.54240   0.73771
 Alpha virt. eigenvalues --    0.75527   0.85881   0.88978   0.96576   1.07186
 Alpha virt. eigenvalues --    1.15191   1.22617   1.23995   1.35802   2.73657

 Mulliken charges:
               1
     1  O   -0.744783
     2  H    0.392020
     3  H    0.324482
     4  O   -0.831643
     5  H    0.464416
     6  H    0.395507
 Sum of Mulliken charges =   0.00000

 Dipole moment (field-independent basis, Debye):
    X=             -3.0927    Y=             -4.8352    Z=             -0.0000  Tot=              5.7397
 Quadrupole moment (field-independent basis, Debye-Ang):
   XX=            -10.1691   YY=             -9.6717   ZZ=            -14.9908
   XY=             -3.2718   XZ=              0.0000   YZ=             -0.0000

 531\MP4DQ=-33.8841841\MP4SDQ=-33.8864614\CCSD=-33.8872736\CCSD(T)=-33.
 Normal termination of Gaussian 16 at Sun Dec 10 06:27:35 2023.
