 Gaussian 16, Revision A.03,
 Gaussian 16:  ES64L-G16RevA.03 25-Dec-2016

 ------------------
 #p CCSD(T)/CEP-31G
 ------------------

 ------------
 H2O_H2O_2453
 ------------
 Symbolic Z-matrix:
 Charge =  0 Multiplicity = 1

                         Standard orientation:
 ---------------------------------------------------------------------
 Center     Atomic      Atomic             Coordinates (Angstroms)
 Number     Number       Type             X           Y           Z
 ---------------------------------------------------------------------
      1          8           0        0.085604   -2.073248    0.000000
      2          1           0        0.085292   -1.090647    0.000000
      3          1           0       -0.843788   -2.392210    0.000000
      4          8           0        0.085604    1.923658    0.000000
      5          1           0        0.276994    2.887440    0.000000
      6          1           0       -0.888156    1.792140    0.000000
 ---------------------------------------------------------------------

 SCF Done:  E(RHF) =  -33.6537887888     A.U. after   11 cycles
 E2 =    -0.2285413311D+00 EUMP2 =    -0.33882330119801D+02
 CCSD(T)
 CCSD(T)= -0.33899311673D+02

 The electronic state is 1-A'.
 Alpha  occ. eigenvalues --   -1.37095  -1.34352  -0.72790  -0.69927  -0.56965
 Alpha  occ. eigenvalues --   -0.54098  -0.51683  -0.48934
 Alpha virt. eigenvalues --    0.17400   0.22782   0.29043   0.32579   0.78831
 Alpha virt. eigenvalues --    0.81672   0.82970   0.84620   0.87260   0.88164
 Alpha virt. eigenvalues --    1.15620   1.19110   1.20459   1.31020   2.55393

 Mulliken charges:
               1
     1  O   -0.750176
     2  H    0.387589
     3  H    0.361270
     4  O   -0.749355
     5  H    0.382571
     6  H    0.368101
 Sum of Mulliken charges =   0.00000

 Dipole moment (field-independent basis, Debye):
    X=             -3.8977    Y=              3.6268    Z=              0.0000  Tot=              5.3241
 Quadrupole moment (field-independent basis, Debye-Ang):
   XX=            -10.8206   YY=             -8.5677   ZZ=            -14.9910
   XY=              3.0473   XZ=              0.0000   YZ=              0.0000

 76\MP4DQ=-33.8936188\MP4SDQ=-33.8956839\CCSD=-33.8967185\CCSD(T)=-33.8
 Normal termination of Gaussian 16 at Sun Dec 10 07:06:36 2023.
