 Gaussian 16, Revision A.03,
 Gaussian 16:  ES64L-G16RevA.03 25-Dec-2016

 ------------------
 #p CCSD(T)/CEP-31G
 ------------------

 -----------
 H2O_H2O_168
 -----------
 Symbolic Z-matrix:
 Charge =  0 Multiplicity = 1

                         Standard orientation:
 ---------------------------------------------------------------------
 Center     Atomic      Atomic             Coordinates (Angstroms)
 Number     Number       Type             X           Y           Z
 ---------------------------------------------------------------------
      1          8           0        0.034009    1.170932    0.000000
      2          1           0        0.029369    0.188341    0.000000
      3          1           0       -0.893969    1.493984   -0.000000
      4          8           0        0.034009   -0.993576    0.000000
      5          1           0        0.940029   -1.373883    0.000000
      6          1           0       -0.619575   -1.727289   -0.000000
 ---------------------------------------------------------------------

 SCF Done:  E(RHF) =  -33.6178134243     A.U. after   11 cycles
 E2 =    -0.2276682858D+00 EUMP2 =    -0.33845481710081D+02
 CCSD(T)
 CCSD(T)= -0.33860184696D+02

 The electronic state is 1-A'.
 Alpha  occ. eigenvalues --   -1.44589  -1.27128  -0.79812  -0.76161  -0.58205
 Alpha  occ. eigenvalues --   -0.55592  -0.44497  -0.41232
 Alpha virt. eigenvalues --    0.16578   0.25370   0.29979   0.61422   0.73370
 Alpha virt. eigenvalues --    0.73656   0.86956   0.91494   0.92434   1.02960
 Alpha virt. eigenvalues --    1.13985   1.18209   1.29127   1.36163   2.89765

 Mulliken charges:
               1
     1  O   -0.756046
     2  H    0.334383
     3  H    0.317062
     4  O   -0.801302
     5  H    0.443633
     6  H    0.462269
 Sum of Mulliken charges =  -0.00000

 Dipole moment (field-independent basis, Debye):
    X=             -1.4213    Y=             -5.5508    Z=             -0.0000  Tot=              5.7299
 Quadrupole moment (field-independent basis, Debye-Ang):
   XX=             -9.2897   YY=            -10.4986   ZZ=            -14.9535
   XY=             -3.4809   XZ=              0.0000   YZ=             -0.0000

 576\MP4DQ=-33.854069\MP4SDQ=-33.8563571\CCSD=-33.8569901\CCSD(T)=-33.8
 Normal termination of Gaussian 16 at Sun Dec 10 06:21:21 2023.
