 Gaussian 16, Revision A.03,
 Gaussian 16:  ES64L-G16RevA.03 25-Dec-2016

 ------------------
 #p CCSD(T)/CEP-31G
 ------------------

 ------------
 H2O_H2O_1820
 ------------
 Symbolic Z-matrix:
 Charge =  0 Multiplicity = 1

                         Standard orientation:
 ---------------------------------------------------------------------
 Center     Atomic      Atomic             Coordinates (Angstroms)
 Number     Number       Type             X           Y           Z
 ---------------------------------------------------------------------
      1          8           0        0.026723    1.826805    0.000000
      2          1           0        0.023489    0.844209    0.000000
      3          1           0       -0.901717    2.148528    0.000000
      4          8           0        0.026723   -1.653621   -0.000000
      5          1           0        0.975001   -1.911058   -0.000000
      6          1           0       -0.524336   -2.467156   -0.000000
 ---------------------------------------------------------------------

 SCF Done:  E(RHF) =  -33.6596625332     A.U. after   11 cycles
 E2 =    -0.2286189847D+00 EUMP2 =    -0.33888281517928D+02
 CCSD(T)
 CCSD(T)= -0.33905136547D+02

 The electronic state is 1-A'.
 Alpha  occ. eigenvalues --   -1.37533  -1.32957  -0.73201  -0.68670  -0.57854
 Alpha  occ. eigenvalues --   -0.52814  -0.52208  -0.47633
 Alpha virt. eigenvalues --    0.17998   0.24417   0.28921   0.36259   0.77928
 Alpha virt. eigenvalues --    0.81858   0.83278   0.86362   0.88556   0.94481
 Alpha virt. eigenvalues --    1.15602   1.19608   1.20956   1.34589   2.51310

 Mulliken charges:
               1
     1  O   -0.774739
     2  H    0.409057
     3  H    0.363203
     4  O   -0.770522
     5  H    0.385333
     6  H    0.387668
 Sum of Mulliken charges =   0.00000

 Dipole moment (field-independent basis, Debye):
    X=             -1.2007    Y=             -4.2980    Z=             -0.0000  Tot=              4.4625
 Quadrupole moment (field-independent basis, Debye-Ang):
   XX=             -9.5070   YY=             -7.8714   ZZ=            -15.0043
   XY=             -5.8253   XZ=             -0.0000   YZ=             -0.0000

 61\MP4DQ=-33.8994024\MP4SDQ=-33.9014867\CCSD=-33.9025048\CCSD(T)=-33.9
 Normal termination of Gaussian 16 at Sun Dec 10 06:53:14 2023.
