 Gaussian 16, Revision A.03,
 Gaussian 16:  ES64L-G16RevA.03 25-Dec-2016

 ------------------
 #p CCSD(T)/CEP-31G
 ------------------

 -----------
 H2O_H2O_907
 -----------
 Symbolic Z-matrix:
 Charge =  0 Multiplicity = 1

                         Standard orientation:
 ---------------------------------------------------------------------
 Center     Atomic      Atomic             Coordinates (Angstroms)
 Number     Number       Type             X           Y           Z
 ---------------------------------------------------------------------
      1          8           0        0.073575    1.464379   -0.000000
      2          1           0        0.072382    0.481779   -0.000000
      3          1           0       -0.855530    1.784174   -0.000000
      4          8           0        0.073575   -1.297507    0.000000
      5          1           0        0.507098   -2.179303    0.000000
      6          1           0       -0.901156   -1.421626   -0.000000
 ---------------------------------------------------------------------

 SCF Done:  E(RHF) =  -33.6578186891     A.U. after   11 cycles
 E2 =    -0.2290359843D+00 EUMP2 =    -0.33886854673492D+02
 CCSD(T)
 CCSD(T)= -0.33903416220D+02

 The electronic state is 1-A'.
 Alpha  occ. eigenvalues --   -1.39396  -1.31572  -0.75318  -0.68519  -0.59206
 Alpha  occ. eigenvalues --   -0.53998  -0.50981  -0.46114
 Alpha virt. eigenvalues --    0.17109   0.26222   0.27548   0.45994   0.75053
 Alpha virt. eigenvalues --    0.77633   0.85208   0.86594   0.94293   1.09030
 Alpha virt. eigenvalues --    1.16735   1.19316   1.22427   1.36608   2.54878

 Mulliken charges:
               1
     1  O   -0.765546
     2  H    0.418771
     3  H    0.340354
     4  O   -0.809592
     5  H    0.432144
     6  H    0.383869
 Sum of Mulliken charges =   0.00000

 Dipole moment (field-independent basis, Debye):
    X=             -3.1996    Y=             -4.4866    Z=             -0.0000  Tot=              5.5106
 Quadrupole moment (field-independent basis, Debye-Ang):
   XX=            -10.1842   YY=             -8.9948   ZZ=            -15.0069
   XY=             -3.4524   XZ=              0.0000   YZ=             -0.0000

 22\MP4DQ=-33.897482\MP4SDQ=-33.8996654\CCSD=-33.9006034\CCSD(T)=-33.90
 Normal termination of Gaussian 16 at Sun Dec 10 06:35:34 2023.
