 Gaussian 16, Revision A.03,
 Gaussian 16:  ES64L-G16RevA.03 25-Dec-2016

 ------------------
 #p CCSD(T)/CEP-31G
 ------------------

 ------------
 H2O_H2O_4025
 ------------
 Symbolic Z-matrix:
 Charge =  0 Multiplicity = 1

                         Standard orientation:
 ---------------------------------------------------------------------
 Center     Atomic      Atomic             Coordinates (Angstroms)
 Number     Number       Type             X           Y           Z
 ---------------------------------------------------------------------
      1          8           0        0.092949   -2.692353    0.000000
      2          1           0        0.092949   -1.709752    0.000000
      3          1           0       -0.836544   -3.011020    0.000000
      4          8           0        0.092949    2.559566    0.000000
      5          1           0        0.092949    3.542167    0.000000
      6          1           0       -0.836544    2.240899    0.000000
 ---------------------------------------------------------------------

 SCF Done:  E(RHF) =  -33.6520205416     A.U. after   11 cycles
 E2 =    -0.2283665216D+00 EUMP2 =    -0.33880387063123D+02
 CCSD(T)
 CCSD(T)= -0.33897383683D+02

 The electronic state is 1-A'.
 Alpha  occ. eigenvalues --   -1.36420  -1.35128  -0.72073  -0.70741  -0.56177
 Alpha  occ. eigenvalues --   -0.54859  -0.50992  -0.49698
 Alpha virt. eigenvalues --    0.19049   0.20928   0.29596   0.30993   0.79578
 Alpha virt. eigenvalues --    0.80844   0.82512   0.83861   0.85557   0.87120
 Alpha virt. eigenvalues --    1.16399   1.17865   1.20927   1.22503   2.55969

 Mulliken charges:
               1
     1  O   -0.742113
     2  H    0.375397
     3  H    0.366691
     4  O   -0.742602
     5  H    0.375400
     6  H    0.367227
 Sum of Mulliken charges =  -0.00000

 Dipole moment (field-independent basis, Debye):
    X=             -4.2710    Y=              3.1285    Z=              0.0000  Tot=              5.2942
 Quadrupole moment (field-independent basis, Debye-Ang):
   XX=            -11.2844   YY=             -9.6283   ZZ=            -14.9882
   XY=              2.3052   XZ=              0.0000   YZ=              0.0000

 9976\MP4DQ=-33.8917383\MP4SDQ=-33.8937665\CCSD=-33.8948205\CCSD(T)=-33
 Normal termination of Gaussian 16 at Sun Dec 10 06:45:26 2023.
