 Gaussian 16, Revision A.03,
 Gaussian 16:  ES64L-G16RevA.03 25-Dec-2016

 ------------------
 #p CCSD(T)/CEP-31G
 ------------------

 ------------
 H2O_H2O_3497
 ------------
 Symbolic Z-matrix:
 Charge =  0 Multiplicity = 1

                         Standard orientation:
 ---------------------------------------------------------------------
 Center     Atomic      Atomic             Coordinates (Angstroms)
 Number     Number       Type             X           Y           Z
 ---------------------------------------------------------------------
      1          8           0       -0.019847    2.491622    0.000000
      2          1           0       -0.017271    1.509024    0.000000
      3          1           0        0.908807    2.812724    0.000000
      4          8           0       -0.019847   -2.324512    0.000000
      5          1           0       -0.993703   -2.455320    0.000000
      6          1           0        0.419722   -3.203310    0.000000
 ---------------------------------------------------------------------

 SCF Done:  E(RHF) =  -33.6544933077     A.U. after   11 cycles
 E2 =    -0.2282751637D+00 EUMP2 =    -0.33882768471405D+02
 CCSD(T)
 CCSD(T)= -0.33899695067D+02

 The electronic state is 1-A'.
 Alpha  occ. eigenvalues --   -1.36502  -1.34434  -0.72148  -0.70074  -0.56390
 Alpha  occ. eigenvalues --   -0.54256  -0.51112  -0.49050
 Alpha virt. eigenvalues --    0.19134   0.21710   0.29632   0.31886   0.79449
 Alpha virt. eigenvalues --    0.81446   0.82229   0.84379   0.85490   0.87585
 Alpha virt. eigenvalues --    1.16497   1.18718   1.20890   1.23900   2.56470

 Mulliken charges:
               1
     1  O   -0.751684
     2  H    0.382344
     3  H    0.369101
     4  O   -0.750676
     5  H    0.375306
     6  H    0.375608
 Sum of Mulliken charges =   0.00000

 Dipole moment (field-independent basis, Debye):
    X=              0.9069    Y=             -3.9530    Z=              0.0000  Tot=              4.0557
 Quadrupole moment (field-independent basis, Debye-Ang):
   XX=             -9.6763   YY=             -6.9189   ZZ=            -14.9939
   XY=              8.4452   XZ=              0.0000   YZ=              0.0000

 11\MP4DQ=-33.894063\MP4SDQ=-33.8960895\CCSD=-33.8971359\CCSD(T)=-33.89
 Normal termination of Gaussian 16 at Sun Dec 10 06:35:57 2023.
