 Gaussian 16, Revision A.03,
 Gaussian 16:  ES64L-G16RevA.03 25-Dec-2016

 ------------------
 #p CCSD(T)/CEP-31G
 ------------------

 ------------
 H2O_H2O_1752
 ------------
 Symbolic Z-matrix:
 Charge =  0 Multiplicity = 1

                         Standard orientation:
 ---------------------------------------------------------------------
 Center     Atomic      Atomic             Coordinates (Angstroms)
 Number     Number       Type             X           Y           Z
 ---------------------------------------------------------------------
      1          8           0        0.088236   -1.791166    0.000000
      2          1           0        0.088003   -0.808564    0.000000
      3          1           0       -0.841182   -2.110053    0.000000
      4          8           0        0.088236    1.646856    0.000000
      5          1           0        0.216260    2.621082    0.000000
      6          1           0       -0.874854    1.452011    0.000000
 ---------------------------------------------------------------------

 SCF Done:  E(RHF) =  -33.6542867796     A.U. after   11 cycles
 E2 =    -0.2288944856D+00 EUMP2 =    -0.33883181265234D+02
 CCSD(T)
 CCSD(T)= -0.33900214791D+02

 The electronic state is 1-A'.
 Alpha  occ. eigenvalues --   -1.37758  -1.33996  -0.73583  -0.69517  -0.57708
 Alpha  occ. eigenvalues --   -0.53690  -0.52333  -0.48561
 Alpha virt. eigenvalues --    0.16868   0.24004   0.28474   0.35498   0.77659
 Alpha virt. eigenvalues --    0.82004   0.82661   0.84773   0.88625   0.98668
 Alpha virt. eigenvalues --    1.15245   1.18129   1.21120   1.38672   2.52408

 Mulliken charges:
               1
     1  O   -0.754413
     2  H    0.395272
     3  H    0.355984
     4  O   -0.756301
     5  H    0.392628
     6  H    0.366830
 Sum of Mulliken charges =   0.00000

 Dipole moment (field-independent basis, Debye):
    X=             -3.9831    Y=              3.6082    Z=              0.0000  Tot=              5.3744
 Quadrupole moment (field-independent basis, Debye-Ang):
   XX=            -11.0038   YY=             -9.0333   ZZ=            -14.9909
   XY=              2.7226   XZ=              0.0000   YZ=              0.0000

 951\MP4DQ=-33.8944175\MP4SDQ=-33.8965428\CCSD=-33.8975616\CCSD(T)=-33.
 Normal termination of Gaussian 16 at Sun Dec 10 06:51:58 2023.
