 Gaussian 16, Revision A.03,
 Gaussian 16:  ES64L-G16RevA.03 25-Dec-2016

 ------------------
 #p CCSD(T)/CEP-31G
 ------------------

 ----------
 H2O_H2O_67
 ----------
 Symbolic Z-matrix:
 Charge =  0 Multiplicity = 1

                         Standard orientation:
 ---------------------------------------------------------------------
 Center     Atomic      Atomic             Coordinates (Angstroms)
 Number     Number       Type             X           Y           Z
 ---------------------------------------------------------------------
      1          8           0        0.037668    1.131816    0.000000
      2          1           0        0.033149    0.149225    0.000000
      3          1           0       -0.890349    1.454754    0.000000
      4          8           0        0.037668   -0.953039    0.000000
      5          1           0        0.916928   -1.391681    0.000000
      6          1           0       -0.662419   -1.642520    0.000000
 ---------------------------------------------------------------------

 SCF Done:  E(RHF) =  -33.5961756526     A.U. after   11 cycles
 E2 =    -0.2272149372D+00 EUMP2 =    -0.33823390589801D+02
 CCSD(T)
 CCSD(T)= -0.33837837094D+02

 The electronic state is 1-A'.
 Alpha  occ. eigenvalues --   -1.46179  -1.26401  -0.81106  -0.78193  -0.59232
 Alpha  occ. eigenvalues --   -0.54356  -0.43098  -0.40300
 Alpha virt. eigenvalues --    0.16286   0.24900   0.30519   0.62453   0.73239
 Alpha virt. eigenvalues --    0.73578   0.85546   0.91943   0.92178   1.05520
 Alpha virt. eigenvalues --    1.13238   1.17306   1.30771   1.36906   2.95920

 Mulliken charges:
               1
     1  O   -0.748553
     2  H    0.288969
     3  H    0.307227
     4  O   -0.763633
     5  H    0.452976
     6  H    0.463015
 Sum of Mulliken charges =   0.00000

 Dipole moment (field-independent basis, Debye):
    X=             -1.5389    Y=             -5.7825    Z=              0.0000  Tot=              5.9838
 Quadrupole moment (field-independent basis, Debye-Ang):
   XX=             -9.2532   YY=            -10.7762   ZZ=            -14.9233
   XY=             -3.3222   XZ=              0.0000   YZ=              0.0000

 6\MP4DQ=-33.8316543\MP4SDQ=-33.8340025\CCSD=-33.8345789\CCSD(T)=-33.83
 Normal termination of Gaussian 16 at Sun Dec 10 06:19:21 2023.
