 Gaussian 16, Revision A.03,
 Gaussian 16:  ES64L-G16RevA.03 25-Dec-2016

 ------------------
 #p CCSD(T)/CEP-31G
 ------------------

 ------------
 H2O_H2O_3664
 ------------
 Symbolic Z-matrix:
 Charge =  0 Multiplicity = 1

                         Standard orientation:
 ---------------------------------------------------------------------
 Center     Atomic      Atomic             Coordinates (Angstroms)
 Number     Number       Type             X           Y           Z
 ---------------------------------------------------------------------
      1          8           0        0.048569    2.568640    0.000000
      2          1           0        0.047050    1.586040    0.000000
      3          1           0       -0.880430    2.888744   -0.000000
      4          8           0        0.048569   -2.388237    0.000000
      5          1           0        0.827194   -2.987613    0.000000
      6          1           0       -0.770925   -2.930396   -0.000000
 ---------------------------------------------------------------------

 SCF Done:  E(RHF) =  -33.6541160951     A.U. after   11 cycles
 E2 =    -0.2282914943D+00 EUMP2 =    -0.33882407589384D+02
 CCSD(T)
 CCSD(T)= -0.33899341695D+02

 The electronic state is 1-A'.
 Alpha  occ. eigenvalues --   -1.36462  -1.34356  -0.72105  -0.69981  -0.56333
 Alpha  occ. eigenvalues --   -0.54158  -0.51068  -0.48962
 Alpha virt. eigenvalues --    0.19305   0.21683   0.29684   0.31913   0.79494
 Alpha virt. eigenvalues --    0.81536   0.82253   0.84563   0.85493   0.87688
 Alpha virt. eigenvalues --    1.16538   1.18710   1.20972   1.23525   2.56502

 Mulliken charges:
               1
     1  O   -0.750186
     2  H    0.383166
     3  H    0.366838
     4  O   -0.749140
     5  H    0.376282
     6  H    0.373039
 Sum of Mulliken charges =  -0.00000

 Dipole moment (field-independent basis, Debye):
    X=             -2.2232    Y=             -4.2633    Z=             -0.0000  Tot=              4.8081
 Quadrupole moment (field-independent basis, Debye-Ang):
   XX=             -9.4611   YY=             -5.8652   ZZ=            -14.9933
   XY=             -6.4511   XZ=              0.0000   YZ=             -0.0000

 9595\MP4DQ=-33.89371\MP4SDQ=-33.8957356\CCSD=-33.8967834\CCSD(T)=-33.8
 Normal termination of Gaussian 16 at Sun Dec 10 06:38:56 2023.
