 Gaussian 16, Revision A.03,
 Gaussian 16:  ES64L-G16RevA.03 25-Dec-2016

 ------------------
 #p CCSD(T)/CEP-31G
 ------------------

 ------------
 H2O_H2O_3866
 ------------
 Symbolic Z-matrix:
 Charge =  0 Multiplicity = 1

                         Standard orientation:
 ---------------------------------------------------------------------
 Center     Atomic      Atomic             Coordinates (Angstroms)
 Number     Number       Type             X           Y           Z
 ---------------------------------------------------------------------
      1          8           0        0.041120    2.648167   -0.000000
      2          1           0        0.039401    1.665567   -0.000000
      3          1           0       -0.887814    2.968459   -0.000000
      4          8           0        0.041120   -2.468224    0.000000
      5          1           0        0.891217   -2.961012    0.000000
      6          1           0       -0.700728   -3.112558    0.000000
 ---------------------------------------------------------------------

 SCF Done:  E(RHF) =  -33.6539744331     A.U. after   11 cycles
 E2 =    -0.2282848133D+00 EUMP2 =    -0.33882259246400D+02
 CCSD(T)
 CCSD(T)= -0.33899197572D+02

 The electronic state is 1-A'.
 Alpha  occ. eigenvalues --   -1.36399  -1.34439  -0.72039  -0.70068  -0.56260
 Alpha  occ. eigenvalues --   -0.54241  -0.51002  -0.49044
 Alpha virt. eigenvalues --    0.19409   0.21557   0.29740   0.31813   0.79556
 Alpha virt. eigenvalues --    0.81458   0.82313   0.84466   0.85571   0.87580
 Alpha virt. eigenvalues --    1.16596   1.18593   1.21030   1.23262   2.56553

 Mulliken charges:
               1
     1  O   -0.749637
     2  H    0.381875
     3  H    0.367661
     4  O   -0.748702
     5  H    0.375511
     6  H    0.373292
 Sum of Mulliken charges =  -0.00000

 Dipole moment (field-independent basis, Debye):
    X=             -1.8836    Y=             -4.2417    Z=              0.0000  Tot=              4.6411
 Quadrupole moment (field-independent basis, Debye-Ang):
   XX=             -9.4117   YY=             -5.7137   ZZ=            -14.9930
   XY=             -7.1975   XZ=              0.0000   YZ=             -0.0000

 67\MP4DQ=-33.8935668\MP4SDQ=-33.895591\CCSD=-33.8966403\CCSD(T)=-33.89
 Normal termination of Gaussian 16 at Sun Dec 10 06:42:34 2023.
