 Gaussian 16, Revision A.03,
 Gaussian 16:  ES64L-G16RevA.03 25-Dec-2016

 ------------------
 #p CCSD(T)/CEP-31G
 ------------------

 -----------
 H2O_H2O_852
 -----------
 Symbolic Z-matrix:
 Charge =  0 Multiplicity = 1

                         Standard orientation:
 ---------------------------------------------------------------------
 Center     Atomic      Atomic             Coordinates (Angstroms)
 Number     Number       Type             X           Y           Z
 ---------------------------------------------------------------------
      1          8           0        0.088240   -1.432171    0.000000
      2          1           0        0.087946   -0.449570    0.000000
      3          1           0       -0.841157   -1.751116    0.000000
      4          8           0        0.088240    1.287872    0.000000
      5          1           0        0.216204    2.262107    0.000000
      6          1           0       -0.874837    1.092967    0.000000
 ---------------------------------------------------------------------

 SCF Done:  E(RHF) =  -33.6499991037     A.U. after   11 cycles
 E2 =    -0.2291431585D+00 EUMP2 =    -0.33879142262134D+02
 CCSD(T)
 CCSD(T)= -0.33895945422D+02

 The electronic state is 1-A'.
 Alpha  occ. eigenvalues --   -1.39795  -1.32560  -0.76421  -0.68527  -0.59227
 Alpha  occ. eigenvalues --   -0.54178  -0.51932  -0.47016
 Alpha virt. eigenvalues --    0.16625   0.25404   0.27604   0.45619   0.74636
 Alpha virt. eigenvalues --    0.78606   0.84990   0.86217   0.92556   1.11581
 Alpha virt. eigenvalues --    1.14706   1.23187   1.30806   1.36657   2.54010

 Mulliken charges:
               1
     1  O   -0.738028
     2  H    0.377656
     3  H    0.340275
     4  O   -0.783809
     5  H    0.433027
     6  H    0.370879
 Sum of Mulliken charges =   0.00000

 Dipole moment (field-independent basis, Debye):
    X=             -3.8723    Y=              3.9622    Z=              0.0000  Tot=              5.5402
 Quadrupole moment (field-independent basis, Debye-Ang):
   XX=            -11.0414   YY=             -9.4167   ZZ=            -14.9908
   XY=              2.6044   XZ=              0.0000   YZ=              0.0000

 47\MP4DQ=-33.8899117\MP4SDQ=-33.8921789\CCSD=-33.8931122\CCSD(T)=-33.8
 Normal termination of Gaussian 16 at Sun Dec 10 06:34:32 2023.
