 Gaussian 16, Revision A.03,
 Gaussian 16:  ES64L-G16RevA.03 25-Dec-2016

 ------------------
 #p CCSD(T)/CEP-31G
 ------------------

 -----------
 H2O_H2O_566
 -----------
 Symbolic Z-matrix:
 Charge =  0 Multiplicity = 1

                         Standard orientation:
 ---------------------------------------------------------------------
 Center     Atomic      Atomic             Coordinates (Angstroms)
 Number     Number       Type             X           Y           Z
 ---------------------------------------------------------------------
      1          8           0        0.041287    1.331800   -0.000000
      2          1           0        0.037746    0.349205   -0.000000
      3          1           0       -0.887052    1.653813   -0.000000
      4          8           0        0.041287   -1.152009    0.000000
      5          1           0        0.890469   -1.646374    0.000000
      6          1           0       -0.701754   -1.794968    0.000000
 ---------------------------------------------------------------------

 SCF Done:  E(RHF) =  -33.6563160332     A.U. after   11 cycles
 E2 =    -0.2288787468D+00 EUMP2 =    -0.33885194780012D+02
 CCSD(T)
 CCSD(T)= -0.33900887659D+02

 The electronic state is 1-A'.
 Alpha  occ. eigenvalues --   -1.40805  -1.29398  -0.76040  -0.71016  -0.58494
 Alpha  occ. eigenvalues --   -0.55421  -0.48283  -0.43892
 Alpha virt. eigenvalues --    0.17165   0.26962   0.28160   0.53908   0.74103
 Alpha virt. eigenvalues --    0.74426   0.85629   0.89041   0.96076   0.99992
 Alpha virt. eigenvalues --    1.14978   1.17923   1.24635   1.37013   2.67035

 Mulliken charges:
               1
     1  O   -0.777654
     2  H    0.423286
     3  H    0.334782
     4  O   -0.833624
     5  H    0.426800
     6  H    0.426411
 Sum of Mulliken charges =  -0.00000

 Dipole moment (field-independent basis, Debye):
    X=             -1.7704    Y=             -5.0455    Z=              0.0000  Tot=              5.3471
 Quadrupole moment (field-independent basis, Debye-Ang):
   XX=             -9.3249   YY=             -9.6210   ZZ=            -15.0129
   XY=             -3.8969   XZ=              0.0000   YZ=             -0.0000

 23\MP4DQ=-33.894931\MP4SDQ=-33.8971024\CCSD=-33.8979071\CCSD(T)=-33.90
 Normal termination of Gaussian 16 at Sun Dec 10 06:29:11 2023.
