 Gaussian 16, Revision A.03,
 Gaussian 16:  ES64L-G16RevA.03 25-Dec-2016

 ------------------
 #p CCSD(T)/CEP-31G
 ------------------

 ------------
 H2O_H2O_4723
 ------------
 Symbolic Z-matrix:
 Charge =  0 Multiplicity = 1

                         Standard orientation:
 ---------------------------------------------------------------------
 Center     Atomic      Atomic             Coordinates (Angstroms)
 Number     Number       Type             X           Y           Z
 ---------------------------------------------------------------------
      1          8           0       -0.016575    2.978236    0.000000
      2          1           0       -0.014339    1.995637    0.000000
      3          1           0        0.912191    3.299017    0.000000
      4          8           0       -0.016575   -2.814825    0.000000
      5          1           0       -0.996924   -2.881320    0.000000
      6          1           0        0.364263   -3.720622    0.000000
 ---------------------------------------------------------------------

 SCF Done:  E(RHF) =  -33.6532450238     A.U. after   11 cycles
 E2 =    -0.2282956318D+00 EUMP2 =    -0.33881540655644D+02
 CCSD(T)
 CCSD(T)= -0.33898501081D+02

 The electronic state is 1-A'.
 Alpha  occ. eigenvalues --   -1.36209  -1.34862  -0.71849  -0.70501  -0.56024
 Alpha  occ. eigenvalues --   -0.54650  -0.50802  -0.49460
 Alpha virt. eigenvalues --    0.19633   0.21021   0.29894   0.31294   0.79748
 Alpha virt. eigenvalues --    0.81062   0.82625   0.84047   0.85781   0.87139
 Alpha virt. eigenvalues --    1.16756   1.18107   1.21199   1.22590   2.56724

 Mulliken charges:
               1
     1  O   -0.746781
     2  H    0.376701
     3  H    0.370076
     4  O   -0.746444
     5  H    0.373052
     6  H    0.373396
 Sum of Mulliken charges =   0.00000

 Dipole moment (field-independent basis, Debye):
    X=              0.7616    Y=             -3.8247    Z=              0.0000  Tot=              3.8998
 Quadrupole moment (field-independent basis, Debye-Ang):
   XX=             -9.7745   YY=             -6.4812   ZZ=            -14.9914
   XY=             10.4491   XZ=              0.0000   YZ=              0.0000

 99\MP4DQ=-33.892867\MP4SDQ=-33.8948909\CCSD=-33.8959437\CCSD(T)=-33.89
 Normal termination of Gaussian 16 at Sun Dec 10 06:58:01 2023.
