 Gaussian 16, Revision A.03,
 Gaussian 16:  ES64L-G16RevA.03 25-Dec-2016

 ------------------
 #p CCSD(T)/CEP-31G
 ------------------

 ------------
 H2O_H2O_4444
 ------------
 Symbolic Z-matrix:
 Charge =  0 Multiplicity = 1

                         Standard orientation:
 ---------------------------------------------------------------------
 Center     Atomic      Atomic             Coordinates (Angstroms)
 Number     Number       Type             X           Y           Z
 ---------------------------------------------------------------------
      1          8           0        0.030149    2.875182    0.000000
      2          1           0        0.028238    1.892582    0.000000
      3          1           0       -0.898722    3.195655    0.000000
      4          8           0        0.030149   -2.699547   -0.000000
      5          1           0        0.959988   -3.017204   -0.000000
      6          1           0       -0.571894   -3.476111   -0.000000
 ---------------------------------------------------------------------

 SCF Done:  E(RHF) =  -33.6534810719     A.U. after   11 cycles
 E2 =    -0.2282904580D+00 EUMP2 =    -0.33881771529949D+02
 CCSD(T)
 CCSD(T)= -0.33898724462D+02

 The electronic state is 1-A'.
 Alpha  occ. eigenvalues --   -1.36261  -1.34676  -0.71900  -0.70311  -0.56091
 Alpha  occ. eigenvalues --   -0.54468  -0.50858  -0.49276
 Alpha virt. eigenvalues --    0.19586   0.21236   0.29851   0.31518   0.79694
 Alpha virt. eigenvalues --    0.81239   0.82531   0.84225   0.85728   0.87327
 Alpha virt. eigenvalues --    1.16714   1.18304   1.21152   1.22817   2.56676

 Mulliken charges:
               1
     1  O   -0.747715
     2  H    0.378692
     3  H    0.369009
     4  O   -0.747127
     5  H    0.374015
     6  H    0.373126
 Sum of Mulliken charges =  -0.00000

 Dipole moment (field-independent basis, Debye):
    X=             -1.3840    Y=             -4.1192    Z=             -0.0000  Tot=              4.3455
 Quadrupole moment (field-independent basis, Debye-Ang):
   XX=             -9.4752   YY=             -5.5621   ZZ=            -14.9920
   XY=             -8.7386   XZ=             -0.0000   YZ=             -0.0000

 44\MP4DQ=-33.8930921\MP4SDQ=-33.8951156\CCSD=-33.8961675\CCSD(T)=-33.8
 Normal termination of Gaussian 16 at Sun Dec 10 06:52:59 2023.
