 Gaussian 16, Revision A.03,
 Gaussian 16:  ES64L-G16RevA.03 25-Dec-2016

 ------------------
 #p CCSD(T)/CEP-31G
 ------------------

 ------------
 H2O_H2O_4618
 ------------
 Symbolic Z-matrix:
 Charge =  0 Multiplicity = 1

                         Standard orientation:
 ---------------------------------------------------------------------
 Center     Atomic      Atomic             Coordinates (Angstroms)
 Number     Number       Type             X           Y           Z
 ---------------------------------------------------------------------
      1          8           0        0.033749    2.946028    0.000000
      2          1           0        0.031991    1.963428    0.000000
      3          1           0       -0.895173    3.266356    0.000000
      4          8           0        0.033749   -2.768473    0.000000
      5          1           0        0.940881   -3.146121    0.000000
      6          1           0       -0.617679   -3.504101    0.000000
 ---------------------------------------------------------------------

 SCF Done:  E(RHF) =  -33.6533403235     A.U. after   11 cycles
 E2 =    -0.2282964427D+00 EUMP2 =    -0.33881636766218D+02
 CCSD(T)
 CCSD(T)= -0.33898593485D+02

 The electronic state is 1-A'.
 Alpha  occ. eigenvalues --   -1.36229  -1.34709  -0.71868  -0.70342  -0.56052
 Alpha  occ. eigenvalues --   -0.54496  -0.50824  -0.49306
 Alpha virt. eigenvalues --    0.19619   0.21189   0.29876   0.31470   0.79727
 Alpha virt. eigenvalues --    0.81212   0.82585   0.84199   0.85771   0.87303
 Alpha virt. eigenvalues --    1.16739   1.18262   1.21182   1.22759   2.56709

 Mulliken charges:
               1
     1  O   -0.747163
     2  H    0.378227
     3  H    0.368929
     4  O   -0.746621
     5  H    0.373886
     6  H    0.372742
 Sum of Mulliken charges =  -0.00000

 Dipole moment (field-independent basis, Debye):
    X=             -1.5501    Y=             -4.1603    Z=              0.0000  Tot=              4.4397
 Quadrupole moment (field-independent basis, Debye-Ang):
   XX=             -9.4375   YY=             -5.2496   ZZ=            -14.9917
   XY=             -8.6008   XZ=              0.0000   YZ=              0.0000

 129\MP4DQ=-33.8929604\MP4SDQ=-33.8949841\CCSD=-33.8960364\CCSD(T)=-33.
 Normal termination of Gaussian 16 at Sun Dec 10 06:56:07 2023.
