 Gaussian 16, Revision A.03,
 Gaussian 16:  ES64L-G16RevA.03 25-Dec-2016

 ------------------
 #p CCSD(T)/CEP-31G
 ------------------

 ------------
 H2O_H2O_1550
 ------------
 Symbolic Z-matrix:
 Charge =  0 Multiplicity = 1

                         Standard orientation:
 ---------------------------------------------------------------------
 Center     Atomic      Atomic             Coordinates (Angstroms)
 Number     Number       Type             X           Y           Z
 ---------------------------------------------------------------------
      1          8           0        0.092949   -1.705131    0.000000
      2          1           0        0.092949   -0.722530    0.000000
      3          1           0       -0.836544   -2.023798    0.000000
      4          8           0        0.092949    1.572345    0.000000
      5          1           0        0.092949    2.554946    0.000000
      6          1           0       -0.836544    1.253677    0.000000
 ---------------------------------------------------------------------

 SCF Done:  E(RHF) =  -33.6527162626     A.U. after   11 cycles
 E2 =    -0.2291252001D+00 EUMP2 =    -0.33881841462781D+02
 CCSD(T)
 CCSD(T)= -0.33898920820D+02

 The electronic state is 1-A'.
 Alpha  occ. eigenvalues --   -1.38077  -1.34209  -0.74084  -0.69619  -0.57948
 Alpha  occ. eigenvalues --   -0.53850  -0.52613  -0.48741
 Alpha virt. eigenvalues --    0.16521   0.24255   0.28240   0.36761   0.77028
 Alpha virt. eigenvalues --    0.81579   0.82954   0.84530   0.88564   1.04025
 Alpha virt. eigenvalues --    1.15689   1.17130   1.21784   1.39833   2.51906

 Mulliken charges:
               1
     1  O   -0.749232
     2  H    0.389697
     3  H    0.354556
     4  O   -0.753539
     5  H    0.395890
     6  H    0.362627
 Sum of Mulliken charges =   0.00000

 Dipole moment (field-independent basis, Debye):
    X=             -4.1832    Y=              3.3657    Z=              0.0000  Tot=              5.3691
 Quadrupole moment (field-independent basis, Debye-Ang):
   XX=            -11.3335   YY=             -9.5677   ZZ=            -14.9870
   XY=              2.2630   XZ=              0.0000   YZ=              0.0000

 94\MP4DQ=-33.8930652\MP4SDQ=-33.8952257\CCSD=-33.8962312\CCSD(T)=-33.8
 Normal termination of Gaussian 16 at Sun Dec 10 06:48:05 2023.
