 Gaussian 16, Revision A.03,
 Gaussian 16:  ES64L-G16RevA.03 25-Dec-2016

 ------------------
 #p CCSD(T)/CEP-31G
 ------------------

 ------------
 H2O_H2O_1325
 ------------
 Symbolic Z-matrix:
 Charge =  0 Multiplicity = 1

                         Standard orientation:
 ---------------------------------------------------------------------
 Center     Atomic      Atomic             Coordinates (Angstroms)
 Number     Number       Type             X           Y           Z
 ---------------------------------------------------------------------
      1          8           0        0.092949   -1.615384    0.000000
      2          1           0        0.092949   -0.632782    0.000000
      3          1           0       -0.836544   -1.934050    0.000000
      4          8           0        0.092949    1.482597    0.000000
      5          1           0        0.092950    2.465199    0.000000
      6          1           0       -0.836544    1.163930    0.000000
 ---------------------------------------------------------------------

 SCF Done:  E(RHF) =  -33.6520827633     A.U. after   11 cycles
 E2 =    -0.2292658657D+00 EUMP2 =    -0.33881348629040D+02
 CCSD(T)
 CCSD(T)= -0.33898419368D+02

 The electronic state is 1-A'.
 Alpha  occ. eigenvalues --   -1.38486  -1.33967  -0.74690  -0.69315  -0.58336
 Alpha  occ. eigenvalues --   -0.53561  -0.52989  -0.48479
 Alpha virt. eigenvalues --    0.16523   0.24622   0.28004   0.38826   0.76269
 Alpha virt. eigenvalues --    0.80890   0.83738   0.84572   0.89255   1.09659
 Alpha virt. eigenvalues --    1.15821   1.17798   1.22394   1.39854   2.50721

 Mulliken charges:
               1
     1  O   -0.746932
     2  H    0.387223
     3  H    0.351478
     4  O   -0.757265
     5  H    0.403049
     6  H    0.362447
 Sum of Mulliken charges =  -0.00000

 Dipole moment (field-independent basis, Debye):
    X=             -4.1612    Y=              3.4335    Z=              0.0000  Tot=              5.3949
 Quadrupole moment (field-independent basis, Debye-Ang):
   XX=            -11.3444   YY=             -9.5878   ZZ=            -14.9869
   XY=              2.2510   XZ=              0.0000   YZ=              0.0000

 45\MP4DQ=-33.8925045\MP4SDQ=-33.8947006\CCSD=-33.8956895\CCSD(T)=-33.8
 Normal termination of Gaussian 16 at Sun Dec 10 06:43:36 2023.
