 Gaussian 16, Revision A.03,
 Gaussian 16:  ES64L-G16RevA.03 25-Dec-2016

 ------------------
 #p CCSD(T)/CEP-31G
 ------------------

 ------------
 H2O_H2O_1856
 ------------
 Symbolic Z-matrix:
 Charge =  0 Multiplicity = 1

                         Standard orientation:
 ---------------------------------------------------------------------
 Center     Atomic      Atomic             Coordinates (Angstroms)
 Number     Number       Type             X           Y           Z
 ---------------------------------------------------------------------
      1          8           0        0.076773    1.841306    0.000000
      2          1           0        0.075992    0.858705    0.000000
      3          1           0       -0.852467    2.160711   -0.000000
      4          8           0        0.076773   -1.678124    0.000000
      5          1           0        0.452077   -2.586229    0.000000
      6          1           0       -0.903964   -1.738638   -0.000000
 ---------------------------------------------------------------------

 SCF Done:  E(RHF) =  -33.6564166977     A.U. after   11 cycles
 E2 =    -0.2287394949D+00 EUMP2 =    -0.33885156192558D+02
 CCSD(T)
 CCSD(T)= -0.33902112777D+02

 The electronic state is 1-A'.
 Alpha  occ. eigenvalues --   -1.37586  -1.33487  -0.73306  -0.69084  -0.57674
 Alpha  occ. eigenvalues --   -0.53239  -0.52204  -0.48091
 Alpha virt. eigenvalues --    0.17507   0.23975   0.28697   0.35399   0.77965
 Alpha virt. eigenvalues --    0.82276   0.82862   0.85208   0.89141   0.94901
 Alpha virt. eigenvalues --    1.15303   1.19230   1.20701   1.36149   2.51887

 Mulliken charges:
               1
     1  O   -0.761974
     2  H    0.403039
     3  H    0.356513
     4  O   -0.761549
     5  H    0.391487
     6  H    0.372484
 Sum of Mulliken charges =  -0.00000

 Dipole moment (field-independent basis, Debye):
    X=             -3.4630    Y=             -4.0549    Z=             -0.0000  Tot=              5.3324
 Quadrupole moment (field-independent basis, Debye-Ang):
   XX=            -10.3365   YY=             -8.2094   ZZ=            -14.9967
   XY=             -3.5896   XZ=              0.0000   YZ=             -0.0000

 22\MP4DQ=-33.8963549\MP4SDQ=-33.8984552\CCSD=-33.8994781\CCSD(T)=-33.9
 Normal termination of Gaussian 16 at Sun Dec 10 06:53:55 2023.
