 Gaussian 16, Revision A.03,
 Gaussian 16:  ES64L-G16RevA.03 25-Dec-2016

 ------------------
 #p CCSD(T)/CEP-31G
 ------------------

 -----------
 H2O_H2O_159
 -----------
 Symbolic Z-matrix:
 Charge =  0 Multiplicity = 1

                         Standard orientation:
 ---------------------------------------------------------------------
 Center     Atomic      Atomic             Coordinates (Angstroms)
 Number     Number       Type             X           Y           Z
 ---------------------------------------------------------------------
      1          8           0        0.066855    1.168532    0.000000
      2          1           0        0.064800    0.185933    0.000000
      3          1           0       -0.861970    1.489141    0.000000
      4          8           0        0.066855   -0.995574   -0.000000
      5          1           0        0.611050   -1.813717   -0.000000
      6          1           0       -0.883556   -1.245025   -0.000000
 ---------------------------------------------------------------------

 SCF Done:  E(RHF) =  -33.6126140037     A.U. after   11 cycles
 E2 =    -0.2281601137D+00 EUMP2 =    -0.33840774117364D+02
 CCSD(T)
 CCSD(T)= -0.33855662921D+02

 The electronic state is 1-A'.
 Alpha  occ. eigenvalues --   -1.44861  -1.27758  -0.80838  -0.75334  -0.58271
 Alpha  occ. eigenvalues --   -0.55478  -0.45286  -0.41800
 Alpha virt. eigenvalues --    0.16187   0.24738   0.29892   0.60881   0.73263
 Alpha virt. eigenvalues --    0.74005   0.87773   0.91141   0.94213   1.07618
 Alpha virt. eigenvalues --    1.11652   1.19737   1.27144   1.35014   2.96452

 Mulliken charges:
               1
     1  O   -0.732663
     2  H    0.332616
     3  H    0.304391
     4  O   -0.804005
     5  H    0.482020
     6  H    0.417641
 Sum of Mulliken charges =  -0.00000

 Dipole moment (field-independent basis, Debye):
    X=             -2.6984    Y=             -5.4361    Z=             -0.0000  Tot=              6.0689
 Quadrupole moment (field-independent basis, Debye-Ang):
   XX=             -9.8237   YY=            -10.4494   ZZ=            -14.9402
   XY=             -3.2213   XZ=              0.0000   YZ=              0.0000

 34\MP4DQ=-33.8494327\MP4SDQ=-33.8518146\CCSD=-33.8524587\CCSD(T)=-33.8
 Normal termination of Gaussian 16 at Sun Dec 10 06:21:10 2023.
