 Gaussian 16, Revision A.03,
 Gaussian 16:  ES64L-G16RevA.03 25-Dec-2016

 ------------------
 #p CCSD(T)/CEP-31G
 ------------------

 -----------
 H2O_H2O_860
 -----------
 Symbolic Z-matrix:
 Charge =  0 Multiplicity = 1

                         Standard orientation:
 ---------------------------------------------------------------------
 Center     Atomic      Atomic             Coordinates (Angstroms)
 Number     Number       Type             X           Y           Z
 ---------------------------------------------------------------------
      1          8           0        0.063302    1.449078   -0.000000
      2          1           0        0.061449    0.466478   -0.000000
      3          1           0       -0.865588    1.769496   -0.000000
      4          8           0        0.063302   -1.273665    0.000000
      5          1           0        0.660001   -2.054341    0.000000
      6          1           0       -0.868696   -1.584933    0.000000
 ---------------------------------------------------------------------

 SCF Done:  E(RHF) =  -33.6601196098     A.U. after   11 cycles
 E2 =    -0.2291146387D+00 EUMP2 =    -0.33889234248528D+02
 CCSD(T)
 CCSD(T)= -0.33905586796D+02

 The electronic state is 1-A'.
 Alpha  occ. eigenvalues --   -1.39494  -1.30972  -0.75163  -0.68717  -0.59220
 Alpha  occ. eigenvalues --   -0.54167  -0.50339  -0.45536
 Alpha virt. eigenvalues --    0.17271   0.26701   0.27578   0.47480   0.74956
 Alpha virt. eigenvalues --    0.76700   0.85228   0.87116   0.95615   1.04558
 Alpha virt. eigenvalues --    1.15595   1.18396   1.22483   1.36409   2.56366

 Mulliken charges:
               1
     1  O   -0.775133
     2  H    0.431133
     3  H    0.339699
     4  O   -0.817611
     5  H    0.429147
     6  H    0.392764
 Sum of Mulliken charges =  -0.00000

 Dipole moment (field-independent basis, Debye):
    X=             -2.7331    Y=             -4.7119    Z=              0.0000  Tot=              5.4471
 Quadrupole moment (field-independent basis, Debye-Ang):
   XX=             -9.7544   YY=             -9.0303   ZZ=            -15.0134
   XY=             -3.7771   XZ=              0.0000   YZ=             -0.0000

 112\MP4DQ=-33.8996741\MP4SDQ=-33.901832\CCSD=-33.9027438\CCSD(T)=-33.9
 Normal termination of Gaussian 16 at Sun Dec 10 06:34:41 2023.
