 Gaussian 16, Revision A.03,
 Gaussian 16:  ES64L-G16RevA.03 25-Dec-2016

 ------------------
 #p CCSD(T)/CEP-31G
 ------------------

 -----------
 H2O_H2O_940
 -----------
 Symbolic Z-matrix:
 Charge =  0 Multiplicity = 1

                         Standard orientation:
 ---------------------------------------------------------------------
 Center     Atomic      Atomic             Coordinates (Angstroms)
 Number     Number       Type             X           Y           Z
 ---------------------------------------------------------------------
      1          8           0        0.044962    1.481651    0.000000
      2          1           0        0.042028    0.499054    0.000000
      3          1           0       -0.883576    1.803091    0.000000
      4          8           0        0.044962   -1.301354    0.000000
      5          1           0        0.860333   -1.849694    0.000000
      6          1           0       -0.738174   -1.894822    0.000000
 ---------------------------------------------------------------------

 SCF Done:  E(RHF) =  -33.6629381084     A.U. after   11 cycles
 E2 =    -0.2291010850D+00 EUMP2 =    -0.33892039193400D+02
 CCSD(T)
 CCSD(T)= -0.33908378859D+02

 The electronic state is 1-A'.
 Alpha  occ. eigenvalues --   -1.39167  -1.30882  -0.74693  -0.68440  -0.59310
 Alpha  occ. eigenvalues --   -0.53910  -0.50355  -0.45509
 Alpha virt. eigenvalues --    0.17549   0.26802   0.27831   0.46669   0.75272
 Alpha virt. eigenvalues --    0.76692   0.85591   0.86890   0.96078   0.99418
 Alpha virt. eigenvalues --    1.14993   1.18845   1.22822   1.35954   2.54240

 Mulliken charges:
               1
     1  O   -0.785722
     2  H    0.436982
     3  H    0.345777
     4  O   -0.814158
     5  H    0.412223
     6  H    0.404897
 Sum of Mulliken charges =   0.00000

 Dipole moment (field-independent basis, Debye):
    X=             -1.9637    Y=             -4.7725    Z=              0.0000  Tot=              5.1607
 Quadrupole moment (field-independent basis, Debye-Ang):
   XX=             -9.3736   YY=             -8.9004   ZZ=            -15.0189
   XY=             -4.2364   XZ=              0.0000   YZ=              0.0000

 58\MP4DQ=-33.9025168\MP4SDQ=-33.904637\CCSD=-33.9055561\CCSD(T)=-33.90
 Normal termination of Gaussian 16 at Sun Dec 10 06:36:12 2023.
