 Gaussian 16, Revision A.03,
 Gaussian 16:  ES64L-G16RevA.03 25-Dec-2016

 ------------------
 #p CCSD(T)/CEP-31G
 ------------------

 ------------
 H2O_H2O_1276
 ------------
 Symbolic Z-matrix:
 Charge =  0 Multiplicity = 1

                         Standard orientation:
 ---------------------------------------------------------------------
 Center     Atomic      Atomic             Coordinates (Angstroms)
 Number     Number       Type             X           Y           Z
 ---------------------------------------------------------------------
      1          8           0        0.090688   -1.598653    0.000000
      2          1           0        0.090562   -0.616051    0.000000
      3          1           0       -0.838765   -1.917438    0.000000
      4          8           0        0.090688    1.459952    0.000000
      5          1           0        0.154827    2.440458    0.000000
      6          1           0       -0.857625    1.202638    0.000000
 ---------------------------------------------------------------------

 SCF Done:  E(RHF) =  -33.6530147049     A.U. after   11 cycles
 E2 =    -0.2291975545D+00 EUMP2 =    -0.33882212259411D+02
 CCSD(T)
 CCSD(T)= -0.33899249711D+02

 The electronic state is 1-A'.
 Alpha  occ. eigenvalues --   -1.38564  -1.33658  -0.74731  -0.69098  -0.58467
 Alpha  occ. eigenvalues --   -0.53247  -0.53079  -0.48178
 Alpha virt. eigenvalues --    0.16653   0.24803   0.27929   0.39521   0.76144
 Alpha virt. eigenvalues --    0.80570   0.84082   0.84710   0.89833   1.10586
 Alpha virt. eigenvalues --    1.15806   1.18349   1.22338   1.39722   2.50427

 Mulliken charges:
               1
     1  O   -0.749848
     2  H    0.391300
     3  H    0.350090
     4  O   -0.763704
     5  H    0.406904
     6  H    0.365258
 Sum of Mulliken charges =   0.00000

 Dipole moment (field-independent basis, Debye):
    X=             -4.0521    Y=              3.6037    Z=              0.0000  Tot=              5.4227
 Quadrupole moment (field-independent basis, Debye-Ang):
   XX=            -11.1881   YY=             -9.3768   ZZ=            -14.9897
   XY=              2.4591   XZ=              0.0000   YZ=              0.0000

 6425\MP4DQ=-33.8933336\MP4SDQ=-33.895529\CCSD=-33.896518\CCSD(T)=-33.8
 Normal termination of Gaussian 16 at Sun Dec 10 06:42:38 2023.
