 Gaussian 16, Revision A.03,
 Gaussian 16:  ES64L-G16RevA.03 25-Dec-2016

 ------------------
 #p CCSD(T)/CEP-31G
 ------------------

 ------------
 H2O_H2O_3082
 ------------
 Symbolic Z-matrix:
 Charge =  0 Multiplicity = 1

                         Standard orientation:
 ---------------------------------------------------------------------
 Center     Atomic      Atomic             Coordinates (Angstroms)
 Number     Number       Type             X           Y           Z
 ---------------------------------------------------------------------
      1          8           0        0.073536    2.331972   -0.000000
      2          1           0        0.072803    1.349371   -0.000000
      3          1           0       -0.855719    2.651331   -0.000000
      4          8           0        0.073536   -2.165031    0.000000
      5          1           0        0.507472   -3.046624    0.000000
      6          1           0       -0.901137   -2.289604    0.000000
 ---------------------------------------------------------------------

 SCF Done:  E(RHF) =  -33.6540074858     A.U. after   11 cycles
 E2 =    -0.2283618577D+00 EUMP2 =    -0.33882369343503D+02
 CCSD(T)
 CCSD(T)= -0.33899312305D+02

 The electronic state is 1-A'.
 Alpha  occ. eigenvalues --   -1.36712  -1.34324  -0.72369  -0.69928  -0.56579
 Alpha  occ. eigenvalues --   -0.54104  -0.51312  -0.48921
 Alpha virt. eigenvalues --    0.18635   0.21994   0.29367   0.32066   0.79262
 Alpha virt. eigenvalues --    0.81585   0.82452   0.84636   0.85271   0.87933
 Alpha virt. eigenvalues --    1.16237   1.18939   1.20656   1.25392   2.56184

 Mulliken charges:
               1
     1  O   -0.749954
     2  H    0.385270
     3  H    0.364094
     4  O   -0.749151
     5  H    0.378901
     6  H    0.370839
 Sum of Mulliken charges =  -0.00000

 Dipole moment (field-independent basis, Debye):
    X=             -3.3598    Y=             -3.9846    Z=              0.0000  Tot=              5.2121
 Quadrupole moment (field-independent basis, Debye-Ang):
   XX=            -10.1717   YY=             -7.2209   ZZ=            -14.9926
   XY=             -4.2310   XZ=              0.0000   YZ=             -0.0000

 167\MP4DQ=-33.8936652\MP4SDQ=-33.8957018\CCSD=-33.8967446\CCSD(T)=-33.
 Normal termination of Gaussian 16 at Sun Dec 10 06:28:32 2023.
