 Gaussian 16, Revision A.03,
 Gaussian 16:  ES64L-G16RevA.03 25-Dec-2016

 ------------------
 #p CCSD(T)/CEP-31G
 ------------------

 ------------
 H2O_H2O_4809
 ------------
 Symbolic Z-matrix:
 Charge =  0 Multiplicity = 1

                         Standard orientation:
 ---------------------------------------------------------------------
 Center     Atomic      Atomic             Coordinates (Angstroms)
 Number     Number       Type             X           Y           Z
 ---------------------------------------------------------------------
      1          8           0        0.066741    3.023399   -0.000000
      2          1           0        0.065984    2.040798   -0.000000
      3          1           0       -0.862507    3.342781   -0.000000
      4          8           0        0.066741   -2.850264    0.000000
      5          1           0        0.612015   -3.667688    0.000000
      6          1           0       -0.883340   -3.100969    0.000000
 ---------------------------------------------------------------------

 SCF Done:  E(RHF) =  -33.6527954716     A.U. after   11 cycles
 E2 =    -0.2283226175D+00 EUMP2 =    -0.33881118089109D+02
 CCSD(T)
 CCSD(T)= -0.33898089882D+02

 The electronic state is 1-A'.
 Alpha  occ. eigenvalues --   -1.36214  -1.34827  -0.71855  -0.70452  -0.56007
 Alpha  occ. eigenvalues --   -0.54591  -0.50800  -0.49413
 Alpha virt. eigenvalues --    0.19604   0.21041   0.29859   0.31311   0.79754
 Alpha virt. eigenvalues --    0.81114   0.82666   0.84114   0.85805   0.87250
 Alpha virt. eigenvalues --    1.16732   1.18116   1.21178   1.22612   2.56720

 Mulliken charges:
               1
     1  O   -0.745066
     2  H    0.377222
     3  H    0.367841
     4  O   -0.744876
     5  H    0.374174
     6  H    0.370705
 Sum of Mulliken charges =  -0.00000

 Dipole moment (field-independent basis, Debye):
    X=             -3.0696    Y=             -4.0552    Z=              0.0000  Tot=              5.0860
 Quadrupole moment (field-independent basis, Debye-Ang):
   XX=             -9.8925   YY=             -5.5185   ZZ=            -14.9905
   XY=             -5.5913   XZ=              0.0000   YZ=             -0.0000

 079\MP4DQ=-33.8924529\MP4SDQ=-33.8944779\CCSD=-33.8955313\CCSD(T)=-33.
 Normal termination of Gaussian 16 at Sun Dec 10 06:59:34 2023.
