 Gaussian 16, Revision A.03,
 Gaussian 16:  ES64L-G16RevA.03 25-Dec-2016

 ------------------
 #p CCSD(T)/CEP-31G
 ------------------

 ------------
 H2O_H2O_2480
 ------------
 Symbolic Z-matrix:
 Charge =  0 Multiplicity = 1

                         Standard orientation:
 ---------------------------------------------------------------------
 Center     Atomic      Atomic             Coordinates (Angstroms)
 Number     Number       Type             X           Y           Z
 ---------------------------------------------------------------------
      1          8           0        0.079857    2.088360   -0.000000
      2          1           0        0.079304    1.105758   -0.000000
      3          1           0       -0.849456    2.407550   -0.000000
      4          8           0        0.079857   -1.929309    0.000000
      5          1           0        0.395179   -2.859941    0.000000
      6          1           0       -0.902739   -1.925776    0.000000
 ---------------------------------------------------------------------

 SCF Done:  E(RHF) =  -33.6544666971     A.U. after   11 cycles
 E2 =    -0.2285057281D+00 EUMP2 =    -0.33882972425234D+02
 CCSD(T)
 CCSD(T)= -0.33899931606D+02

 The electronic state is 1-A'.
 Alpha  occ. eigenvalues --   -1.37062  -1.34143  -0.72743  -0.69727  -0.56970
 Alpha  occ. eigenvalues --   -0.53909  -0.51662  -0.48736
 Alpha virt. eigenvalues --    0.17755   0.22769   0.29082   0.32746   0.78863
 Alpha virt. eigenvalues --    0.81837   0.83134   0.84804   0.86815   0.88242
 Alpha virt. eigenvalues --    1.15770   1.19340   1.20441   1.30410   2.55065

 Mulliken charges:
               1
     1  O   -0.752689
     2  H    0.389982
     3  H    0.361290
     4  O   -0.751178
     5  H    0.382552
     6  H    0.370042
 Sum of Mulliken charges =  -0.00000

 Dipole moment (field-independent basis, Debye):
    X=             -3.6344    Y=             -3.8544    Z=              0.0000  Tot=              5.2977
 Quadrupole moment (field-independent basis, Debye-Ang):
   XX=            -10.4894   YY=             -8.0317   ZZ=            -14.9929
   XY=             -3.5419   XZ=              0.0000   YZ=             -0.0000

 012\MP4DQ=-33.8942458\MP4SDQ=-33.896308\CCSD=-33.897342\CCSD(T)=-33.89
 Normal termination of Gaussian 16 at Sun Dec 10 07:07:06 2023.
