 Gaussian 16, Revision A.03,
 Gaussian 16:  ES64L-G16RevA.03 25-Dec-2016

 ------------------
 #p CCSD(T)/CEP-31G
 ------------------

 ------------
 H2O_H2O_3541
 ------------
 Symbolic Z-matrix:
 Charge =  0 Multiplicity = 1

                         Standard orientation:
 ---------------------------------------------------------------------
 Center     Atomic      Atomic             Coordinates (Angstroms)
 Number     Number       Type             X           Y           Z
 ---------------------------------------------------------------------
      1          8           0        0.041129    2.518528    0.000000
      2          1           0        0.039318    1.535929    0.000000
      3          1           0       -0.887776    2.838907    0.000000
      4          8           0        0.041129   -2.338593   -0.000000
      5          1           0        0.891180   -2.831461   -0.000000
      6          1           0       -0.700779   -2.982859   -0.000000
 ---------------------------------------------------------------------

 SCF Done:  E(RHF) =  -33.6544104519     A.U. after   11 cycles
 E2 =    -0.2282872337D+00 EUMP2 =    -0.33882697685584D+02
 CCSD(T)
 CCSD(T)= -0.33899624004D+02

 The electronic state is 1-A'.
 Alpha  occ. eigenvalues --   -1.36497  -1.34296  -0.72139  -0.69924  -0.56384
 Alpha  occ. eigenvalues --   -0.54108  -0.51107  -0.48907
 Alpha virt. eigenvalues --    0.19247   0.21784   0.29664   0.31994   0.79455
 Alpha virt. eigenvalues --    0.81586   0.82226   0.84597   0.85467   0.87728
 Alpha virt. eigenvalues --    1.16515   1.18811   1.20943   1.23769   2.56473

 Mulliken charges:
               1
     1  O   -0.751328
     2  H    0.383954
     3  H    0.367122
     4  O   -0.750036
     5  H    0.376391
     6  H    0.373898
 Sum of Mulliken charges =   0.00000

 Dipole moment (field-independent basis, Debye):
    X=             -1.8809    Y=             -4.2582    Z=             -0.0000  Tot=              4.6551
 Quadrupole moment (field-independent basis, Debye-Ang):
   XX=             -9.4106   YY=             -6.0050   ZZ=            -14.9939
   XY=             -6.8850   XZ=             -0.0000   YZ=              0.0000

 2408\MP4DQ=-33.8939926\MP4SDQ=-33.896019\CCSD=-33.8970654\CCSD(T)=-33.
 Normal termination of Gaussian 16 at Sun Dec 10 06:36:44 2023.
