 Gaussian 16, Revision A.03,
 Gaussian 16:  ES64L-G16RevA.03 25-Dec-2016

 ------------------
 #p CCSD(T)/CEP-31G
 ------------------

 -----------
 H2O_H2O_803
 -----------
 Symbolic Z-matrix:
 Charge =  0 Multiplicity = 1

                         Standard orientation:
 ---------------------------------------------------------------------
 Center     Atomic      Atomic             Coordinates (Angstroms)
 Number     Number       Type             X           Y           Z
 ---------------------------------------------------------------------
      1          8           0        0.085615   -1.415088    0.000000
      2          1           0        0.085150   -0.432486    0.000000
      3          1           0       -0.843727   -1.734194    0.000000
      4          8           0        0.085615    1.265524    0.000000
      5          1           0        0.276856    2.229336    0.000000
      6          1           0       -0.888124    1.133854    0.000000
 ---------------------------------------------------------------------

 SCF Done:  E(RHF) =  -33.6507250263     A.U. after   11 cycles
 E2 =    -0.2290432223D+00 EUMP2 =    -0.33879768248601D+02
 CCSD(T)
 CCSD(T)= -0.33896468174D+02

 The electronic state is 1-A'.
 Alpha  occ. eigenvalues --   -1.39949  -1.32153  -0.76498  -0.68557  -0.59254
 Alpha  occ. eigenvalues --   -0.54346  -0.51477  -0.46611
 Alpha virt. eigenvalues --    0.16684   0.25578   0.27586   0.46737   0.74526
 Alpha virt. eigenvalues --    0.78125   0.85105   0.86629   0.93373   1.11084
 Alpha virt. eigenvalues --    1.14979   1.23087   1.30304   1.36404   2.55965

 Mulliken charges:
               1
     1  O   -0.740744
     2  H    0.383037
     3  H    0.338282
     4  O   -0.794287
     5  H    0.438956
     6  H    0.374756
 Sum of Mulliken charges =  -0.00000

 Dipole moment (field-independent basis, Debye):
    X=             -3.7379    Y=              4.1308    Z=              0.0000  Tot=              5.5709
 Quadrupole moment (field-independent basis, Debye-Ang):
   XX=            -10.8697   YY=             -9.3469   ZZ=            -14.9935
   XY=              2.7817   XZ=              0.0000   YZ=              0.0000

 01\MP4DQ=-33.8904365\MP4SDQ=-33.892699\CCSD=-33.8936246\CCSD(T)=-33.89
 Normal termination of Gaussian 16 at Sun Dec 10 06:33:37 2023.
