 Gaussian 16, Revision A.03,
 Gaussian 16:  ES64L-G16RevA.03 25-Dec-2016

 ------------------
 #p CCSD(T)/CEP-31G
 ------------------

 ------------
 H2O_H2O_1716
 ------------
 Symbolic Z-matrix:
 Charge =  0 Multiplicity = 1

                         Standard orientation:
 ---------------------------------------------------------------------
 Center     Atomic      Atomic             Coordinates (Angstroms)
 Number     Number       Type             X           Y           Z
 ---------------------------------------------------------------------
      1          8           0        0.041200    1.790547   -0.000000
      2          1           0        0.038614    0.807949   -0.000000
      3          1           0       -0.887451    2.111658    0.000000
      4          8           0        0.041200   -1.610676   -0.000000
      5          1           0        0.890861   -2.104214   -0.000000
      6          1           0       -0.701218   -2.254356    0.000000
 ---------------------------------------------------------------------

 SCF Done:  E(RHF) =  -33.6602440364     A.U. after   11 cycles
 E2 =    -0.2287168879D+00 EUMP2 =    -0.33888960924297D+02
 CCSD(T)
 CCSD(T)= -0.33905778343D+02

 The electronic state is 1-A'.
 Alpha  occ. eigenvalues --   -1.37665  -1.32656  -0.73309  -0.68400  -0.58060
 Alpha  occ. eigenvalues --   -0.52486  -0.52353  -0.47326
 Alpha virt. eigenvalues --    0.18049   0.24679   0.28811   0.37224   0.77703
 Alpha virt. eigenvalues --    0.81597   0.83675   0.86258   0.89784   0.94205
 Alpha virt. eigenvalues --    1.15463   1.19801   1.20936   1.33633   2.50283

 Mulliken charges:
               1
     1  O   -0.776679
     2  H    0.415586
     3  H    0.359031
     4  O   -0.772830
     5  H    0.389409
     6  H    0.385483
 Sum of Mulliken charges =   0.00000

 Dipole moment (field-independent basis, Debye):
    X=             -1.8465    Y=             -4.4855    Z=              0.0000  Tot=              4.8507
 Quadrupole moment (field-independent basis, Debye-Ang):
   XX=             -9.3914   YY=             -7.7954   ZZ=            -15.0060
   XY=             -5.1121   XZ=             -0.0000   YZ=              0.0000

 036\MP4DQ=-33.9000373\MP4SDQ=-33.9021187\CCSD=-33.9031323\CCSD(T)=-33.
 Normal termination of Gaussian 16 at Sun Dec 10 06:51:17 2023.
