 Gaussian 16, Revision A.03,
 Gaussian 16:  ES64L-G16RevA.03 25-Dec-2016

 ------------------
 #p CCSD(T)/CEP-31G
 ------------------

 ------------
 H2O_H2O_1186
 ------------
 Symbolic Z-matrix:
 Charge =  0 Multiplicity = 1

                         Standard orientation:
 ---------------------------------------------------------------------
 Center     Atomic      Atomic             Coordinates (Angstroms)
 Number     Number       Type             X           Y           Z
 ---------------------------------------------------------------------
      1          8           0        0.059699    1.579774   -0.000000
      2          1           0        0.057803    0.597174   -0.000000
      3          1           0       -0.869177    1.900233   -0.000000
      4          8           0        0.059699   -1.402407    0.000000
      5          1           0        0.706147   -2.142415    0.000000
      6          1           0       -0.849961   -1.773924    0.000000
 ---------------------------------------------------------------------

 SCF Done:  E(RHF) =  -33.6615012163     A.U. after   11 cycles
 E2 =    -0.2290508616D+00 EUMP2 =    -0.33890552077885D+02
 CCSD(T)
 CCSD(T)= -0.33907195187D+02

 The electronic state is 1-A'.
 Alpha  occ. eigenvalues --   -1.38557  -1.31791  -0.74210  -0.68126  -0.58992
 Alpha  occ. eigenvalues --   -0.53260  -0.51423  -0.46421
 Alpha virt. eigenvalues --    0.17600   0.25892   0.28116   0.42578   0.76109
 Alpha virt. eigenvalues --    0.78687   0.85511   0.85532   0.93530   1.02200
 Alpha virt. eigenvalues --    1.14924   1.19013   1.21649   1.35158   2.50704

 Mulliken charges:
               1
     1  O   -0.780052
     2  H    0.430701
     3  H    0.348182
     4  O   -0.796471
     5  H    0.410384
     6  H    0.387256
 Sum of Mulliken charges =   0.00000

 Dipole moment (field-independent basis, Debye):
    X=             -2.6258    Y=             -4.5907    Z=              0.0000  Tot=              5.2886
 Quadrupole moment (field-independent basis, Debye-Ang):
   XX=             -9.6540   YY=             -8.5247   ZZ=            -15.0117
   XY=             -4.0764   XZ=              0.0000   YZ=             -0.0000

 85\MP4DQ=-33.9013615\MP4SDQ=-33.9034777\CCSD=-33.9044488\CCSD(T)=-33.9
 Normal termination of Gaussian 16 at Sun Dec 10 06:40:51 2023.
