 Gaussian 16, Revision A.03,
 Gaussian 16:  ES64L-G16RevA.03 25-Dec-2016

 ------------------
 #p CCSD(T)/CEP-31G
 ------------------

 ----------
 H2O_H2O_74
 ----------
 Symbolic Z-matrix:
 Charge =  0 Multiplicity = 1

                         Standard orientation:
 ---------------------------------------------------------------------
 Center     Atomic      Atomic             Coordinates (Angstroms)
 Number     Number       Type             X           Y           Z
 ---------------------------------------------------------------------
      1          8           0       -0.013802   -1.121170   -0.000000
      2          1           0       -0.007332   -0.138590   -0.000000
      3          1           0        0.913572   -1.445950   -0.000000
      4          8           0       -0.013802    0.962005    0.000000
      5          1           0       -0.996382    0.968476    0.000000
      6          1           0        0.310979    1.889380    0.000000
 ---------------------------------------------------------------------

 SCF Done:  E(RHF) =  -33.5873870694     A.U. after   11 cycles
 E2 =    -0.2266020037D+00 EUMP2 =    -0.33813989073018D+02
 CCSD(T)
 CCSD(T)= -0.33828742696D+02

 The electronic state is 1-A'.
 Alpha  occ. eigenvalues --   -1.46560  -1.27124  -0.84126  -0.73606  -0.58960
 Alpha  occ. eigenvalues --   -0.55996  -0.44043  -0.41251
 Alpha virt. eigenvalues --    0.16878   0.24219   0.30332   0.62072   0.73316
 Alpha virt. eigenvalues --    0.74559   0.91262   0.91578   0.92933   1.05307
 Alpha virt. eigenvalues --    1.11427   1.19710   1.30808   1.47849   3.02685

 Mulliken charges:
               1
     1  O   -0.728975
     2  H    0.226591
     3  H    0.330016
     4  O   -0.768730
     5  H    0.439054
     6  H    0.502044
 Sum of Mulliken charges =   0.00000

 Dipole moment (field-independent basis, Debye):
    X=              0.5853    Y=              5.2876    Z=              0.0000  Tot=              5.3199
 Quadrupole moment (field-independent basis, Debye-Ang):
   XX=             -9.6965   YY=            -10.5151   ZZ=            -14.9117
   XY=             -3.7699   XZ=             -0.0000   YZ=              0.0000

 42\MP4DQ=-33.8225293\MP4SDQ=-33.8249184\CCSD=-33.8255548\CCSD(T)=-33.8
 Normal termination of Gaussian 16 at Sun Dec 10 06:19:29 2023.
