 Gaussian 16, Revision A.03,
 Gaussian 16:  ES64L-G16RevA.03 25-Dec-2016

 ------------------
 #p CCSD(T)/CEP-31G
 ------------------

 -----------
 H2O_H2O_720
 -----------
 Symbolic Z-matrix:
 Charge =  0 Multiplicity = 1

                         Standard orientation:
 ---------------------------------------------------------------------
 Center     Atomic      Atomic             Coordinates (Angstroms)
 Number     Number       Type             X           Y           Z
 ---------------------------------------------------------------------
      1          8           0        0.026819    1.388014    0.000000
      2          1           0        0.022496    0.405422    0.000000
      3          1           0       -0.901263    1.710766   -0.000000
      4          8           0        0.026819   -1.214888    0.000000
      5          1           0        0.974812   -1.473378    0.000000
      6          1           0       -0.525143   -2.027813   -0.000000
 ---------------------------------------------------------------------

 SCF Done:  E(RHF) =  -33.6599932312     A.U. after   11 cycles
 E2 =    -0.2287009012D+00 EUMP2 =    -0.33888694132418D+02
 CCSD(T)
 CCSD(T)= -0.33904782739D+02

 The electronic state is 1-A'.
 Alpha  occ. eigenvalues --   -1.39996  -1.30247  -0.75743  -0.69147  -0.59296
 Alpha  occ. eigenvalues --   -0.54650  -0.49452  -0.44845
 Alpha virt. eigenvalues --    0.17430   0.27191   0.27646   0.50367   0.74527
 Alpha virt. eigenvalues --    0.75935   0.86309   0.88017   0.94376   1.03032
 Alpha virt. eigenvalues --    1.16031   1.19556   1.24446   1.37419   2.60979

 Mulliken charges:
               1
     1  O   -0.780351
     2  H    0.419570
     3  H    0.347224
     4  O   -0.830819
     5  H    0.410316
     6  H    0.434061
 Sum of Mulliken charges =   0.00000

 Dipole moment (field-independent basis, Debye):
    X=             -1.1870    Y=             -4.7593    Z=             -0.0000  Tot=              4.9051
 Quadrupole moment (field-independent basis, Debye-Ang):
   XX=             -9.4586   YY=             -9.2644   ZZ=            -15.0170
   XY=             -4.3500   XZ=              0.0000   YZ=             -0.0000

 86\MP4DQ=-33.8988706\MP4SDQ=-33.9010242\CCSD=-33.9019005\CCSD(T)=-33.9
 Normal termination of Gaussian 16 at Sun Dec 10 06:32:04 2023.
