 Gaussian 16, Revision A.03,
 Gaussian 16:  ES64L-G16RevA.03 25-Dec-2016

 ------------------
 #p CCSD(T)/CEP-31G
 ------------------

 ------------
 H2O_H2O_1576
 ------------
 Symbolic Z-matrix:
 Charge =  0 Multiplicity = 1

                         Standard orientation:
 ---------------------------------------------------------------------
 Center     Atomic      Atomic             Coordinates (Angstroms)
 Number     Number       Type             X           Y           Z
 ---------------------------------------------------------------------
      1          8           0        0.090687   -1.718317    0.000000
      2          1           0        0.090570   -0.735715    0.000000
      3          1           0       -0.838768   -2.037094    0.000000
      4          8           0        0.090687    1.579614    0.000000
      5          1           0        0.154836    2.560119    0.000000
      6          1           0       -0.857627    1.322309    0.000000
 ---------------------------------------------------------------------

 SCF Done:  E(RHF) =  -33.6536068919     A.U. after   11 cycles
 E2 =    -0.2290430527D+00 EUMP2 =    -0.33882649944625D+02
 CCSD(T)
 CCSD(T)= -0.33899707947D+02

 The electronic state is 1-A'.
 Alpha  occ. eigenvalues --   -1.38018  -1.34020  -0.73956  -0.69487  -0.57941
 Alpha  occ. eigenvalues --   -0.53678  -0.52570  -0.48566
 Alpha virt. eigenvalues --    0.16682   0.24276   0.28270   0.36668   0.77145
 Alpha virt. eigenvalues --    0.81573   0.83015   0.84671   0.88794   1.03331
 Alpha virt. eigenvalues --    1.15450   1.17425   1.21584   1.39757   2.51708

 Mulliken charges:
               1
     1  O   -0.752324
     2  H    0.393463
     3  H    0.354370
     4  O   -0.756800
     5  H    0.396362
     6  H    0.364929
 Sum of Mulliken charges =   0.00000

 Dipole moment (field-independent basis, Debye):
    X=             -4.0820    Y=              3.5092    Z=              0.0000  Tot=              5.3831
 Quadrupole moment (field-independent basis, Debye-Ang):
   XX=            -11.1744   YY=             -9.3114   ZZ=            -14.9893
   XY=              2.4853   XZ=              0.0000   YZ=              0.0000

 558\MP4DQ=-33.893867\MP4SDQ=-33.896018\CCSD=-33.8970278\CCSD(T)=-33.89
 Normal termination of Gaussian 16 at Sun Dec 10 06:48:36 2023.
