 Gaussian 16, Revision A.03,
 Gaussian 16:  ES64L-G16RevA.03 25-Dec-2016

 ------------------
 #p CCSD(T)/CEP-31G
 ------------------

 ------------
 H2O_H2O_1293
 ------------
 Symbolic Z-matrix:
 Charge =  0 Multiplicity = 1

                         Standard orientation:
 ---------------------------------------------------------------------
 Center     Atomic      Atomic             Coordinates (Angstroms)
 Number     Number       Type             X           Y           Z
 ---------------------------------------------------------------------
      1          8           0        0.033886    1.619712   -0.000000
      2          1           0        0.030606    0.637116   -0.000000
      3          1           0       -0.894538    1.941479   -0.000000
      4          8           0        0.033886   -1.442262    0.000000
      5          1           0        0.940432   -1.821315    0.000000
      6          1           0       -0.618681   -2.176880    0.000000
 ---------------------------------------------------------------------

 SCF Done:  E(RHF) =  -33.6626354188     A.U. after   11 cycles
 E2 =    -0.2288877977D+00 EUMP2 =    -0.33891523216483D+02
 CCSD(T)
 CCSD(T)= -0.33908189853D+02

 The electronic state is 1-A'.
 Alpha  occ. eigenvalues --   -1.38288  -1.31887  -0.73932  -0.68053  -0.58882
 Alpha  occ. eigenvalues --   -0.53010  -0.51619  -0.46568
 Alpha virt. eigenvalues --    0.17833   0.25789   0.28381   0.41417   0.76483
 Alpha virt. eigenvalues --    0.79156   0.85146   0.86276   0.91761   1.01123
 Alpha virt. eigenvalues --    1.15219   1.18746   1.22054   1.34803   2.50209

 Mulliken charges:
               1
     1  O   -0.785356
     2  H    0.427472
     3  H    0.355979
     4  O   -0.793444
     5  H    0.395794
     6  H    0.399555
 Sum of Mulliken charges =  -0.00000

 Dipole moment (field-independent basis, Debye):
    X=             -1.5090    Y=             -4.5472    Z=              0.0000  Tot=              4.7910
 Quadrupole moment (field-independent basis, Debye-Ang):
   XX=             -9.3973   YY=             -8.3737   ZZ=            -15.0133
   XY=             -4.8984   XZ=              0.0000   YZ=             -0.0000

 6839\MP4DQ=-33.9023915\MP4SDQ=-33.9044899\CCSD=-33.9054727\CCSD(T)=-33
 Normal termination of Gaussian 16 at Sun Dec 10 06:42:58 2023.
