 Gaussian 16, Revision A.03,
 Gaussian 16:  ES64L-G16RevA.03 25-Dec-2016

 ------------------
 #p CCSD(T)/CEP-31G
 ------------------

 -----------
 H2O_H2O_499
 -----------
 Symbolic Z-matrix:
 Charge =  0 Multiplicity = 1

                         Standard orientation:
 ---------------------------------------------------------------------
 Center     Atomic      Atomic             Coordinates (Angstroms)
 Number     Number       Type             X           Y           Z
 ---------------------------------------------------------------------
      1          8           0        0.013729   -1.290702    0.000000
      2          1           0        0.008164   -0.308117    0.000000
      3          1           0       -0.913945   -1.614627    0.000000
      4          8           0        0.013729    1.131512    0.000000
      5          1           0        0.996315    1.137076    0.000000
      6          1           0       -0.310196    2.059186    0.000000
 ---------------------------------------------------------------------

 SCF Done:  E(RHF) =  -33.6480311128     A.U. after   11 cycles
 E2 =    -0.2279897532D+00 EUMP2 =    -0.33876020866021D+02
 CCSD(T)
 CCSD(T)= -0.33891891674D+02

 The electronic state is 1-A'.
 Alpha  occ. eigenvalues --   -1.41382  -1.29791  -0.78157  -0.69446  -0.59194
 Alpha  occ. eigenvalues --   -0.55641  -0.48564  -0.44321
 Alpha virt. eigenvalues --    0.17335   0.26236   0.28408   0.54215   0.73873
 Alpha virt. eigenvalues --    0.76250   0.87501   0.88993   0.92884   1.06741
 Alpha virt. eigenvalues --    1.14934   1.22196   1.29288   1.39865   2.72617

 Mulliken charges:
               1
     1  O   -0.758052
     2  H    0.366217
     3  H    0.349870
     4  O   -0.835478
     5  H    0.413840
     6  H    0.463602
 Sum of Mulliken charges =   0.00000

 Dipole moment (field-independent basis, Debye):
    X=             -0.6136    Y=              4.6408    Z=              0.0000  Tot=              4.6811
 Quadrupole moment (field-independent basis, Debye-Ang):
   XX=             -9.7970   YY=             -9.6349   ZZ=            -14.9989
   XY=              4.4537   XZ=              0.0000   YZ=              0.0000

 192\MP4DQ=-33.8858795\MP4SDQ=-33.8881158\CCSD=-33.8889454\CCSD(T)=-33.
 Normal termination of Gaussian 16 at Sun Dec 10 06:27:54 2023.
