 Gaussian 16, Revision A.03,
 Gaussian 16:  ES64L-G16RevA.03 25-Dec-2016

 ------------------
 #p CCSD(T)/CEP-31G
 ------------------

 ------------
 H2O_H2O_3942
 ------------
 Symbolic Z-matrix:
 Charge =  0 Multiplicity = 1

                         Standard orientation:
 ---------------------------------------------------------------------
 Center     Atomic      Atomic             Coordinates (Angstroms)
 Number     Number       Type             X           Y           Z
 ---------------------------------------------------------------------
      1          8           0        0.037423    2.677562    0.000000
      2          1           0        0.035602    1.694962    0.000000
      3          1           0       -0.891479    2.997950    0.000000
      4          8           0        0.037423   -2.498578   -0.000000
      5          1           0        0.917884   -2.934804   -0.000000
      6          1           0       -0.660768   -3.189980   -0.000000
 ---------------------------------------------------------------------

 SCF Done:  E(RHF) =  -33.6539219183     A.U. after   11 cycles
 E2 =    -0.2282830925D+00 EUMP2 =    -0.33882205010778D+02
 CCSD(T)
 CCSD(T)= -0.33899145024D+02

 The electronic state is 1-A'.
 Alpha  occ. eigenvalues --   -1.36376  -1.34476  -0.72017  -0.70107  -0.56234
 Alpha  occ. eigenvalues --   -0.54278  -0.50979  -0.49082
 Alpha virt. eigenvalues --    0.19441   0.21506   0.29758   0.31770   0.79577
 Alpha virt. eigenvalues --    0.81422   0.82342   0.84423   0.85595   0.87534
 Alpha virt. eigenvalues --    1.16616   1.18546   1.21047   1.23182   2.56570

 Mulliken charges:
               1
     1  O   -0.749434
     2  H    0.381337
     3  H    0.368017
     4  O   -0.748550
     5  H    0.375204
     6  H    0.373425
 Sum of Mulliken charges =   0.00000

 Dipole moment (field-independent basis, Debye):
    X=             -1.7147    Y=             -4.2154    Z=             -0.0000  Tot=              4.5508
 Quadrupole moment (field-independent basis, Debye-Ang):
   XX=             -9.4148   YY=             -5.7169   ZZ=            -14.9929
   XY=             -7.5649   XZ=             -0.0000   YZ=              0.0000

 645\MP4DQ=-33.8935143\MP4SDQ=-33.8955382\CCSD=-33.8965879\CCSD(T)=-33.
 Normal termination of Gaussian 16 at Sun Dec 10 06:43:56 2023.
