 Gaussian 16, Revision A.03,
 Gaussian 16:  ES64L-G16RevA.03 25-Dec-2016

 ------------------
 #p CCSD(T)/CEP-31G
 ------------------

 ------------
 H2O_H2O_1416
 ------------
 Symbolic Z-matrix:
 Charge =  0 Multiplicity = 1

                         Standard orientation:
 ---------------------------------------------------------------------
 Center     Atomic      Atomic             Coordinates (Angstroms)
 Number     Number       Type             X           Y           Z
 ---------------------------------------------------------------------
      1          8           0        0.041217    1.670876    0.000000
      2          1           0        0.038436    0.688278    0.000000
      3          1           0       -0.887370    1.992172    0.000000
      4          8           0        0.041217   -1.491021   -0.000000
      5          1           0        0.890782   -1.984730   -0.000000
      6          1           0       -0.701327   -2.134553   -0.000000
 ---------------------------------------------------------------------

 SCF Done:  E(RHF) =  -33.6619562352     A.U. after   11 cycles
 E2 =    -0.2288826886D+00 EUMP2 =    -0.33890838923796D+02
 CCSD(T)
 CCSD(T)= -0.33907557839D+02

 The electronic state is 1-A'.
 Alpha  occ. eigenvalues --   -1.38080  -1.32111  -0.73710  -0.68095  -0.58636
 Alpha  occ. eigenvalues --   -0.52795  -0.51878  -0.46785
 Alpha virt. eigenvalues --    0.17902   0.25444   0.28522   0.40063   0.76882
 Alpha virt. eigenvalues --    0.79922   0.84678   0.86161   0.91582   0.98330
 Alpha virt. eigenvalues --    1.15150   1.19411   1.21525   1.34094   2.49698

 Mulliken charges:
               1
     1  O   -0.782912
     2  H    0.425788
     3  H    0.355648
     4  O   -0.785830
     5  H    0.395369
     6  H    0.391936
 Sum of Mulliken charges =   0.00000

 Dipole moment (field-independent basis, Debye):
    X=             -1.8351    Y=             -4.5638    Z=             -0.0000  Tot=              4.9189
 Quadrupole moment (field-independent basis, Debye-Ang):
   XX=             -9.3807   YY=             -8.1755   ZZ=            -15.0110
   XY=             -4.8090   XZ=             -0.0000   YZ=              0.0000

 638\MP4DQ=-33.9017784\MP4SDQ=-33.9038691\CCSD=-33.904863\CCSD(T)=-33.9
 Normal termination of Gaussian 16 at Sun Dec 10 06:45:25 2023.
