 Gaussian 16, Revision A.03,
 Gaussian 16:  ES64L-G16RevA.03 25-Dec-2016

 ------------------
 #p CCSD(T)/CEP-31G
 ------------------

 ------------
 H2O_H2O_1672
 ------------
 Symbolic Z-matrix:
 Charge =  0 Multiplicity = 1

                         Standard orientation:
 ---------------------------------------------------------------------
 Center     Atomic      Atomic             Coordinates (Angstroms)
 Number     Number       Type             X           Y           Z
 ---------------------------------------------------------------------
      1          8           0       -0.019942    1.763652    0.000000
      2          1           0       -0.016250    0.781057    0.000000
      3          1           0        0.908347    2.085808    0.000000
      4          8           0       -0.019942   -1.596587    0.000000
      5          1           0       -0.993649   -1.728501    0.000000
      6          1           0        0.420624   -2.474885    0.000000
 ---------------------------------------------------------------------

 SCF Done:  E(RHF) =  -33.6600987791     A.U. after   11 cycles
 E2 =    -0.2286520381D+00 EUMP2 =    -0.33888750817118D+02
 CCSD(T)
 CCSD(T)= -0.33905607270D+02

 The electronic state is 1-A'.
 Alpha  occ. eigenvalues --   -1.37699  -1.32896  -0.73405  -0.68647  -0.58071
 Alpha  occ. eigenvalues --   -0.52741  -0.52373  -0.47580
 Alpha virt. eigenvalues --    0.17838   0.24742   0.28788   0.37174   0.77568
 Alpha virt. eigenvalues --    0.81237   0.83559   0.86340   0.88647   0.98617
 Alpha virt. eigenvalues --    1.15563   1.19077   1.21220   1.36220   2.51225

 Mulliken charges:
               1
     1  O   -0.776972
     2  H    0.409844
     3  H    0.364251
     4  O   -0.775661
     5  H    0.385779
     6  H    0.392758
 Sum of Mulliken charges =   0.00000

 Dipole moment (field-independent basis, Debye):
    X=              0.8946    Y=             -4.1806    Z=              0.0000  Tot=              4.2752
 Quadrupole moment (field-independent basis, Debye-Ang):
   XX=             -9.6554   YY=             -8.1940   ZZ=            -15.0051
   XY=              5.9530   XZ=              0.0000   YZ=              0.0000

 113\MP4DQ=-33.8998479\MP4SDQ=-33.9019453\CCSD=-33.9029589\CCSD(T)=-33.
 Normal termination of Gaussian 16 at Sun Dec 10 06:50:27 2023.
