 Gaussian 16, Revision A.03,
 Gaussian 16:  ES64L-G16RevA.03 25-Dec-2016

 ------------------
 #p CCSD(T)/CEP-31G
 ------------------

 ------------
 H2O_H2O_4585
 ------------
 Symbolic Z-matrix:
 Charge =  0 Multiplicity = 1

                         Standard orientation:
 ---------------------------------------------------------------------
 Center     Atomic      Atomic             Coordinates (Angstroms)
 Number     Number       Type             X           Y           Z
 ---------------------------------------------------------------------
      1          8           0        0.063216    2.934956    0.000000
      2          1           0        0.062330    1.952355    0.000000
      3          1           0       -0.865989    3.254461    0.000000
      4          8           0        0.063216   -2.759420   -0.000000
      5          1           0        0.660682   -3.539509   -0.000000
      6          1           0       -0.868475   -3.071604   -0.000000
 ---------------------------------------------------------------------

 SCF Done:  E(RHF) =  -33.6529850164     A.U. after   11 cycles
 E2 =    -0.2283150752D+00 EUMP2 =    -0.33881300091548D+02
 CCSD(T)
 CCSD(T)= -0.33898266430D+02

 The electronic state is 1-A'.
 Alpha  occ. eigenvalues --   -1.36251  -1.34745  -0.71892  -0.70371  -0.56055
 Alpha  occ. eigenvalues --   -0.54515  -0.50840  -0.49335
 Alpha virt. eigenvalues --    0.19572   0.21141   0.29832   0.31416   0.79715
 Alpha virt. eigenvalues --    0.81188   0.82600   0.84187   0.85757   0.87323
 Alpha virt. eigenvalues --    1.16703   1.18207   1.21146   1.22717   2.56682

 Mulliken charges:
               1
     1  O   -0.745808
     2  H    0.378145
     3  H    0.367656
     4  O   -0.745518
     5  H    0.374501
     6  H    0.371025
 Sum of Mulliken charges =  -0.00000

 Dipole moment (field-independent basis, Debye):
    X=             -2.9054    Y=             -4.1164    Z=             -0.0000  Tot=              5.0385
 Quadrupole moment (field-independent basis, Debye-Ang):
   XX=             -9.7752   YY=             -5.4709   ZZ=            -14.9909
   XY=             -5.8321   XZ=             -0.0000   YZ=              0.0000

 4DQ=-33.8926307\MP4SDQ=-33.8946553\CCSD=-33.8957082\CCSD(T)=-33.898266
 Normal termination of Gaussian 16 at Sun Dec 10 06:55:32 2023.
