 Gaussian 16, Revision A.03,
 Gaussian 16:  ES64L-G16RevA.03 25-Dec-2016

 ------------------
 #p CCSD(T)/CEP-31G
 ------------------

 -----------
 H2O_H2O_496
 -----------
 Symbolic Z-matrix:
 Charge =  0 Multiplicity = 1

                         Standard orientation:
 ---------------------------------------------------------------------
 Center     Atomic      Atomic             Coordinates (Angstroms)
 Number     Number       Type             X           Y           Z
 ---------------------------------------------------------------------
      1          8           0       -0.023406    1.296723    0.000000
      2          1           0       -0.018521    0.314134    0.000000
      3          1           0        0.904491    1.620006    0.000000
      4          8           0       -0.023406   -1.126444    0.000000
      5          1           0       -0.986162   -1.322929    0.000000
      6          1           0        0.474690   -1.973442    0.000000
 ---------------------------------------------------------------------

 SCF Done:  E(RHF) =  -33.6512251252     A.U. after   11 cycles
 E2 =    -0.2282852524D+00 EUMP2 =    -0.33879510377628D+02
 CCSD(T)
 CCSD(T)= -0.33895185757D+02

 The electronic state is 1-A'.
 Alpha  occ. eigenvalues --   -1.41300  -1.29326  -0.77321  -0.70609  -0.58625
 Alpha  occ. eigenvalues --   -0.55723  -0.48055  -0.43822
 Alpha virt. eigenvalues --    0.17232   0.26501   0.28443   0.54874   0.73920
 Alpha virt. eigenvalues --    0.75231   0.87019   0.89288   0.94343   1.02406
 Alpha virt. eigenvalues --    1.15536   1.21017   1.26371   1.37624   2.71593

 Mulliken charges:
               1
     1  O   -0.769037
     2  H    0.393778
     3  H    0.341853
     4  O   -0.839122
     5  H    0.418350
     6  H    0.454179
 Sum of Mulliken charges =  -0.00000

 Dipole moment (field-independent basis, Debye):
    X=              1.0333    Y=             -4.9084    Z=              0.0000  Tot=              5.0160
 Quadrupole moment (field-independent basis, Debye-Ang):
   XX=             -9.5077   YY=             -9.6661   ZZ=            -15.0047
   XY=              4.1156   XZ=              0.0000   YZ=              0.0000

 569\MP4DQ=-33.8892051\MP4SDQ=-33.8914032\CCSD=-33.8922096\CCSD(T)=-33.
 Normal termination of Gaussian 16 at Sun Dec 10 06:27:51 2023.
