 Gaussian 16, Revision A.03,
 Gaussian 16:  ES64L-G16RevA.03 25-Dec-2016

 ------------------
 #p CCSD(T)/CEP-31G
 ------------------

 ------------
 H2O_H2O_1456
 ------------
 Symbolic Z-matrix:
 Charge =  0 Multiplicity = 1

                         Standard orientation:
 ---------------------------------------------------------------------
 Center     Atomic      Atomic             Coordinates (Angstroms)
 Number     Number       Type             X           Y           Z
 ---------------------------------------------------------------------
      1          8           0        0.076779    1.681749    0.000000
      2          1           0        0.075920    0.699148    0.000000
      3          1           0       -0.852435    2.001227    0.000000
      4          8           0        0.076779   -1.518580   -0.000000
      5          1           0        0.452012   -2.426714   -0.000000
      6          1           0       -0.903963   -1.579015   -0.000000
 ---------------------------------------------------------------------

 SCF Done:  E(RHF) =  -33.6576221516     A.U. after   11 cycles
 E2 =    -0.2289215842D+00 EUMP2 =    -0.33886543735742D+02
 CCSD(T)
 CCSD(T)= -0.33903459532D+02

 The electronic state is 1-A'.
 Alpha  occ. eigenvalues --   -1.38117  -1.32947  -0.73904  -0.68657  -0.58331
 Alpha  occ. eigenvalues --   -0.52740  -0.52635  -0.47544
 Alpha virt. eigenvalues --    0.17349   0.24865   0.28266   0.38581   0.76921
 Alpha virt. eigenvalues --    0.80724   0.84026   0.85268   0.90616   1.03917
 Alpha virt. eigenvalues --    1.15001   1.18231   1.21352   1.37658   2.50260

 Mulliken charges:
               1
     1  O   -0.766690
     2  H    0.412095
     3  H    0.351596
     4  O   -0.775193
     5  H    0.403518
     6  H    0.374675
 Sum of Mulliken charges =  -0.00000

 Dipole moment (field-independent basis, Debye):
    X=             -3.4295    Y=             -4.1570    Z=             -0.0000  Tot=              5.3890
 Quadrupole moment (field-independent basis, Debye-Ang):
   XX=            -10.3420   YY=             -8.5029   ZZ=            -15.0000
   XY=             -3.4721   XZ=              0.0000   YZ=              0.0000

 9214\MP4DQ=-33.8976348\MP4SDQ=-33.8997658\CCSD=-33.9007734\CCSD(T)=-33
 Normal termination of Gaussian 16 at Sun Dec 10 06:46:12 2023.
