 Gaussian 16, Revision A.03,
 Gaussian 16:  ES64L-G16RevA.03 25-Dec-2016

 ------------------
 #p CCSD(T)/CEP-31G
 ------------------

 ------------
 H2O_H2O_1671
 ------------
 Symbolic Z-matrix:
 Charge =  0 Multiplicity = 1

                         Standard orientation:
 ---------------------------------------------------------------------
 Center     Atomic      Atomic             Coordinates (Angstroms)
 Number     Number       Type             X           Y           Z
 ---------------------------------------------------------------------
      1          8           0       -0.023288    1.765432    0.000000
      2          1           0       -0.019766    0.782837    0.000000
      3          1           0        0.905057    2.087428    0.000000
      4          8           0       -0.023288   -1.595088    0.000000
      5          1           0       -0.986317   -1.790238    0.000000
      6          1           0        0.473632   -2.442777    0.000000
 ---------------------------------------------------------------------

 SCF Done:  E(RHF) =  -33.6603038523     A.U. after   11 cycles
 E2 =    -0.2286651138D+00 EUMP2 =    -0.33888968966059D+02
 CCSD(T)
 CCSD(T)= -0.33905811533D+02

 The electronic state is 1-A'.
 Alpha  occ. eigenvalues --   -1.37701  -1.32805  -0.73390  -0.68564  -0.58093
 Alpha  occ. eigenvalues --   -0.52648  -0.52382  -0.47488
 Alpha virt. eigenvalues --    0.17899   0.24763   0.28791   0.37292   0.77574
 Alpha virt. eigenvalues --    0.81228   0.83630   0.86410   0.88857   0.97887
 Alpha virt. eigenvalues --    1.15517   1.19169   1.21237   1.35628   2.50938

 Mulliken charges:
               1
     1  O   -0.777582
     2  H    0.411744
     3  H    0.363173
     4  O   -0.775795
     5  H    0.386473
     6  H    0.391988
 Sum of Mulliken charges =  -0.00000

 Dipole moment (field-independent basis, Debye):
    X=              1.0448    Y=             -4.2619    Z=              0.0000  Tot=              4.3881
 Quadrupole moment (field-independent basis, Debye-Ang):
   XX=             -9.5726   YY=             -8.0978   ZZ=            -15.0058
   XY=              5.7892   XZ=              0.0000   YZ=              0.0000

 201\MP4DQ=-33.9000558\MP4SDQ=-33.9021494\CCSD=-33.9031626\CCSD(T)=-33.
 Normal termination of Gaussian 16 at Sun Dec 10 06:50:26 2023.
