 Gaussian 16, Revision A.03,
 Gaussian 16:  ES64L-G16RevA.03 25-Dec-2016

 ------------------
 #p CCSD(T)/CEP-31G
 ------------------

 -----------
 H2O_H2O_677
 -----------
 Symbolic Z-matrix:
 Charge =  0 Multiplicity = 1

                         Standard orientation:
 ---------------------------------------------------------------------
 Center     Atomic      Atomic             Coordinates (Angstroms)
 Number     Number       Type             X           Y           Z
 ---------------------------------------------------------------------
      1          8           0        0.088242   -1.362366    0.000000
      2          1           0        0.087931   -0.379765    0.000000
      3          1           0       -0.841151   -1.681326    0.000000
      4          8           0        0.088242    1.218071    0.000000
      5          1           0        0.216189    2.192306    0.000000
      6          1           0       -0.874833    1.023148    0.000000
 ---------------------------------------------------------------------

 SCF Done:  E(RHF) =  -33.6450303213     A.U. after   11 cycles
 E2 =    -0.2290532785D+00 EUMP2 =    -0.33874083599764D+02
 CCSD(T)
 CCSD(T)= -0.33890697928D+02

 The electronic state is 1-A'.
 Alpha  occ. eigenvalues --   -1.40628  -1.32040  -0.77606  -0.68591  -0.59289
 Alpha  occ. eigenvalues --   -0.54845  -0.51241  -0.46438
 Alpha virt. eigenvalues --    0.16523   0.25247   0.27789   0.48789   0.74054
 Alpha virt. eigenvalues --    0.77851   0.85286   0.87150   0.93690   1.11043
 Alpha virt. eigenvalues --    1.14212   1.23545   1.32889   1.37873   2.59433

 Mulliken charges:
               1
     1  O   -0.725347
     2  H    0.359830
     3  H    0.334741
     4  O   -0.788659
     5  H    0.446277
     6  H    0.373159
 Sum of Mulliken charges =  -0.00000

 Dipole moment (field-independent basis, Debye):
    X=             -3.8330    Y=              4.0928    Z=              0.0000  Tot=              5.6074
 Quadrupole moment (field-independent basis, Debye-Ang):
   XX=            -11.0462   YY=             -9.5688   ZZ=            -14.9852
   XY=              2.5725   XZ=              0.0000   YZ=              0.0000

 56\MP4DQ=-33.8845946\MP4SDQ=-33.8869083\CCSD=-33.8877994\CCSD(T)=-33.8
 Normal termination of Gaussian 16 at Sun Dec 10 06:31:15 2023.
