 Gaussian 16, Revision A.03,
 Gaussian 16:  ES64L-G16RevA.03 25-Dec-2016

 ------------------
 #p CCSD(T)/CEP-31G
 ------------------

 -----------
 H2O_H2O_469
 -----------
 Symbolic Z-matrix:
 Charge =  0 Multiplicity = 1

                         Standard orientation:
 ---------------------------------------------------------------------
 Center     Atomic      Atomic             Coordinates (Angstroms)
 Number     Number       Type             X           Y           Z
 ---------------------------------------------------------------------
      1          8           0        0.030375    1.289574   -0.000000
      2          1           0        0.025942    0.306982   -0.000000
      3          1           0       -0.897672    1.612430   -0.000000
      4          8           0        0.030375   -1.114094    0.000000
      5          1           0        0.959395   -1.434136    0.000000
      6          1           0       -0.573658   -1.889112    0.000000
 ---------------------------------------------------------------------

 SCF Done:  E(RHF) =  -33.6509151768     A.U. after   11 cycles
 E2 =    -0.2284622396D+00 EUMP2 =    -0.33879377416409D+02
 CCSD(T)
 CCSD(T)= -0.33894900120D+02

 The electronic state is 1-A'.
 Alpha  occ. eigenvalues --   -1.41465  -1.29005  -0.77031  -0.71548  -0.58204
 Alpha  occ. eigenvalues --   -0.55922  -0.47644  -0.43462
 Alpha virt. eigenvalues --    0.17132   0.26557   0.28569   0.55755   0.73871
 Alpha virt. eigenvalues --    0.74549   0.86588   0.89568   0.94928   1.00692
 Alpha virt. eigenvalues --    1.15596   1.19236   1.25770   1.37030   2.72309

 Mulliken charges:
               1
     1  O   -0.772002
     2  H    0.402584
     3  H    0.336114
     4  O   -0.837213
     5  H    0.423736
     6  H    0.446781
 Sum of Mulliken charges =   0.00000

 Dipole moment (field-independent basis, Debye):
    X=             -1.3196    Y=             -5.0575    Z=              0.0000  Tot=              5.2269
 Quadrupole moment (field-independent basis, Debye-Ang):
   XX=             -9.3756   YY=             -9.7728   ZZ=            -15.0046
   XY=             -3.9283   XZ=             -0.0000   YZ=             -0.0000

 783\MP4DQ=-33.8889172\MP4SDQ=-33.8911092\CCSD=-33.8918892\CCSD(T)=-33.
 Normal termination of Gaussian 16 at Sun Dec 10 06:27:20 2023.
