 Gaussian 16, Revision A.03,
 Gaussian 16:  ES64L-G16RevA.03 25-Dec-2016

 ------------------
 #p CCSD(T)/CEP-31G
 ------------------

 -----------
 H2O_H2O_906
 -----------
 Symbolic Z-matrix:
 Charge =  0 Multiplicity = 1

                         Standard orientation:
 ---------------------------------------------------------------------
 Center     Atomic      Atomic             Coordinates (Angstroms)
 Number     Number       Type             X           Y           Z
 ---------------------------------------------------------------------
      1          8           0        0.076790   -1.462356    0.000000
      2          1           0        0.075795   -0.479755    0.000000
      3          1           0       -0.852379   -1.781963    0.000000
      4          8           0        0.076790    1.299208    0.000000
      5          1           0        0.451897    2.207394    0.000000
      6          1           0       -0.903960    1.359507    0.000000
 ---------------------------------------------------------------------

 SCF Done:  E(RHF) =  -33.6566841355     A.U. after   11 cycles
 E2 =    -0.2290185538D+00 EUMP2 =    -0.33885702689310D+02
 CCSD(T)
 CCSD(T)= -0.33902321302D+02

 The electronic state is 1-A'.
 Alpha  occ. eigenvalues --   -1.39429  -1.31757  -0.75455  -0.68514  -0.59198
 Alpha  occ. eigenvalues --   -0.53998  -0.51165  -0.46287
 Alpha virt. eigenvalues --    0.17025   0.26073   0.27532   0.45761   0.75018
 Alpha virt. eigenvalues --    0.77863   0.85179   0.86488   0.93943   1.09945
 Alpha virt. eigenvalues --    1.16440   1.21128   1.22543   1.36711   2.54670

 Mulliken charges:
               1
     1  O   -0.761221
     2  H    0.412718
     3  H    0.340356
     4  O   -0.806386
     5  H    0.433134
     6  H    0.381398
 Sum of Mulliken charges =   0.00000

 Dipole moment (field-independent basis, Debye):
    X=             -3.3468    Y=              4.3987    Z=              0.0000  Tot=              5.5272
 Quadrupole moment (field-independent basis, Debye-Ang):
   XX=            -10.3480   YY=             -9.0328   ZZ=            -15.0042
   XY=              3.3083   XZ=              0.0000   YZ=              0.0000

 03\MP4DQ=-33.8963732\MP4SDQ=-33.8985696\CCSD=-33.8995117\CCSD(T)=-33.9
 Normal termination of Gaussian 16 at Sun Dec 10 06:35:33 2023.
