 Gaussian 16, Revision A.03,
 Gaussian 16:  ES64L-G16RevA.03 25-Dec-2016

 ------------------
 #p CCSD(T)/CEP-31G
 ------------------

 -----------
 H2O_H2O_471
 -----------
 Symbolic Z-matrix:
 Charge =  0 Multiplicity = 1

                         Standard orientation:
 ---------------------------------------------------------------------
 Center     Atomic      Atomic             Coordinates (Angstroms)
 Number     Number       Type             X           Y           Z
 ---------------------------------------------------------------------
      1          8           0       -0.023410    1.286750    0.000000
      2          1           0       -0.018484    0.304161    0.000000
      3          1           0        0.904474    1.610072    0.000000
      4          8           0       -0.023410   -1.116473    0.000000
      5          1           0       -0.986159   -1.312997    0.000000
      6          1           0        0.474720   -1.963452    0.000000
 ---------------------------------------------------------------------

 SCF Done:  E(RHF) =  -33.6497433305     A.U. after   11 cycles
 E2 =    -0.2282363471D+00 EUMP2 =    -0.33877979677563D+02
 CCSD(T)
 CCSD(T)= -0.33893595687D+02

 The electronic state is 1-A'.
 Alpha  occ. eigenvalues --   -1.41484  -1.29196  -0.77526  -0.70846  -0.58493
 Alpha  occ. eigenvalues --   -0.55868  -0.47856  -0.43676
 Alpha virt. eigenvalues --    0.17205   0.26414   0.28545   0.55413   0.73865
 Alpha virt. eigenvalues --    0.75141   0.87124   0.89440   0.94338   1.02230
 Alpha virt. eigenvalues --    1.15473   1.20999   1.26585   1.37597   2.72985

 Mulliken charges:
               1
     1  O   -0.767778
     2  H    0.390361
     3  H    0.340860
     4  O   -0.839147
     5  H    0.419576
     6  H    0.456128
 Sum of Mulliken charges =   0.00000

 Dipole moment (field-independent basis, Debye):
    X=              1.0321    Y=             -4.9371    Z=              0.0000  Tot=              5.0439
 Quadrupole moment (field-independent basis, Debye-Ang):
   XX=             -9.5044   YY=             -9.7159   ZZ=            -15.0024
   XY=              4.0787   XZ=              0.0000   YZ=              0.0000

 603\MP4DQ=-33.8876068\MP4SDQ=-33.8898101\CCSD=-33.8906066\CCSD(T)=-33.
 Normal termination of Gaussian 16 at Sun Dec 10 06:27:23 2023.
