 Gaussian 16, Revision A.03,
 Gaussian 16:  ES64L-G16RevA.03 25-Dec-2016

 ------------------
 #p CCSD(T)/CEP-31G
 ------------------

 ------------
 H2O_H2O_4563
 ------------
 Symbolic Z-matrix:
 Charge =  0 Multiplicity = 1

                         Standard orientation:
 ---------------------------------------------------------------------
 Center     Atomic      Atomic             Coordinates (Angstroms)
 Number     Number       Type             X           Y           Z
 ---------------------------------------------------------------------
      1          8           0        0.052270    2.927368   -0.000000
      2          1           0        0.051054    1.944768   -0.000000
      3          1           0       -0.876828    3.247185   -0.000000
      4          8           0        0.052270   -2.747445    0.000000
      5          1           0        0.790226   -3.396232    0.000000
      6          1           0       -0.800778   -3.235107    0.000000
 ---------------------------------------------------------------------

 SCF Done:  E(RHF) =  -33.6531986493     A.U. after   11 cycles
 E2 =    -0.2283054010D+00 EUMP2 =    -0.33881504050335D+02
 CCSD(T)
 CCSD(T)= -0.33898464302D+02

 The electronic state is 1-A'.
 Alpha  occ. eigenvalues --   -1.36247  -1.34685  -0.71887  -0.70313  -0.56063
 Alpha  occ. eigenvalues --   -0.54464  -0.50840  -0.49279
 Alpha virt. eigenvalues --    0.19590   0.21212   0.29849   0.31491   0.79713
 Alpha virt. eigenvalues --    0.81241   0.82578   0.84235   0.85759   0.87357
 Alpha virt. eigenvalues --    1.16715   1.18278   1.21159   1.22784   2.56689

 Mulliken charges:
               1
     1  O   -0.746627
     2  H    0.378621
     3  H    0.367997
     4  O   -0.746159
     5  H    0.374399
     6  H    0.371769
 Sum of Mulliken charges =  -0.00000

 Dipole moment (field-independent basis, Debye):
    X=             -2.4014    Y=             -4.2189    Z=              0.0000  Tot=              4.8545
 Quadrupole moment (field-independent basis, Debye-Ang):
   XX=             -9.5148   YY=             -5.0952   ZZ=            -14.9914
   XY=             -6.8512   XZ=              0.0000   YZ=             -0.0000

 34\MP4DQ=-33.8928302\MP4SDQ=-33.8948543\CCSD=-33.8959068\CCSD(T)=-33.8
 Normal termination of Gaussian 16 at Sun Dec 10 06:55:08 2023.
