 Gaussian 16, Revision A.03,
 Gaussian 16:  ES64L-G16RevA.03 25-Dec-2016

 ------------------
 #p CCSD(T)/CEP-31G
 ------------------

 -----------
 H2O_H2O_254
 -----------
 Symbolic Z-matrix:
 Charge =  0 Multiplicity = 1

                         Standard orientation:
 ---------------------------------------------------------------------
 Center     Atomic      Atomic             Coordinates (Angstroms)
 Number     Number       Type             X           Y           Z
 ---------------------------------------------------------------------
      1          8           0        0.082834   -1.198362    0.000000
      2          1           0        0.082066   -0.215761    0.000000
      3          1           0       -0.846410   -1.517755    0.000000
      4          8           0        0.082834    1.043910    0.000000
      5          1           0        0.336409    1.993228    0.000000
      6          1           0       -0.897411    0.975906    0.000000
 ---------------------------------------------------------------------

 SCF Done:  E(RHF) =  -33.6167683646     A.U. after   11 cycles
 E2 =    -0.2283471935D+00 EUMP2 =    -0.33845115558078D+02
 CCSD(T)
 CCSD(T)= -0.33860710211D+02

 The electronic state is 1-A'.
 Alpha  occ. eigenvalues --   -1.44044  -1.29532  -0.81489  -0.71506  -0.57373
 Alpha  occ. eigenvalues --   -0.57202  -0.47778  -0.43696
 Alpha virt. eigenvalues --    0.16189   0.24141   0.29250   0.58192   0.73235
 Alpha virt. eigenvalues --    0.75561   0.87685   0.89850   0.96916   1.08772
 Alpha virt. eigenvalues --    1.13038   1.23332   1.25763   1.41885   2.90320

 Mulliken charges:
               1
     1  O   -0.702555
     2  H    0.308857
     3  H    0.312679
     4  O   -0.800119
     5  H    0.488958
     6  H    0.392179
 Sum of Mulliken charges =   0.00000

 Dipole moment (field-independent basis, Debye):
    X=             -3.4392    Y=              4.8352    Z=              0.0000  Tot=              5.9336
 Quadrupole moment (field-independent basis, Debye-Ang):
   XX=            -10.6690   YY=            -10.1002   ZZ=            -14.9437
   XY=              2.7781   XZ=              0.0000   YZ=              0.0000

 291\MP4DQ=-33.8544339\MP4SDQ=-33.8568633\CCSD=-33.8575949\CCSD(T)=-33.
 Normal termination of Gaussian 16 at Sun Dec 10 06:23:03 2023.
