 Gaussian 16, Revision A.03,
 Gaussian 16:  ES64L-G16RevA.03 25-Dec-2016

 ------------------
 #p CCSD(T)/CEP-31G
 ------------------

 -----------
 H2O_H2O_895
 -----------
 Symbolic Z-matrix:
 Charge =  0 Multiplicity = 1

                         Standard orientation:
 ---------------------------------------------------------------------
 Center     Atomic      Atomic             Coordinates (Angstroms)
 Number     Number       Type             X           Y           Z
 ---------------------------------------------------------------------
      1          8           0        0.026799    1.457823   -0.000000
      2          1           0        0.022696    0.475230   -0.000000
      3          1           0       -0.901355    1.780368    0.000000
      4          8           0        0.026799   -1.284686   -0.000000
      5          1           0        0.974849   -1.542962   -0.000000
      6          1           0       -0.524980   -2.097733    0.000000
 ---------------------------------------------------------------------

 SCF Done:  E(RHF) =  -33.6623320548     A.U. after   11 cycles
 E2 =    -0.2288104268D+00 EUMP2 =    -0.33891142481558D+02
 CCSD(T)
 CCSD(T)= -0.33907494099D+02

 The electronic state is 1-A'.
 Alpha  occ. eigenvalues --   -1.39301  -1.30895  -0.75029  -0.68402  -0.59441
 Alpha  occ. eigenvalues --   -0.54006  -0.50342  -0.45542
 Alpha virt. eigenvalues --    0.17570   0.26936   0.27711   0.47104   0.75094
 Alpha virt. eigenvalues --    0.76899   0.86257   0.87027   0.93466   1.04405
 Alpha virt. eigenvalues --    1.16179   1.18685   1.23617   1.36801   2.55637

 Mulliken charges:
               1
     1  O   -0.784470
     2  H    0.425567
     3  H    0.351686
     4  O   -0.819937
     5  H    0.404004
     6  H    0.423150
 Sum of Mulliken charges =  -0.00000

 Dipole moment (field-independent basis, Debye):
    X=             -1.1912    Y=             -4.6360    Z=              0.0000  Tot=              4.7866
 Quadrupole moment (field-independent basis, Debye-Ang):
   XX=             -9.4713   YY=             -8.9754   ZZ=            -15.0182
   XY=             -4.5947   XZ=             -0.0000   YZ=              0.0000

 39\MP4DQ=-33.9016212\MP4SDQ=-33.9037548\CCSD=-33.9046768\CCSD(T)=-33.9
 Normal termination of Gaussian 16 at Sun Dec 10 06:35:21 2023.
