 Gaussian 16, Revision A.03,
 Gaussian 16:  ES64L-G16RevA.03 25-Dec-2016

 ------------------
 #p CCSD(T)/CEP-31G
 ------------------

 ------------
 H2O_H2O_3121
 ------------
 Symbolic Z-matrix:
 Charge =  0 Multiplicity = 1

                         Standard orientation:
 ---------------------------------------------------------------------
 Center     Atomic      Atomic             Coordinates (Angstroms)
 Number     Number       Type             X           Y           Z
 ---------------------------------------------------------------------
      1          8           0       -0.023210    2.343823    0.000000
      2          1           0       -0.020589    1.361225    0.000000
      3          1           0        0.905430    2.664967    0.000000
      4          8           0       -0.023210   -2.173436    0.000000
      5          1           0       -0.986417   -2.367701    0.000000
      6          1           0        0.472933   -3.021581    0.000000
 ---------------------------------------------------------------------

 SCF Done:  E(RHF) =  -33.6551974741     A.U. after   11 cycles
 E2 =    -0.2282959426D+00 EUMP2 =    -0.33883493416695D+02
 CCSD(T)
 CCSD(T)= -0.33900403944D+02

 The electronic state is 1-A'.
 Alpha  occ. eigenvalues --   -1.36647  -1.34200  -0.72295  -0.69838  -0.56578
 Alpha  occ. eigenvalues --   -0.54037  -0.51267  -0.48825
 Alpha virt. eigenvalues --    0.18842   0.22111   0.29515   0.32219   0.79297
 Alpha virt. eigenvalues --    0.81660   0.82382   0.84464   0.85548   0.87785
 Alpha virt. eigenvalues --    1.16371   1.19105   1.20769   1.25302   2.56246

 Mulliken charges:
               1
     1  O   -0.754544
     2  H    0.385720
     3  H    0.368228
     4  O   -0.752686
     5  H    0.376722
     6  H    0.376560
 Sum of Mulliken charges =  -0.00000

 Dipole moment (field-independent basis, Debye):
    X=              1.0576    Y=             -4.0566    Z=              0.0000  Tot=              4.1922
 Quadrupole moment (field-independent basis, Debye-Ang):
   XX=             -9.5918   YY=             -6.9549   ZZ=            -14.9953
   XY=              7.6882   XZ=              0.0000   YZ=              0.0000

 0121\MP4DQ=-33.8947664\MP4SDQ=-33.8967994\CCSD=-33.8978405\CCSD(T)=-33
 Normal termination of Gaussian 16 at Sun Dec 10 06:29:14 2023.
