 Gaussian 16, Revision A.03,
 Gaussian 16:  ES64L-G16RevA.03 25-Dec-2016

 ------------------
 #p CCSD(T)/CEP-31G
 ------------------

 ------------
 H2O_H2O_4899
 ------------
 Symbolic Z-matrix:
 Charge =  0 Multiplicity = 1

                         Standard orientation:
 ---------------------------------------------------------------------
 Center     Atomic      Atomic             Coordinates (Angstroms)
 Number     Number       Type             X           Y           Z
 ---------------------------------------------------------------------
      1          8           0       -0.013462    3.045797    0.000000
      2          1           0       -0.011190    2.063198    0.000000
      3          1           0        0.915292    3.366612    0.000000
      4          8           0       -0.013462   -2.886516    0.000000
      5          1           0       -0.996061   -2.888787    0.000000
      6          1           0        0.307353   -3.815270    0.000000
 ---------------------------------------------------------------------

 SCF Done:  E(RHF) =  -33.6531149517     A.U. after   10 cycles
 E2 =    -0.2283005301D+00 EUMP2 =    -0.33881415481817D+02
 CCSD(T)
 CCSD(T)= -0.33898379719D+02

 The electronic state is 1-A'.
 Alpha  occ. eigenvalues --   -1.36181  -1.34937  -0.71821  -0.70576  -0.55988
 Alpha  occ. eigenvalues --   -0.54721  -0.50772  -0.49532
 Alpha virt. eigenvalues --    0.19658   0.20933   0.29916   0.31202   0.79778
 Alpha virt. eigenvalues --    0.80993   0.82673   0.83980   0.85816   0.87069
 Alpha virt. eigenvalues --    1.16779   1.18026   1.21225   1.22498   2.56753

 Mulliken charges:
               1
     1  O   -0.746265
     2  H    0.375923
     3  H    0.370340
     4  O   -0.746013
     5  H    0.372710
     6  H    0.373304
 Sum of Mulliken charges =  -0.00000

 Dipole moment (field-independent basis, Debye):
    X=              0.6190    Y=             -3.7244    Z=              0.0000  Tot=              3.7755
 Quadrupole moment (field-independent basis, Debye-Ang):
   XX=             -9.8777   YY=             -6.7927   ZZ=            -14.9911
   XY=             11.0521   XZ=              0.0000   YZ=              0.0000

 982\MP4DQ=-33.8927447\MP4SDQ=-33.8947689\CCSD=-33.8958221\CCSD(T)=-33.
 Normal termination of Gaussian 16 at Sun Dec 10 07:01:37 2023.
