 Gaussian 16, Revision A.03,
 Gaussian 16:  ES64L-G16RevA.03 25-Dec-2016

 ------------------
 #p CCSD(T)/CEP-31G
 ------------------

 ------------
 H2O_H2O_1785
 ------------
 Symbolic Z-matrix:
 Charge =  0 Multiplicity = 1

                         Standard orientation:
 ---------------------------------------------------------------------
 Center     Atomic      Atomic             Coordinates (Angstroms)
 Number     Number       Type             X           Y           Z
 ---------------------------------------------------------------------
      1          8           0        0.063267    1.818064   -0.000000
      2          1           0        0.061809    0.835464   -0.000000
      3          1           0       -0.865753    2.138109    0.000000
      4          8           0        0.063267   -1.642601   -0.000000
      5          1           0        0.660280   -2.423037   -0.000000
      6          1           0       -0.868605   -1.954242    0.000000
 ---------------------------------------------------------------------

 SCF Done:  E(RHF) =  -33.6584520705     A.U. after   11 cycles
 E2 =    -0.2287312459D+00 EUMP2 =    -0.33887183316430D+02
 CCSD(T)
 CCSD(T)= -0.33904064517D+02

 The electronic state is 1-A'.
 Alpha  occ. eigenvalues --   -1.37626  -1.32982  -0.73299  -0.68647  -0.57876
 Alpha  occ. eigenvalues --   -0.52771  -0.52282  -0.47617
 Alpha virt. eigenvalues --    0.17872   0.24329   0.28755   0.36393   0.77845
 Alpha virt. eigenvalues --    0.82075   0.83339   0.85612   0.89886   0.94048
 Alpha virt. eigenvalues --    1.15387   1.19820   1.20585   1.34440   2.50812

 Mulliken charges:
               1
     1  O   -0.769677
     2  H    0.411058
     3  H    0.356484
     4  O   -0.767527
     5  H    0.392133
     6  H    0.377530
 Sum of Mulliken charges =   0.00000

 Dipole moment (field-independent basis, Debye):
    X=             -2.8415    Y=             -4.3687    Z=              0.0000  Tot=              5.2115
 Quadrupole moment (field-independent basis, Debye-Ang):
   XX=             -9.7758   YY=             -7.8458   ZZ=            -15.0018
   XY=             -4.2850   XZ=             -0.0000   YZ=              0.0000

 5832\MP4DQ=-33.8983165\MP4SDQ=-33.900406\CCSD=-33.9014248\CCSD(T)=-33.
 Normal termination of Gaussian 16 at Sun Dec 10 06:52:35 2023.
