 Gaussian 16, Revision A.03,
 Gaussian 16:  ES64L-G16RevA.03 25-Dec-2016

 ------------------
 #p CCSD(T)/CEP-31G
 ------------------

 ------------
 H2O_H2O_1597
 ------------
 Symbolic Z-matrix:
 Charge =  0 Multiplicity = 1

                         Standard orientation:
 ---------------------------------------------------------------------
 Center     Atomic      Atomic             Coordinates (Angstroms)
 Number     Number       Type             X           Y           Z
 ---------------------------------------------------------------------
      1          8           0       -0.019948    1.733735    0.000000
      2          1           0       -0.016189    0.751141    0.000000
      3          1           0        0.908320    2.055955    0.000000
      4          8           0       -0.019948   -1.566673    0.000000
      5          1           0       -0.993645   -1.698654    0.000000
      6          1           0        0.420679   -2.444940    0.000000
 ---------------------------------------------------------------------

 SCF Done:  E(RHF) =  -33.6604717324     A.U. after   11 cycles
 E2 =    -0.2286758828D+00 EUMP2 =    -0.33889147615151D+02
 CCSD(T)
 CCSD(T)= -0.33905990328D+02

 The electronic state is 1-A'.
 Alpha  occ. eigenvalues --   -1.37796  -1.32776  -0.73511  -0.68557  -0.58210
 Alpha  occ. eigenvalues --   -0.52608  -0.52474  -0.47462
 Alpha virt. eigenvalues --    0.17820   0.24927   0.28713   0.37808   0.77369
 Alpha virt. eigenvalues --    0.80924   0.83792   0.86382   0.88893   1.00223
 Alpha virt. eigenvalues --    1.15546   1.18838   1.21376   1.36395   2.50990

 Mulliken charges:
               1
     1  O   -0.778460
     2  H    0.411713
     3  H    0.363752
     4  O   -0.778662
     5  H    0.386723
     6  H    0.394934
 Sum of Mulliken charges =   0.00000

 Dipole moment (field-independent basis, Debye):
    X=              0.8944    Y=             -4.1999    Z=              0.0000  Tot=              4.2941
 Quadrupole moment (field-independent basis, Debye-Ang):
   XX=             -9.6536   YY=             -8.2580   ZZ=            -15.0061
   XY=              5.8469   XZ=              0.0000   YZ=              0.0000

 876\MP4DQ=-33.9002207\MP4SDQ=-33.9023218\CCSD=-33.9033324\CCSD(T)=-33.
 Normal termination of Gaussian 16 at Sun Dec 10 06:49:01 2023.
