 Gaussian 16, Revision A.03,
 Gaussian 16:  ES64L-G16RevA.03 25-Dec-2016

 ------------------
 #p CCSD(T)/CEP-31G
 ------------------

 ------------
 H2O_H2O_1174
 ------------
 Symbolic Z-matrix:
 Charge =  0 Multiplicity = 1

                         Standard orientation:
 ---------------------------------------------------------------------
 Center     Atomic      Atomic             Coordinates (Angstroms)
 Number     Number       Type             X           Y           Z
 ---------------------------------------------------------------------
      1          8           0        0.013647   -1.559955    0.000000
      2          1           0        0.009094   -0.577364    0.000000
      3          1           0       -0.914360   -1.882924    0.000000
      4          8           0        0.013647    1.400737    0.000000
      5          1           0        0.996238    1.405289    0.000000
      6          1           0       -0.309323    2.328743    0.000000
 ---------------------------------------------------------------------

 SCF Done:  E(RHF) =  -33.6611053749     A.U. after   11 cycles
 E2 =    -0.2286789446D+00 EUMP2 =    -0.33889784319494D+02
 CCSD(T)
 CCSD(T)= -0.33906524443D+02

 The electronic state is 1-A'.
 Alpha  occ. eigenvalues --   -1.38545  -1.32183  -0.74482  -0.68241  -0.59066
 Alpha  occ. eigenvalues --   -0.53205  -0.51871  -0.46869
 Alpha virt. eigenvalues --    0.17619   0.25947   0.28155   0.42149   0.75984
 Alpha virt. eigenvalues --    0.79187   0.85302   0.86334   0.89982   1.10383
 Alpha virt. eigenvalues --    1.16636   1.18421   1.22601   1.37325   2.52115

 Mulliken charges:
               1
     1  O   -0.780495
     2  H    0.410361
     3  H    0.362970
     4  O   -0.798898
     5  H    0.392001
     6  H    0.414061
 Sum of Mulliken charges =  -0.00000

 Dipole moment (field-independent basis, Debye):
    X=             -0.6111    Y=              4.1530    Z=              0.0000  Tot=              4.1977
 Quadrupole moment (field-independent basis, Debye-Ang):
   XX=             -9.8420   YY=             -8.8113   ZZ=            -15.0103
   XY=              5.5351   XZ=              0.0000   YZ=              0.0000

 658\MP4DQ=-33.900676\MP4SDQ=-33.902818\CCSD=-33.9037986\CCSD(T)=-33.90
 Normal termination of Gaussian 16 at Sun Dec 10 06:40:37 2023.
