 Gaussian 16, Revision A.03,
 Gaussian 16:  ES64L-G16RevA.03 25-Dec-2016

 ------------------
 #p CCSD(T)/CEP-31G
 ------------------

 ----------
 H2O_H2O_40
 ----------
 Symbolic Z-matrix:
 Charge =  0 Multiplicity = 1

                         Standard orientation:
 ---------------------------------------------------------------------
 Center     Atomic      Atomic             Coordinates (Angstroms)
 Number     Number       Type             X           Y           Z
 ---------------------------------------------------------------------
      1          8           0        0.045055    1.122617   -0.000000
      2          1           0        0.041102    0.140023   -0.000000
      3          1           0       -0.883148    1.445020    0.000000
      4          8           0        0.045055   -0.942413   -0.000000
      5          1           0        0.859856   -1.491601   -0.000000
      6          1           0       -0.738696   -1.535068    0.000000
 ---------------------------------------------------------------------

 SCF Done:  E(RHF) =  -33.5893815037     A.U. after   11 cycles
 E2 =    -0.2272229852D+00 EUMP2 =    -0.33816604488840D+02
 CCSD(T)
 CCSD(T)= -0.33830994543D+02

 The electronic state is 1-A'.
 Alpha  occ. eigenvalues --   -1.46651  -1.26246  -0.80923  -0.79427  -0.59546
 Alpha  occ. eigenvalues --   -0.53884  -0.42755  -0.40061
 Alpha virt. eigenvalues --    0.16106   0.24785   0.30670   0.62542   0.73183
 Alpha virt. eigenvalues --    0.73582   0.84702   0.91825   0.92347   1.07594
 Alpha virt. eigenvalues --    1.13236   1.15880   1.30976   1.36516   2.98181

 Mulliken charges:
               1
     1  O   -0.744328
     2  H    0.278970
     3  H    0.300753
     4  O   -0.750144
     5  H    0.461444
     6  H    0.453306
 Sum of Mulliken charges =  -0.00000

 Dipole moment (field-independent basis, Debye):
    X=             -1.8114    Y=             -5.8670    Z=              0.0000  Tot=              6.1403
 Quadrupole moment (field-independent basis, Debye-Ang):
   XX=             -9.2728   YY=            -10.8743   ZZ=            -14.9136
   XY=             -3.2541   XZ=             -0.0000   YZ=              0.0000

 MP4DQ=-33.824771\MP4SDQ=-33.8271548\CCSD=-33.8277111\CCSD(T)=-33.83099
 Normal termination of Gaussian 16 at Sun Dec 10 06:18:48 2023.
