 Gaussian 16, Revision A.03,
 Gaussian 16:  ES64L-G16RevA.03 25-Dec-2016

 ------------------
 #p CCSD(T)/CEP-31G
 ------------------

 ------------
 H2O_H2O_1121
 ------------
 Symbolic Z-matrix:
 Charge =  0 Multiplicity = 1

                         Standard orientation:
 ---------------------------------------------------------------------
 Center     Atomic      Atomic             Coordinates (Angstroms)
 Number     Number       Type             X           Y           Z
 ---------------------------------------------------------------------
      1          8           0       -0.023334    1.546039    0.000000
      2          1           0       -0.019282    0.563446    0.000000
      3          1           0        0.904837    1.868535    0.000000
      4          8           0       -0.023334   -1.375720    0.000000
      5          1           0       -0.986257   -1.571387    0.000000
      6          1           0        0.474043   -2.223141    0.000000
 ---------------------------------------------------------------------

 SCF Done:  E(RHF) =  -33.6625676684     A.U. after   11 cycles
 E2 =    -0.2287890113D+00 EUMP2 =    -0.33891356679684D+02
 CCSD(T)
 CCSD(T)= -0.33907966443D+02

 The electronic state is 1-A'.
 Alpha  occ. eigenvalues --   -1.38653  -1.31667  -0.74413  -0.68099  -0.59200
 Alpha  occ. eigenvalues --   -0.53359  -0.51316  -0.46348
 Alpha virt. eigenvalues --    0.17696   0.26229   0.28096   0.43376   0.75865
 Alpha virt. eigenvalues --    0.78389   0.85797   0.86387   0.91581   1.06465
 Alpha virt. eigenvalues --    1.16254   1.17780   1.22769   1.36217   2.51953

 Mulliken charges:
               1
     1  O   -0.785030
     2  H    0.423017
     3  H    0.357464
     4  O   -0.804813
     5  H    0.396254
     6  H    0.413107
 Sum of Mulliken charges =   0.00000

 Dipole moment (field-independent basis, Debye):
    X=              1.0430    Y=             -4.4485    Z=              0.0000  Tot=              4.5691
 Quadrupole moment (field-independent basis, Debye-Ang):
   XX=             -9.5546   YY=             -8.6817   ZZ=            -15.0148
   XY=              5.0262   XZ=              0.0000   YZ=              0.0000

 06\MP4DQ=-33.9021303\MP4SDQ=-33.9042521\CCSD=-33.9052193\CCSD(T)=-33.9
 Normal termination of Gaussian 16 at Sun Dec 10 06:39:35 2023.
