 Gaussian 16, Revision A.03,
 Gaussian 16:  ES64L-G16RevA.03 25-Dec-2016

 ------------------
 #p CCSD(T)/CEP-31G
 ------------------

 ------------
 H2O_H2O_4483
 ------------
 Symbolic Z-matrix:
 Charge =  0 Multiplicity = 1

                         Standard orientation:
 ---------------------------------------------------------------------
 Center     Atomic      Atomic             Coordinates (Angstroms)
 Number     Number       Type             X           Y           Z
 ---------------------------------------------------------------------
      1          8           0        0.070184    2.892206   -0.000000
      2          1           0        0.069496    1.909605   -0.000000
      3          1           0       -0.859086    3.211523   -0.000000
      4          8           0        0.070184   -2.721938    0.000000
      5          1           0        0.560889   -3.573239    0.000000
      6          1           0       -0.894245   -2.910036    0.000000
 ---------------------------------------------------------------------

 SCF Done:  E(RHF) =  -33.6528704725     A.U. after   11 cycles
 E2 =    -0.2283208021D+00 EUMP2 =    -0.33881191274558D+02
 CCSD(T)
 CCSD(T)= -0.33898161010D+02

 The electronic state is 1-A'.
 Alpha  occ. eigenvalues --   -1.36277  -1.34780  -0.71920  -0.70402  -0.56075
 Alpha  occ. eigenvalues --   -0.54544  -0.50864  -0.49366
 Alpha virt. eigenvalues --    0.19530   0.21107   0.29798   0.31377   0.79693
 Alpha virt. eigenvalues --    0.81159   0.82583   0.84162   0.85725   0.87310
 Alpha virt. eigenvalues --    1.16673   1.18169   1.21113   1.22693   2.56650

 Mulliken charges:
               1
     1  O   -0.745377
     2  H    0.378017
     3  H    0.367349
     4  O   -0.745217
     5  H    0.374722
     6  H    0.370506
 Sum of Mulliken charges =   0.00000

 Dipole moment (field-independent basis, Debye):
    X=             -3.2255    Y=             -3.9959    Z=              0.0000  Tot=              5.1353
 Quadrupole moment (field-independent basis, Debye-Ang):
   XX=            -10.0239   YY=             -6.0246   ZZ=            -14.9906
   XY=             -5.0874   XZ=              0.0000   YZ=             -0.0000

 779\MP4DQ=-33.8925242\MP4SDQ=-33.8945492\CCSD=-33.8956022\CCSD(T)=-33.
 Normal termination of Gaussian 16 at Sun Dec 10 06:53:41 2023.
