 Gaussian 16, Revision A.03,
 Gaussian 16:  ES64L-G16RevA.03 25-Dec-2016

 ------------------
 #p CCSD(T)/CEP-31G
 ------------------

 ------------
 H2O_H2O_1322
 ------------
 Symbolic Z-matrix:
 Charge =  0 Multiplicity = 1

                         Standard orientation:
 ---------------------------------------------------------------------
 Center     Atomic      Atomic             Coordinates (Angstroms)
 Number     Number       Type             X           Y           Z
 ---------------------------------------------------------------------
      1          8           0       -0.019970    1.624039    0.000000
      2          1           0       -0.015944    0.641446    0.000000
      3          1           0        0.908209    1.946512    0.000000
      4          8           0       -0.019970   -1.456988    0.000000
      5          1           0       -0.993632   -1.589234    0.000000
      6          1           0        0.420895   -2.335136    0.000000
 ---------------------------------------------------------------------

 SCF Done:  E(RHF) =  -33.6617152612     A.U. after   11 cycles
 E2 =    -0.2287384368D+00 EUMP2 =    -0.33890453698016D+02
 CCSD(T)
 CCSD(T)= -0.33907210090D+02

 The electronic state is 1-A'.
 Alpha  occ. eigenvalues --   -1.38229  -1.32255  -0.73993  -0.68250  -0.58776
 Alpha  occ. eigenvalues --   -0.52920  -0.52011  -0.46945
 Alpha virt. eigenvalues --    0.17746   0.25638   0.28384   0.40621   0.76534
 Alpha virt. eigenvalues --    0.79616   0.84816   0.86426   0.90070   1.05851
 Alpha virt. eigenvalues --    1.15868   1.17806   1.22081   1.36532   2.50889

 Mulliken charges:
               1
     1  O   -0.782784
     2  H    0.417499
     3  H    0.361425
     4  O   -0.792198
     5  H    0.390994
     6  H    0.405065
 Sum of Mulliken charges =  -0.00000

 Dipole moment (field-independent basis, Debye):
    X=              0.8944    Y=             -4.2863    Z=              0.0000  Tot=              4.3786
 Quadrupole moment (field-independent basis, Debye-Ang):
   XX=             -9.6461   YY=             -8.5119   ZZ=            -15.0104
   XY=              5.4522   XZ=              0.0000   YZ=              0.0000

 6835\MP4DQ=-33.9014003\MP4SDQ=-33.9035163\CCSD=-33.9045088\CCSD(T)=-33
 Normal termination of Gaussian 16 at Sun Dec 10 06:43:32 2023.
