 Gaussian 16, Revision A.03,
 Gaussian 16:  ES64L-G16RevA.03 25-Dec-2016

 ------------------
 #p CCSD(T)/CEP-31G
 ------------------

 ------------
 H2O_H2O_2247
 ------------
 Symbolic Z-matrix:
 Charge =  0 Multiplicity = 1

                         Standard orientation:
 ---------------------------------------------------------------------
 Center     Atomic      Atomic             Coordinates (Angstroms)
 Number     Number       Type             X           Y           Z
 ---------------------------------------------------------------------
      1          8           0       -0.019904    1.993014    0.000000
      2          1           0       -0.016656    1.010418    0.000000
      3          1           0        0.908530    2.314751    0.000000
      4          8           0       -0.019904   -1.825931    0.000000
      5          1           0       -0.993670   -1.957406    0.000000
      6          1           0        0.420266   -2.704428    0.000000
 ---------------------------------------------------------------------

 SCF Done:  E(RHF) =  -33.6575510078     A.U. after   11 cycles
 E2 =    -0.2284583354D+00 EUMP2 =    -0.33886009343113D+02
 CCSD(T)
 CCSD(T)= -0.33902903838D+02

 The electronic state is 1-A'.
 Alpha  occ. eigenvalues --   -1.37147  -1.33607  -0.72814  -0.69264  -0.57254
 Alpha  occ. eigenvalues --   -0.53476  -0.51794  -0.48265
 Alpha virt. eigenvalues --    0.18029   0.23461   0.29190   0.33871   0.78638
 Alpha virt. eigenvalues --    0.82344   0.82889   0.85468   0.87762   0.89191
 Alpha virt. eigenvalues --    1.15895   1.19903   1.20526   1.32408   2.53865

 Mulliken charges:
               1
     1  O   -0.765486
     2  H    0.396552
     3  H    0.366873
     4  O   -0.760840
     5  H    0.380606
     6  H    0.382295
 Sum of Mulliken charges =   0.00000

 Dipole moment (field-independent basis, Debye):
    X=              0.8980    Y=             -4.0712    Z=              0.0000  Tot=              4.1691
 Quadrupole moment (field-independent basis, Debye-Ang):
   XX=             -9.6654   YY=             -7.7493   ZZ=            -14.9995
   XY=              6.7507   XZ=              0.0000   YZ=              0.0000

 \MP4DQ=-33.8972127\MP4SDQ=-33.8992809\CCSD=-33.9003075\CCSD(T)=-33.902
 Normal termination of Gaussian 16 at Sun Dec 10 07:02:14 2023.
