 Gaussian 16, Revision A.03,
 Gaussian 16:  ES64L-G16RevA.03 25-Dec-2016

 ------------------
 #p CCSD(T)/CEP-31G
 ------------------

 ------------
 H2O_H2O_2248
 ------------
 Symbolic Z-matrix:
 Charge =  0 Multiplicity = 1

                         Standard orientation:
 ---------------------------------------------------------------------
 Center     Atomic      Atomic             Coordinates (Angstroms)
 Number     Number       Type             X           Y           Z
 ---------------------------------------------------------------------
      1          8           0       -0.016671    1.990999    0.000000
      2          1           0       -0.013279    1.008403    0.000000
      3          1           0        0.911717    2.312872    0.000000
      4          8           0       -0.016671   -1.827627    0.000000
      5          1           0       -0.996941   -1.895276    0.000000
      6          1           0        0.365233   -2.732975    0.000000
 ---------------------------------------------------------------------

 SCF Done:  E(RHF) =  -33.6574072752     A.U. after   11 cycles
 E2 =    -0.2284565947D+00 EUMP2 =    -0.33885863869882D+02
 CCSD(T)
 CCSD(T)= -0.33902764729D+02

 The electronic state is 1-A'.
 Alpha  occ. eigenvalues --   -1.37144  -1.33690  -0.72818  -0.69350  -0.57239
 Alpha  occ. eigenvalues --   -0.53560  -0.51788  -0.48348
 Alpha virt. eigenvalues --    0.17931   0.23451   0.29190   0.33781   0.78638
 Alpha virt. eigenvalues --    0.82271   0.82806   0.85348   0.87780   0.89385
 Alpha virt. eigenvalues --    1.15880   1.19841   1.20530   1.32742   2.54116

 Mulliken charges:
               1
     1  O   -0.764991
     2  H    0.395315
     3  H    0.367650
     4  O   -0.760740
     5  H    0.380106
     6  H    0.382660
 Sum of Mulliken charges =   0.00000

 Dipole moment (field-independent basis, Debye):
    X=              0.7518    Y=             -3.9791    Z=              0.0000  Tot=              4.0495
 Quadrupole moment (field-independent basis, Debye-Ang):
   XX=             -9.7590   YY=             -7.9173   ZZ=            -14.9991
   XY=              6.9533   XZ=              0.0000   YZ=              0.0000

 196\MP4DQ=-33.8970721\MP4SDQ=-33.8991412\CCSD=-33.900168\CCSD(T)=-33.9
 Normal termination of Gaussian 16 at Sun Dec 10 07:02:17 2023.
