 Gaussian 16, Revision A.03,
 Gaussian 16:  ES64L-G16RevA.03 25-Dec-2016

 ------------------
 #p CCSD(T)/CEP-31G
 ------------------

 ------------
 H2O_H2O_2364
 ------------
 Symbolic Z-matrix:
 Charge =  0 Multiplicity = 1

                         Standard orientation:
 ---------------------------------------------------------------------
 Center     Atomic      Atomic             Coordinates (Angstroms)
 Number     Number       Type             X           Y           Z
 ---------------------------------------------------------------------
      1          8           0        0.048606    2.050081    0.000000
      2          1           0        0.046685    1.067482    0.000000
      3          1           0       -0.880262    2.370565    0.000000
      4          8           0        0.048606   -1.869718   -0.000000
      5          1           0        0.826986   -2.469411   -0.000000
      6          1           0       -0.771110   -2.411541   -0.000000
 ---------------------------------------------------------------------

 SCF Done:  E(RHF) =  -33.6570270977     A.U. after   11 cycles
 E2 =    -0.2284599333D+00 EUMP2 =    -0.33885487030971D+02
 CCSD(T)
 CCSD(T)= -0.33902374838D+02

 The electronic state is 1-A'.
 Alpha  occ. eigenvalues --   -1.37092  -1.33483  -0.72742  -0.69106  -0.57170
 Alpha  occ. eigenvalues --   -0.53324  -0.51737  -0.48122
 Alpha virt. eigenvalues --    0.18356   0.23253   0.29209   0.33688   0.78762
 Alpha virt. eigenvalues --    0.82420   0.83955   0.85548   0.85882   0.88569
 Alpha virt. eigenvalues --    1.15994   1.19960   1.20450   1.30001   2.53659

 Mulliken charges:
               1
     1  O   -0.762771
     2  H    0.398249
     3  H    0.362547
     4  O   -0.757609
     5  H    0.382584
     6  H    0.377000
 Sum of Mulliken charges =  -0.00000

 Dipole moment (field-independent basis, Debye):
    X=             -2.2016    Y=             -4.3850    Z=             -0.0000  Tot=              4.9067
 Quadrupole moment (field-independent basis, Debye-Ang):
   XX=             -9.4559   YY=             -7.0739   ZZ=            -14.9989
   XY=             -5.3770   XZ=             -0.0000   YZ=              0.0000

 \MP4DQ=-33.8966972\MP4SDQ=-33.8987572\CCSD=-33.8997861\CCSD(T)=-33.902
 Normal termination of Gaussian 16 at Sun Dec 10 07:04:57 2023.
