 Gaussian 16, Revision A.03,
 Gaussian 16:  ES64L-G16RevA.03 25-Dec-2016

 ------------------
 #p CCSD(T)/CEP-31G
 ------------------

 ------------
 H2O_H2O_2685
 ------------
 Symbolic Z-matrix:
 Charge =  0 Multiplicity = 1

                         Standard orientation:
 ---------------------------------------------------------------------
 Center     Atomic      Atomic             Coordinates (Angstroms)
 Number     Number       Type             X           Y           Z
 ---------------------------------------------------------------------
      1          8           0        0.063244    2.177069    0.000000
      2          1           0        0.062037    1.194469    0.000000
      3          1           0       -0.865856    2.496877    0.000000
      4          8           0        0.063244   -2.001573    0.000000
      5          1           0        0.660456   -2.781859    0.000000
      6          1           0       -0.868548   -2.313454    0.000000
 ---------------------------------------------------------------------

 SCF Done:  E(RHF) =  -33.6553862062     A.U. after   11 cycles
 E2 =    -0.2284064364D+00 EUMP2 =    -0.33883792642547D+02
 CCSD(T)
 CCSD(T)= -0.33900709138D+02

 The electronic state is 1-A'.
 Alpha  occ. eigenvalues --   -1.36905  -1.33899  -0.72561  -0.69504  -0.56861
 Alpha  occ. eigenvalues --   -0.53707  -0.51525  -0.48514
 Alpha virt. eigenvalues --    0.18443   0.22611   0.29275   0.32759   0.79033
 Alpha virt. eigenvalues --    0.81990   0.83386   0.84880   0.85310   0.88253
 Alpha virt. eigenvalues --    1.16115   1.19494   1.20555   1.27828   2.55173

 Mulliken charges:
               1
     1  O   -0.755720
     2  H    0.391512
     3  H    0.362897
     4  O   -0.752923
     5  H    0.380910
     6  H    0.373323
 Sum of Mulliken charges =   0.00000

 Dipole moment (field-independent basis, Debye):
    X=             -2.8785    Y=             -4.2282    Z=              0.0000  Tot=              5.1150
 Quadrupole moment (field-independent basis, Debye-Ang):
   XX=             -9.7776   YY=             -7.0151   ZZ=            -14.9955
   XY=             -4.7807   XZ=              0.0000   YZ=              0.0000

 969\MP4DQ=-33.8950485\MP4SDQ=-33.8970977\CCSD=-33.8981327\CCSD(T)=-33.
 Normal termination of Gaussian 16 at Sun Dec 10 06:21:20 2023.
