 Gaussian 16, Revision A.03,
 Gaussian 16:  ES64L-G16RevA.03 25-Dec-2016

 ------------------
 #p CCSD(T)/CEP-31G
 ------------------

 -----------
 H2O_H2O_838
 -----------
 Symbolic Z-matrix:
 Charge =  0 Multiplicity = 1

                         Standard orientation:
 ---------------------------------------------------------------------
 Center     Atomic      Atomic             Coordinates (Angstroms)
 Number     Number       Type             X           Y           Z
 ---------------------------------------------------------------------
      1          8           0       -0.052393    1.441482    0.000000
      2          1           0       -0.049840    0.458883    0.000000
      3          1           0        0.876269    1.762562    0.000000
      4          8           0       -0.052393   -1.261701    0.000000
      5          1           0       -0.789465   -1.911491    0.000000
      6          1           0        0.801318   -1.748202    0.000000
 ---------------------------------------------------------------------

 SCF Done:  E(RHF) =  -33.6616565651     A.U. after   11 cycles
 E2 =    -0.2291429830D+00 EUMP2 =    -0.33890799548090D+02
 CCSD(T)
 CCSD(T)= -0.33907025173D+02

 The electronic state is 1-A'.
 Alpha  occ. eigenvalues --   -1.39533  -1.30618  -0.75031  -0.68878  -0.59225
 Alpha  occ. eigenvalues --   -0.54253  -0.49968  -0.45205
 Alpha virt. eigenvalues --    0.17388   0.27027   0.27619   0.48342   0.74915
 Alpha virt. eigenvalues --    0.76098   0.85298   0.87401   0.96903   1.00065
 Alpha virt. eigenvalues --    1.14874   1.18715   1.22870   1.36420   2.56856

 Mulliken charges:
               1
     1  O   -0.781867
     2  H    0.436493
     3  H    0.340991
     4  O   -0.820037
     5  H    0.422033
     6  H    0.402388
 Sum of Mulliken charges =  -0.00000

 Dipole moment (field-independent basis, Debye):
    X=              2.2638    Y=             -4.8231    Z=              0.0000  Tot=              5.3279
 Quadrupole moment (field-independent basis, Debye-Ang):
   XX=             -9.4638   YY=             -9.0806   ZZ=            -15.0178
   XY=              4.0028   XZ=              0.0000   YZ=              0.0000

 705\MP4DQ=-33.9011303\MP4SDQ=-33.9032695\CCSD=-33.9041646\CCSD(T)=-33.
 Normal termination of Gaussian 16 at Sun Dec 10 06:34:16 2023.
