 Gaussian 16, Revision A.03,
 Gaussian 16:  ES64L-G16RevA.03 25-Dec-2016

 ------------------
 #p CCSD(T)/CEP-31G
 ------------------

 ------------
 H2O_H2O_1786
 ------------
 Symbolic Z-matrix:
 Charge =  0 Multiplicity = 1

                         Standard orientation:
 ---------------------------------------------------------------------
 Center     Atomic      Atomic             Coordinates (Angstroms)
 Number     Number       Type             X           Y           Z
 ---------------------------------------------------------------------
      1          8           0        0.059676    1.819116    0.000000
      2          1           0        0.058042    0.836516    0.000000
      3          1           0       -0.869286    2.139327    0.000000
      4          8           0        0.059676   -1.641717   -0.000000
      5          1           0        0.706321   -2.381552   -0.000000
      6          1           0       -0.849885   -2.013476   -0.000000
 ---------------------------------------------------------------------

 SCF Done:  E(RHF) =  -33.6587971203     A.U. after   11 cycles
 E2 =    -0.2287236660D+00 EUMP2 =    -0.33887520786256D+02
 CCSD(T)
 CCSD(T)= -0.33904387630D+02

 The electronic state is 1-A'.
 Alpha  occ. eigenvalues --   -1.37617  -1.32912  -0.73281  -0.68588  -0.57894
 Alpha  occ. eigenvalues --   -0.52710  -0.52280  -0.47554
 Alpha virt. eigenvalues --    0.17937   0.24373   0.28781   0.36483   0.77852
 Alpha virt. eigenvalues --    0.82081   0.83388   0.85712   0.89953   0.93551
 Alpha virt. eigenvalues --    1.15424   1.19942   1.20557   1.34036   2.50702

 Mulliken charges:
               1
     1  O   -0.770964
     2  H    0.412012
     3  H    0.356856
     4  O   -0.768141
     5  H    0.391585
     6  H    0.378653
 Sum of Mulliken charges =  -0.00000

 Dipole moment (field-independent basis, Debye):
    X=             -2.6790    Y=             -4.4146    Z=             -0.0000  Tot=              5.1639
 Quadrupole moment (field-independent basis, Debye-Ang):
   XX=             -9.6680   YY=             -7.7867   ZZ=            -15.0026
   XY=             -4.4456   XZ=             -0.0000   YZ=              0.0000

 1\MP4DQ=-33.898644\MP4SDQ=-33.9007303\CCSD=-33.9017485\CCSD(T)=-33.904
 Normal termination of Gaussian 16 at Sun Dec 10 06:52:36 2023.
