 Gaussian 16, Revision A.03,
 Gaussian 16:  ES64L-G16RevA.03 25-Dec-2016

 ------------------
 #p CCSD(T)/CEP-31G
 ------------------

 ------------
 H2O_H2O_2242
 ------------
 Symbolic Z-matrix:
 Charge =  0 Multiplicity = 1

                         Standard orientation:
 ---------------------------------------------------------------------
 Center     Atomic      Atomic             Coordinates (Angstroms)
 Number     Number       Type             X           Y           Z
 ---------------------------------------------------------------------
      1          8           0        0.037481    1.999448   -0.000000
      2          1           0        0.035015    1.016850   -0.000000
      3          1           0       -0.891209    2.320447   -0.000000
      4          8           0        0.037481   -1.820513    0.000000
      5          1           0        0.917657   -2.257317    0.000000
      6          1           0       -0.661163   -2.511456    0.000000
 ---------------------------------------------------------------------

 SCF Done:  E(RHF) =  -33.6577649185     A.U. after   11 cycles
 E2 =    -0.2284802734D+00 EUMP2 =    -0.33886245191928D+02
 CCSD(T)
 CCSD(T)= -0.33903122513D+02

 The electronic state is 1-A'.
 Alpha  occ. eigenvalues --   -1.37168  -1.33360  -0.72817  -0.69002  -0.57303
 Alpha  occ. eigenvalues --   -0.53218  -0.51822  -0.48013
 Alpha virt. eigenvalues --    0.18285   0.23512   0.29176   0.34135   0.78628
 Alpha virt. eigenvalues --    0.82569   0.83429   0.85950   0.86910   0.88816
 Alpha virt. eigenvalues --    1.15932   1.20068   1.20455   1.31105   2.53104

 Mulliken charges:
               1
     1  O   -0.766038
     2  H    0.400451
     3  H    0.363435
     4  O   -0.760234
     5  H    0.382659
     6  H    0.379729
 Sum of Mulliken charges =  -0.00000

 Dipole moment (field-independent basis, Debye):
    X=             -1.6937    Y=             -4.3658    Z=              0.0000  Tot=              4.6828
 Quadrupole moment (field-independent basis, Debye-Ang):
   XX=             -9.4037   YY=             -7.2526   ZZ=            -15.0004
   XY=             -5.8088   XZ=              0.0000   YZ=             -0.0000

 4\MP4DQ=-33.897436\MP4SDQ=-33.8995004\CCSD=-33.900527\CCSD(T)=-33.9031
 Normal termination of Gaussian 16 at Sun Dec 10 07:01:50 2023.
