 Gaussian 16, Revision A.03,
 Gaussian 16:  ES64L-G16RevA.03 25-Dec-2016

 ------------------
 #p CCSD(T)/CEP-31G
 ------------------

 -----------
 H2O_H2O_815
 -----------
 Symbolic Z-matrix:
 Charge =  0 Multiplicity = 1

                         Standard orientation:
 ---------------------------------------------------------------------
 Center     Atomic      Atomic             Coordinates (Angstroms)
 Number     Number       Type             X           Y           Z
 ---------------------------------------------------------------------
      1          8           0        0.044972    1.431786    0.000000
      2          1           0        0.041929    0.449189    0.000000
      3          1           0       -0.883530    1.753329   -0.000000
      4          8           0        0.044972   -1.251500    0.000000
      5          1           0        0.860281   -1.799931    0.000000
      6          1           0       -0.738231   -1.844881   -0.000000
 ---------------------------------------------------------------------

 SCF Done:  E(RHF) =  -33.6620257848     A.U. after   11 cycles
 E2 =    -0.2290962058D+00 EUMP2 =    -0.33891121990599D+02
 CCSD(T)
 CCSD(T)= -0.33907287376D+02

 The electronic state is 1-A'.
 Alpha  occ. eigenvalues --   -1.39602  -1.30452  -0.75060  -0.68988  -0.59231
 Alpha  occ. eigenvalues --   -0.54333  -0.49780  -0.45048
 Alpha virt. eigenvalues --    0.17428   0.27205   0.27593   0.48898   0.74847
 Alpha virt. eigenvalues --    0.75843   0.85465   0.87577   0.97403   0.98591
 Alpha virt. eigenvalues --    1.14972   1.18579   1.23294   1.36625   2.57443

 Mulliken charges:
               1
     1  O   -0.784099
     2  H    0.436150
     3  H    0.342317
     4  O   -0.822029
     5  H    0.417600
     6  H    0.410060
 Sum of Mulliken charges =   0.00000

 Dipole moment (field-independent basis, Debye):
    X=             -1.9511    Y=             -4.8494    Z=             -0.0000  Tot=              5.2272
 Quadrupole moment (field-independent basis, Debye-Ang):
   XX=             -9.3649   YY=             -9.1264   ZZ=            -15.0193
   XY=             -4.1112   XZ=              0.0000   YZ=             -0.0000

 9\MP4DQ=-33.9013968\MP4SDQ=-33.903531\CCSD=-33.9044179\CCSD(T)=-33.907
 Normal termination of Gaussian 16 at Sun Dec 10 06:33:51 2023.
