 Gaussian 16, Revision A.03,
 Gaussian 16:  ES64L-G16RevA.03 25-Dec-2016

 ------------------
 #p CCSD(T)/CEP-31G
 ------------------

 ------------
 H2O_H2O_4605
 ------------
 Symbolic Z-matrix:
 Charge =  0 Multiplicity = 1

                         Standard orientation:
 ---------------------------------------------------------------------
 Center     Atomic      Atomic             Coordinates (Angstroms)
 Number     Number       Type             X           Y           Z
 ---------------------------------------------------------------------
      1          8           0        0.079844    2.935987    0.000000
      2          1           0        0.079454    1.953386    0.000000
      3          1           0       -0.849523    3.255022    0.000000
      4          8           0        0.079844   -2.776909   -0.000000
      5          1           0        0.395323   -3.707490   -0.000000
      6          1           0       -0.902752   -2.773541   -0.000000
 ---------------------------------------------------------------------

 SCF Done:  E(RHF) =  -33.6525197084     A.U. after   11 cycles
 E2 =    -0.2283358671D+00 EUMP2 =    -0.33880855575524D+02
 CCSD(T)
 CCSD(T)= -0.33897835718D+02

 The electronic state is 1-A'.
 Alpha  occ. eigenvalues --   -1.36264  -1.34931  -0.71908  -0.70552  -0.56043
 Alpha  occ. eigenvalues --   -0.54684  -0.50845  -0.49512
 Alpha virt. eigenvalues --    0.19520   0.20934   0.29792   0.31188   0.79713
 Alpha virt. eigenvalues --    0.81021   0.82642   0.84029   0.85747   0.87187
 Alpha virt. eigenvalues --    1.16670   1.18002   1.21117   1.22511   2.56649

 Mulliken charges:
               1
     1  O   -0.744022
     2  H    0.376621
     3  H    0.367396
     4  O   -0.744087
     5  H    0.374495
     6  H    0.369597
 Sum of Mulliken charges =   0.00000

 Dipole moment (field-independent basis, Debye):
    X=             -3.6721    Y=             -3.7311    Z=             -0.0000  Tot=              5.2350
 Quadrupole moment (field-independent basis, Debye-Ang):
   XX=            -10.4743   YY=             -6.9950   ZZ=            -14.9898
   XY=             -4.0699   XZ=             -0.0000   YZ=              0.0000

 526\MP4DQ=-33.8921962\MP4SDQ=-33.8942221\CCSD=-33.8952759\CCSD(T)=-33.
 Normal termination of Gaussian 16 at Sun Dec 10 06:55:53 2023.
