 Gaussian 16, Revision A.03,
 Gaussian 16:  ES64L-G16RevA.03 25-Dec-2016

 ------------------
 #p CCSD(T)/CEP-31G
 ------------------

 ------------
 H2O_H2O_1194
 ------------
 Symbolic Z-matrix:
 Charge =  0 Multiplicity = 1

                         Standard orientation:
 ---------------------------------------------------------------------
 Center     Atomic      Atomic             Coordinates (Angstroms)
 Number     Number       Type             X           Y           Z
 ---------------------------------------------------------------------
      1          8           0        0.030298    1.578784    0.000000
      2          1           0        0.026725    0.596190    0.000000
      3          1           0       -0.898030    1.900828    0.000000
      4          8           0        0.030298   -1.403252   -0.000000
      5          1           0        0.959598   -1.722479   -0.000000
      6          1           0       -0.573057   -2.178797   -0.000000
 ---------------------------------------------------------------------

 SCF Done:  E(RHF) =  -33.6629159013     A.U. after   11 cycles
 E2 =    -0.2288800196D+00 EUMP2 =    -0.33891795920891D+02
 CCSD(T)
 CCSD(T)= -0.33908413142D+02

 The electronic state is 1-A'.
 Alpha  occ. eigenvalues --   -1.38486  -1.31698  -0.74152  -0.68053  -0.59071
 Alpha  occ. eigenvalues --   -0.53210  -0.51385  -0.46378
 Alpha virt. eigenvalues --    0.17768   0.26062   0.28237   0.42612   0.76142
 Alpha virt. eigenvalues --    0.78592   0.85554   0.86298   0.92022   1.03108
 Alpha virt. eigenvalues --    1.15454   1.18286   1.22428   1.35381   2.50942

 Mulliken charges:
               1
     1  O   -0.786212
     2  H    0.427876
     3  H    0.355733
     4  O   -0.799812
     5  H    0.396908
     6  H    0.405508
 Sum of Mulliken charges =   0.00000

 Dipole moment (field-independent basis, Debye):
    X=             -1.3495    Y=             -4.5401    Z=             -0.0000  Tot=              4.7364
 Quadrupole moment (field-independent basis, Debye-Ang):
   XX=             -9.4314   YY=             -8.5291   ZZ=            -15.0149
   XY=             -4.8880   XZ=             -0.0000   YZ=              0.0000

 962\MP4DQ=-33.9025973\MP4SDQ=-33.9047039\CCSD=-33.9056761\CCSD(T)=-33.
 Normal termination of Gaussian 16 at Sun Dec 10 06:41:01 2023.
