 Gaussian 16, Revision A.03,
 Gaussian 16:  ES64L-G16RevA.03 25-Dec-2016

 ------------------
 #p CCSD(T)/CEP-31G
 ------------------

 ------------
 H2O_H2O_1845
 ------------
 Symbolic Z-matrix:
 Charge =  0 Multiplicity = 1

                         Standard orientation:
 ---------------------------------------------------------------------
 Center     Atomic      Atomic             Coordinates (Angstroms)
 Number     Number       Type             X           Y           Z
 ---------------------------------------------------------------------
      1          8           0        0.026721    1.836778   -0.000000
      2          1           0        0.023506    0.854182   -0.000000
      3          1           0       -0.901724    2.158484   -0.000000
      4          8           0        0.026721   -1.663592    0.000000
      5          1           0        0.975004   -1.921012    0.000000
      6          1           0       -0.524323   -2.477138    0.000000
 ---------------------------------------------------------------------

 SCF Done:  E(RHF) =  -33.6595348284     A.U. after   11 cycles
 E2 =    -0.2286089489D+00 EUMP2 =    -0.33888143777311D+02
 CCSD(T)
 CCSD(T)= -0.33905001923D+02

 The electronic state is 1-A'.
 Alpha  occ. eigenvalues --   -1.37507  -1.32992  -0.73174  -0.68699  -0.57814
 Alpha  occ. eigenvalues --   -0.52851  -0.52180  -0.47668
 Alpha virt. eigenvalues --    0.18006   0.24358   0.28940   0.36089   0.77981
 Alpha virt. eigenvalues --    0.81953   0.83217   0.86341   0.88483   0.94057
 Alpha virt. eigenvalues --    1.15622   1.19654   1.20915   1.34478   2.51428

 Mulliken charges:
               1
     1  O   -0.774194
     2  H    0.408357
     3  H    0.363363
     4  O   -0.769753
     5  H    0.385056
     6  H    0.387171
 Sum of Mulliken charges =   0.00000

 Dipole moment (field-independent basis, Debye):
    X=             -1.2009    Y=             -4.2928    Z=              0.0000  Tot=              4.4576
 Quadrupole moment (field-independent basis, Debye-Ang):
   XX=             -9.5076   YY=             -7.8474   ZZ=            -15.0040
   XY=             -5.8572   XZ=              0.0000   YZ=             -0.0000

 5284\MP4DQ=-33.8992708\MP4SDQ=-33.9013541\CCSD=-33.9023728\CCSD(T)=-33
 Normal termination of Gaussian 16 at Sun Dec 10 06:53:43 2023.
