 Gaussian 16, Revision A.03,
 Gaussian 16:  ES64L-G16RevA.03 25-Dec-2016

 ------------------
 #p CCSD(T)/CEP-31G
 ------------------

 -----------
 H2O_H2O_513
 -----------
 Symbolic Z-matrix:
 Charge =  0 Multiplicity = 1

                         Standard orientation:
 ---------------------------------------------------------------------
 Center     Atomic      Atomic             Coordinates (Angstroms)
 Number     Number       Type             X           Y           Z
 ---------------------------------------------------------------------
      1          8           0        0.052417    1.311833   -0.000000
      2          1           0        0.049594    0.329235   -0.000000
      3          1           0       -0.876156    1.633169   -0.000000
      4          8           0        0.052417   -1.132080    0.000000
      5          1           0        0.789313   -1.782074    0.000000
      6          1           0       -0.801427   -1.618347    0.000000
 ---------------------------------------------------------------------

 SCF Done:  E(RHF) =  -33.6532209268     A.U. after   11 cycles
 E2 =    -0.2289398846D+00 EUMP2 =    -0.33882160811352D+02
 CCSD(T)
 CCSD(T)= -0.33897763299D+02

 The electronic state is 1-A'.
 Alpha  occ. eigenvalues --   -1.41168  -1.29261  -0.76330  -0.71676  -0.58143
 Alpha  occ. eigenvalues --   -0.55716  -0.48022  -0.43695
 Alpha virt. eigenvalues --    0.16986   0.26701   0.28320   0.54863   0.73952
 Alpha virt. eigenvalues --    0.74229   0.85411   0.89297   0.95860   1.02181
 Alpha virt. eigenvalues --    1.14080   1.17822   1.24427   1.36448   2.70123

 Mulliken charges:
               1
     1  O   -0.771548
     2  H    0.420656
     3  H    0.328632
     4  O   -0.833993
     5  H    0.440033
     6  H    0.416220
 Sum of Mulliken charges =  -0.00000

 Dipole moment (field-independent basis, Debye):
    X=             -2.2088    Y=             -5.0971    Z=              0.0000  Tot=              5.5551
 Quadrupole moment (field-independent basis, Debye-Ang):
   XX=             -9.4376   YY=             -9.7345   ZZ=            -15.0072
   XY=             -3.7179   XZ=              0.0000   YZ=             -0.0000

 77\MP4DQ=-33.8917689\MP4SDQ=-33.8939669\CCSD=-33.8947511\CCSD(T)=-33.8
 Normal termination of Gaussian 16 at Sun Dec 10 06:28:10 2023.
