 Gaussian 16, Revision A.03,
 Gaussian 16:  ES64L-G16RevA.03 25-Dec-2016

 ------------------
 #p CCSD(T)/CEP-31G
 ------------------

 ------------
 H2O_H2O_1636
 ------------
 Symbolic Z-matrix:
 Charge =  0 Multiplicity = 1

                         Standard orientation:
 ---------------------------------------------------------------------
 Center     Atomic      Atomic             Coordinates (Angstroms)
 Number     Number       Type             X           Y           Z
 ---------------------------------------------------------------------
      1          8           0        0.059681    1.759281   -0.000000
      2          1           0        0.057988    0.776681   -0.000000
      3          1           0       -0.869262    2.079547   -0.000000
      4          8           0        0.059681   -1.581889    0.000000
      5          1           0        0.706282   -2.321763    0.000000
      6          1           0       -0.849902   -1.953595    0.000000
 ---------------------------------------------------------------------

 SCF Done:  E(RHF) =  -33.6595380466     A.U. after   11 cycles
 E2 =    -0.2288054725D+00 EUMP2 =    -0.33888343519091D+02
 CCSD(T)
 CCSD(T)= -0.33905182070D+02

 The electronic state is 1-A'.
 Alpha  occ. eigenvalues --   -1.37797  -1.32684  -0.73461  -0.68421  -0.58150
 Alpha  occ. eigenvalues --   -0.52469  -0.52462  -0.47328
 Alpha virt. eigenvalues --    0.17865   0.24728   0.28648   0.37665   0.77493
 Alpha virt. eigenvalues --    0.81370   0.83808   0.85723   0.90629   0.96024
 Alpha virt. eigenvalues --    1.15247   1.19752   1.20774   1.34450   2.50083

 Mulliken charges:
               1
     1  O   -0.773874
     2  H    0.416845
     3  H    0.355180
     4  O   -0.773430
     5  H    0.395090
     6  H    0.380189
 Sum of Mulliken charges =   0.00000

 Dipole moment (field-independent basis, Debye):
    X=             -2.6689    Y=             -4.4489    Z=              0.0000  Tot=              5.1881
 Quadrupole moment (field-independent basis, Debye-Ang):
   XX=             -9.6656   YY=             -7.9544   ZZ=            -15.0045
   XY=             -4.3536   XZ=              0.0000   YZ=             -0.0000

 26\MP4DQ=-33.8994189\MP4SDQ=-33.9015111\CCSD=-33.9025231\CCSD(T)=-33.9
 Normal termination of Gaussian 16 at Sun Dec 10 06:49:47 2023.
