 Gaussian 16, Revision A.03,
 Gaussian 16:  ES64L-G16RevA.03 25-Dec-2016

 ------------------
 #p CCSD(T)/CEP-31G
 ------------------

 ------------
 H2O_H2O_1546
 ------------
 Symbolic Z-matrix:
 Charge =  0 Multiplicity = 1

                         Standard orientation:
 ---------------------------------------------------------------------
 Center     Atomic      Atomic             Coordinates (Angstroms)
 Number     Number       Type             X           Y           Z
 ---------------------------------------------------------------------
      1          8           0       -0.023297    1.715570    0.000000
      2          1           0       -0.019667    0.732975    0.000000
      3          1           0        0.905012    2.037668    0.000000
      4          8           0       -0.023297   -1.545231    0.000000
      5          1           0       -0.986303   -1.740486    0.000000
      6          1           0        0.473717   -2.392866    0.000000
 ---------------------------------------------------------------------

 SCF Done:  E(RHF) =  -33.6609560489     A.U. after   11 cycles
 E2 =    -0.2287091572D+00 EUMP2 =    -0.33889665206025D+02
 CCSD(T)
 CCSD(T)= -0.33906479898D+02

 The electronic state is 1-A'.
 Alpha  occ. eigenvalues --   -1.37866  -1.32595  -0.73565  -0.68418  -0.58330
 Alpha  occ. eigenvalues --   -0.52554  -0.52416  -0.47282
 Alpha virt. eigenvalues --    0.17861   0.25076   0.28665   0.38390   0.77238
 Alpha virt. eigenvalues --    0.80663   0.84030   0.86448   0.89345   1.00390
 Alpha virt. eigenvalues --    1.15466   1.18788   1.21507   1.35865   2.50590

 Mulliken charges:
               1
     1  O   -0.780106
     2  H    0.415126
     3  H    0.362217
     4  O   -0.781016
     5  H    0.388173
     6  H    0.395606
 Sum of Mulliken charges =   0.00000

 Dipole moment (field-independent basis, Debye):
    X=              1.0442    Y=             -4.2947    Z=              0.0000  Tot=              4.4198
 Quadrupole moment (field-independent basis, Debye-Ang):
   XX=             -9.5693   YY=             -8.2172   ZZ=            -15.0076
   XY=              5.6191   XZ=              0.0000   YZ=              0.0000

 782\MP4DQ=-33.9007075\MP4SDQ=-33.9028066\CCSD=-33.9038139\CCSD(T)=-33.
 Normal termination of Gaussian 16 at Sun Dec 10 06:48:00 2023.
