 Gaussian 16, Revision A.03,
 Gaussian 16:  ES64L-G16RevA.03 25-Dec-2016

 ------------------
 #p CCSD(T)/CEP-31G
 ------------------

 ------------
 H2O_H2O_2078
 ------------
 Symbolic Z-matrix:
 Charge =  0 Multiplicity = 1

                         Standard orientation:
 ---------------------------------------------------------------------
 Center     Atomic      Atomic             Coordinates (Angstroms)
 Number     Number       Type             X           Y           Z
 ---------------------------------------------------------------------
      1          8           0        0.085606   -1.923667    0.000000
      2          1           0        0.085268   -0.941066    0.000000
      3          1           0       -0.843778   -2.242653    0.000000
      4          8           0        0.085606    1.774081    0.000000
      5          1           0        0.276971    2.737868    0.000000
      6          1           0       -0.888152    1.642538    0.000000
 ---------------------------------------------------------------------

 SCF Done:  E(RHF) =  -33.6543804491     A.U. after   11 cycles
 E2 =    -0.2286956683D+00 EUMP2 =    -0.33883076117373D+02
 CCSD(T)
 CCSD(T)= -0.33900076611D+02

 The electronic state is 1-A'.
 Alpha  occ. eigenvalues --   -1.37396  -1.34106  -0.73129  -0.69663  -0.57323
 Alpha  occ. eigenvalues --   -0.53839  -0.51985  -0.48687
 Alpha virt. eigenvalues --    0.17138   0.23428   0.28794   0.33825   0.78349
 Alpha virt. eigenvalues --    0.82123   0.82687   0.84784   0.88264   0.91943
 Alpha virt. eigenvalues --    1.15379   1.18950   1.20607   1.35375   2.53873

 Mulliken charges:
               1
     1  O   -0.753657
     2  H    0.392846
     3  H    0.358737
     4  O   -0.752966
     5  H    0.386849
     6  H    0.368192
 Sum of Mulliken charges =   0.00000

 Dipole moment (field-independent basis, Debye):
    X=             -3.8818    Y=              3.6781    Z=              0.0000  Tot=              5.3476
 Quadrupole moment (field-independent basis, Debye-Ang):
   XX=            -10.8280   YY=             -8.6913   ZZ=            -14.9917
   XY=              2.9911   XZ=              0.0000   YZ=              0.0000

 6036\MP4DQ=-33.8943386\MP4SDQ=-33.8964305\CCSD=-33.8974581\CCSD(T)=-33
 Normal termination of Gaussian 16 at Sun Dec 10 06:58:08 2023.
