 Gaussian 16, Revision A.03,
 Gaussian 16:  ES64L-G16RevA.03 25-Dec-2016

 ------------------
 #p CCSD(T)/CEP-31G
 ------------------

 ------------
 H2O_H2O_2511
 ------------
 Symbolic Z-matrix:
 Charge =  0 Multiplicity = 1

                         Standard orientation:
 ---------------------------------------------------------------------
 Center     Atomic      Atomic             Coordinates (Angstroms)
 Number     Number       Type             X           Y           Z
 ---------------------------------------------------------------------
      1          8           0        0.059654    2.108315    0.000000
      2          1           0        0.058254    1.125715    0.000000
      3          1           0       -0.869384    2.428306   -0.000000
      4          8           0        0.059654   -1.930889    0.000000
      5          1           0        0.706475   -2.670570    0.000000
      6          1           0       -0.849818   -2.302865   -0.000000
 ---------------------------------------------------------------------

 SCF Done:  E(RHF) =  -33.6560437113     A.U. after   11 cycles
 E2 =    -0.2284399635D+00 EUMP2 =    -0.33884483674782D+02
 CCSD(T)
 CCSD(T)= -0.33901390876D+02

 The electronic state is 1-A'.
 Alpha  occ. eigenvalues --   -1.37007  -1.33712  -0.72662  -0.69320  -0.57012
 Alpha  occ. eigenvalues --   -0.53530  -0.51637  -0.48335
 Alpha virt. eigenvalues --    0.18354   0.22917   0.29223   0.33173   0.78898
 Alpha virt. eigenvalues --    0.82185   0.83880   0.84964   0.85629   0.88406
 Alpha virt. eigenvalues --    1.16036   1.19718   1.20492   1.29090   2.54454

 Mulliken charges:
               1
     1  O   -0.758607
     2  H    0.394668
     3  H    0.362277
     4  O   -0.754820
     5  H    0.382017
     6  H    0.374465
 Sum of Mulliken charges =  -0.00000

 Dipole moment (field-independent basis, Debye):
    X=             -2.7095    Y=             -4.2957    Z=             -0.0000  Tot=              5.0788
 Quadrupole moment (field-independent basis, Debye-Ang):
   XX=             -9.6723   YY=             -7.0698   ZZ=            -14.9968
   XY=             -4.8937   XZ=              0.0000   YZ=             -0.0000

 686\MP4DQ=-33.8957203\MP4SDQ=-33.8977762\CCSD=-33.898808\CCSD(T)=-33.9
 Normal termination of Gaussian 16 at Sun Dec 10 06:18:12 2023.
