 Gaussian 16, Revision A.03,
 Gaussian 16:  ES64L-G16RevA.03 25-Dec-2016

 ------------------
 #p CCSD(T)/CEP-31G
 ------------------

 -----------
 H2O_H2O_136
 -----------
 Symbolic Z-matrix:
 Charge =  0 Multiplicity = 1

                         Standard orientation:
 ---------------------------------------------------------------------
 Center     Atomic      Atomic             Coordinates (Angstroms)
 Number     Number       Type             X           Y           Z
 ---------------------------------------------------------------------
      1          8           0        0.059766    1.160909   -0.000000
      2          1           0        0.057129    0.178311   -0.000000
      3          1           0       -0.868868    1.482068   -0.000000
      4          8           0        0.059766   -0.983632    0.000000
      5          1           0        0.705656   -1.724127    0.000000
      6          1           0       -0.850174   -1.354463    0.000000
 ---------------------------------------------------------------------

 SCF Done:  E(RHF) =  -33.6106032315     A.U. after   11 cycles
 E2 =    -0.2280415752D+00 EUMP2 =    -0.33838644806655D+02
 CCSD(T)
 CCSD(T)= -0.33853357241D+02

 The electronic state is 1-A'.
 Alpha  occ. eigenvalues --   -1.45103  -1.27281  -0.80293  -0.76766  -0.58523
 Alpha  occ. eigenvalues --   -0.55046  -0.44582  -0.41280
 Alpha virt. eigenvalues --    0.16198   0.24965   0.30073   0.61444   0.73261
 Alpha virt. eigenvalues --    0.73643   0.87029   0.91492   0.92881   1.07960
 Alpha virt. eigenvalues --    1.11547   1.17628   1.28155   1.34704   2.95522

 Mulliken charges:
               1
     1  O   -0.741031
     2  H    0.331381
     3  H    0.303487
     4  O   -0.794899
     5  H    0.473450
     6  H    0.427612
 Sum of Mulliken charges =  -0.00000

 Dipole moment (field-independent basis, Debye):
    X=             -2.4049    Y=             -5.5853    Z=              0.0000  Tot=              6.0811
 Quadrupole moment (field-independent basis, Debye-Ang):
   XX=             -9.5702   YY=            -10.5797   ZZ=            -14.9391
   XY=             -3.2880   XZ=              0.0000   YZ=             -0.0000

 471\MP4DQ=-33.8471438\MP4SDQ=-33.8495105\CCSD=-33.8501265\CCSD(T)=-33.
 Normal termination of Gaussian 16 at Sun Dec 10 06:20:43 2023.
