 Gaussian 16, Revision A.03,
 Gaussian 16:  ES64L-G16RevA.03 25-Dec-2016

 ------------------
 #p CCSD(T)/CEP-31G
 ------------------

 ------------
 H2O_H2O_1510
 ------------
 Symbolic Z-matrix:
 Charge =  0 Multiplicity = 1

                         Standard orientation:
 ---------------------------------------------------------------------
 Center     Atomic      Atomic             Coordinates (Angstroms)
 Number     Number       Type             X           Y           Z
 ---------------------------------------------------------------------
      1          8           0        0.063276    1.708367   -0.000000
      2          1           0        0.061719    0.725766   -0.000000
      3          1           0       -0.865712    2.028505   -0.000000
      4          8           0        0.063276   -1.532916    0.000000
      5          1           0        0.660211   -2.313412    0.000000
      6          1           0       -0.868628   -1.844464    0.000000
 ---------------------------------------------------------------------

 SCF Done:  E(RHF) =  -33.6597433799     A.U. after   11 cycles
 E2 =    -0.2288790625D+00 EUMP2 =    -0.33888622442326D+02
 CCSD(T)
 CCSD(T)= -0.33905446116D+02

 The electronic state is 1-A'.
 Alpha  occ. eigenvalues --   -1.37981  -1.32551  -0.73661  -0.68351  -0.58359
 Alpha  occ. eigenvalues --   -0.52653  -0.52294  -0.47187
 Alpha virt. eigenvalues --    0.17739   0.24987   0.28489   0.38703   0.77140
 Alpha virt. eigenvalues --    0.80742   0.84165   0.85612   0.91176   0.98902
 Alpha virt. eigenvalues --    1.15067   1.19366   1.21011   1.35105   2.49869

 Mulliken charges:
               1
     1  O   -0.774565
     2  H    0.419710
     3  H    0.353143
     4  O   -0.778077
     5  H    0.399525
     6  H    0.380264
 Sum of Mulliken charges =  -0.00000

 Dipole moment (field-independent basis, Debye):
    X=             -2.8202    Y=             -4.4365    Z=              0.0000  Tot=              5.2570
 Quadrupole moment (field-independent basis, Debye-Ang):
   XX=             -9.7724   YY=             -8.1442   ZZ=            -15.0053
   XY=             -4.1364   XZ=              0.0000   YZ=             -0.0000

 14\MP4DQ=-33.8996596\MP4SDQ=-33.9017619\CCSD=-33.9027677\CCSD(T)=-33.9
 Normal termination of Gaussian 16 at Sun Dec 10 06:47:16 2023.
