 Gaussian 16, Revision A.03,
 Gaussian 16:  ES64L-G16RevA.03 25-Dec-2016

 ------------------
 #p CCSD(T)/CEP-31G
 ------------------

 ------------
 H2O_H2O_2250
 ------------
 Symbolic Z-matrix:
 Charge =  0 Multiplicity = 1

                         Standard orientation:
 ---------------------------------------------------------------------
 Center     Atomic      Atomic             Coordinates (Angstroms)
 Number     Number       Type             X           Y           Z
 ---------------------------------------------------------------------
      1          8           0        0.092949   -1.984346    0.000000
      2          1           0        0.092949   -1.001744    0.000000
      3          1           0       -0.836544   -2.303012    0.000000
      4          8           0        0.092949    1.851559    0.000000
      5          1           0        0.092949    2.834160    0.000000
      6          1           0       -0.836544    1.532891    0.000000
 ---------------------------------------------------------------------

 SCF Done:  E(RHF) =  -33.6526995736     A.U. after   11 cycles
 E2 =    -0.2286872679D+00 EUMP2 =    -0.33881386841490D+02
 CCSD(T)
 CCSD(T)= -0.33898416891D+02

 The electronic state is 1-A'.
 Alpha  occ. eigenvalues --   -1.37277  -1.34664  -0.73022  -0.70205  -0.57095
 Alpha  occ. eigenvalues --   -0.54371  -0.51843  -0.49223
 Alpha virt. eigenvalues --    0.16622   0.23097   0.28842   0.32957   0.78576
 Alpha virt. eigenvalues --    0.81532   0.82745   0.84329   0.87677   0.89802
 Alpha virt. eigenvalues --    1.15384   1.18548   1.20595   1.33774   2.55585

 Mulliken charges:
               1
     1  O   -0.746693
     2  H    0.384544
     3  H    0.360721
     4  O   -0.746447
     5  H    0.383760
     6  H    0.364115
 Sum of Mulliken charges =   0.00000

 Dipole moment (field-independent basis, Debye):
    X=             -4.2272    Y=              3.2391    Z=              0.0000  Tot=              5.3255
 Quadrupole moment (field-independent basis, Debye-Ang):
   XX=            -11.3095   YY=             -9.5640   ZZ=            -14.9875
   XY=              2.2845   XZ=              0.0000   YZ=              0.0000

 9606\MP4DQ=-33.8926927\MP4SDQ=-33.8947748\CCSD=-33.895806\CCSD(T)=-33.
 Normal termination of Gaussian 16 at Sun Dec 10 07:02:22 2023.
