 Gaussian 16, Revision A.03,
 Gaussian 16:  ES64L-G16RevA.03 25-Dec-2016

 ------------------
 #p CCSD(T)/CEP-31G
 ------------------

 ------------
 H2O_H2O_4223
 ------------
 Symbolic Z-matrix:
 Charge =  0 Multiplicity = 1

                         Standard orientation:
 ---------------------------------------------------------------------
 Center     Atomic      Atomic             Coordinates (Angstroms)
 Number     Number       Type             X           Y           Z
 ---------------------------------------------------------------------
      1          8           0       -0.016588    2.778795    0.000000
      2          1           0       -0.014187    1.796196    0.000000
      3          1           0        0.912123    3.099732    0.000000
      4          8           0       -0.016588   -2.615389    0.000000
      5          1           0       -0.996926   -2.682051    0.000000
      6          1           0        0.364403   -3.521123    0.000000
 ---------------------------------------------------------------------

 SCF Done:  E(RHF) =  -33.6536135795     A.U. after   11 cycles
 E2 =    -0.2282816656D+00 EUMP2 =    -0.33881895245103D+02
 CCSD(T)
 CCSD(T)= -0.33898845648D+02

 The electronic state is 1-A'.
 Alpha  occ. eigenvalues --   -1.36305  -1.34735  -0.71947  -0.70375  -0.56142
 Alpha  occ. eigenvalues --   -0.54534  -0.50903  -0.49339
 Alpha virt. eigenvalues --    0.19512   0.21206   0.29812   0.31468   0.79650
 Alpha virt. eigenvalues --    0.81175   0.82468   0.84156   0.85652   0.87262
 Alpha virt. eigenvalues --    1.16673   1.18264   1.21103   1.22818   2.56608

 Mulliken charges:
               1
     1  O   -0.748235
     2  H    0.378310
     3  H    0.369899
     4  O   -0.747781
     5  H    0.373659
     6  H    0.374148
 Sum of Mulliken charges =  -0.00000

 Dipole moment (field-independent basis, Debye):
    X=              0.7609    Y=             -3.8362    Z=              0.0000  Tot=              3.9110
 Quadrupole moment (field-independent basis, Debye-Ang):
   XX=             -9.7730   YY=             -6.7691   ZZ=            -14.9922
   XY=              9.7434   XZ=              0.0000   YZ=              0.0000

 4648\MP4DQ=-33.8932134\MP4SDQ=-33.8952369\CCSD=-33.8962884\CCSD(T)=-33
 Normal termination of Gaussian 16 at Sun Dec 10 06:49:01 2023.
