 Gaussian 16, Revision A.03,
 Gaussian 16:  ES64L-G16RevA.03 25-Dec-2016

 ------------------
 #p CCSD(T)/CEP-31G
 ------------------

 ------------
 H2O_H2O_4023
 ------------
 Symbolic Z-matrix:
 Charge =  0 Multiplicity = 1

                         Standard orientation:
 ---------------------------------------------------------------------
 Center     Atomic      Atomic             Coordinates (Angstroms)
 Number     Number       Type             X           Y           Z
 ---------------------------------------------------------------------
      1          8           0       -0.016594    2.699019    0.000000
      2          1           0       -0.014120    1.716420    0.000000
      3          1           0        0.912093    3.020025    0.000000
      4          8           0       -0.016594   -2.535615    0.000000
      5          1           0       -0.996927   -2.602350    0.000000
      6          1           0        0.364464   -3.441321    0.000000
 ---------------------------------------------------------------------

 SCF Done:  E(RHF) =  -33.6538000575     A.U. after   11 cycles
 E2 =    -0.2282767850D+00 EUMP2 =    -0.33882076842553D+02
 CCSD(T)
 CCSD(T)= -0.33899022173D+02

 The electronic state is 1-A'.
 Alpha  occ. eigenvalues --   -1.36351  -1.34675  -0.71994  -0.70316  -0.56198
 Alpha  occ. eigenvalues --   -0.54480  -0.50951  -0.49282
 Alpha virt. eigenvalues --    0.19434   0.21307   0.29771   0.31552   0.79603
 Alpha virt. eigenvalues --    0.81228   0.82392   0.84206   0.85594   0.87328
 Alpha virt. eigenvalues --    1.16632   1.18348   1.21053   1.22978   2.56557

 Mulliken charges:
               1
     1  O   -0.748965
     2  H    0.379107
     3  H    0.369809
     4  O   -0.748445
     5  H    0.373966
     6  H    0.374529
 Sum of Mulliken charges =   0.00000

 Dipole moment (field-independent basis, Debye):
    X=              0.7606    Y=             -3.8422    Z=              0.0000  Tot=              3.9168
 Quadrupole moment (field-independent basis, Debye-Ang):
   XX=             -9.7723   YY=             -6.8839   ZZ=            -14.9925
   XY=              9.4611   XZ=              0.0000   YZ=              0.0000

 11\MP4DQ=-33.8933904\MP4SDQ=-33.8954141\CCSD=-33.8964648\CCSD(T)=-33.8
 Normal termination of Gaussian 16 at Sun Dec 10 06:45:24 2023.
