 Gaussian 16, Revision A.03,
 Gaussian 16:  ES64L-G16RevA.03 25-Dec-2016

 ------------------
 #p CCSD(T)/CEP-31G
 ------------------

 -----------
 H2O_H2O_376
 -----------
 Symbolic Z-matrix:
 Charge =  0 Multiplicity = 1

                         Standard orientation:
 ---------------------------------------------------------------------
 Center     Atomic      Atomic             Coordinates (Angstroms)
 Number     Number       Type             X           Y           Z
 ---------------------------------------------------------------------
      1          8           0        0.090690   -1.239660    0.000000
      2          1           0        0.090526   -0.257058    0.000000
      3          1           0       -0.838749   -1.558482    0.000000
      4          8           0        0.090690    1.100966    0.000000
      5          1           0        0.154791    2.081475    0.000000
      6          1           0       -0.857612    0.843615    0.000000
 ---------------------------------------------------------------------

 SCF Done:  E(RHF) =  -33.6216840325     A.U. after   11 cycles
 E2 =    -0.2288979307D+00 EUMP2 =    -0.33850581963198D+02
 CCSD(T)
 CCSD(T)= -0.33866721073D+02

 The electronic state is 1-A'.
 Alpha  occ. eigenvalues --   -1.43054  -1.31138  -0.81023  -0.69209  -0.58678
 Alpha  occ. eigenvalues --   -0.56465  -0.49870  -0.45376
 Alpha virt. eigenvalues --    0.16257   0.24183   0.28666   0.54722   0.73239
 Alpha virt. eigenvalues --    0.76931   0.86750   0.88621   0.94984   1.10913
 Alpha virt. eigenvalues --    1.12936   1.24213   1.27977   1.45624   2.74513

 Mulliken charges:
               1
     1  O   -0.688550
     2  H    0.292824
     3  H    0.322373
     4  O   -0.768605
     5  H    0.467905
     6  H    0.374053
 Sum of Mulliken charges =   0.00000

 Dipole moment (field-independent basis, Debye):
    X=             -3.8628    Y=              4.2611    Z=              0.0000  Tot=              5.7513
 Quadrupole moment (field-independent basis, Debye-Ang):
   XX=            -11.2091   YY=            -10.0362   ZZ=            -14.9505
   XY=              2.3202   XZ=              0.0000   YZ=              0.0000

 3\MP4DQ=-33.860429\MP4SDQ=-33.8628767\CCSD=-33.8636497\CCSD(T)=-33.866
 Normal termination of Gaussian 16 at Sun Dec 10 06:25:28 2023.
