 Gaussian 16, Revision A.03,
 Gaussian 16:  ES64L-G16RevA.03 25-Dec-2016

 ------------------
 #p CCSD(T)/CEP-31G
 ------------------

 ------------
 H2O_H2O_3091
 ------------
 Symbolic Z-matrix:
 Charge =  0 Multiplicity = 1

                         Standard orientation:
 ---------------------------------------------------------------------
 Center     Atomic      Atomic             Coordinates (Angstroms)
 Number     Number       Type             X           Y           Z
 ---------------------------------------------------------------------
      1          8           0        0.041142    2.339028    0.000000
      2          1           0        0.039186    1.356428    0.000000
      3          1           0       -0.887715    2.659543    0.000000
      4          8           0        0.041142   -2.159104   -0.000000
      5          1           0        0.891121   -2.652098   -0.000000
      6          1           0       -0.700862   -2.803260   -0.000000
 ---------------------------------------------------------------------

 SCF Done:  E(RHF) =  -33.6552200529     A.U. after   11 cycles
 E2 =    -0.2283133049D+00 EUMP2 =    -0.33883533357770D+02
 CCSD(T)
 CCSD(T)= -0.33900441059D+02

 The electronic state is 1-A'.
 Alpha  occ. eigenvalues --   -1.36673  -1.34049  -0.72318  -0.69674  -0.56609
 Alpha  occ. eigenvalues --   -0.53877  -0.51294  -0.48671
 Alpha virt. eigenvalues --    0.18927   0.22209   0.29532   0.32336   0.79274
 Alpha virt. eigenvalues --    0.81810   0.82464   0.84691   0.85388   0.87958
 Alpha virt. eigenvalues --    1.16370   1.19225   1.20791   1.25219   2.56099

 Mulliken charges:
               1
     1  O   -0.754593
     2  H    0.387755
     3  H    0.366130
     4  O   -0.752305
     5  H    0.377984
     6  H    0.375029
 Sum of Mulliken charges =  -0.00000

 Dipole moment (field-independent basis, Debye):
    X=             -1.8759    Y=             -4.2906    Z=             -0.0000  Tot=              4.6828
 Quadrupole moment (field-independent basis, Debye-Ang):
   XX=             -9.4086   YY=             -6.4090   ZZ=            -14.9955
   XY=             -6.4520   XZ=             -0.0000   YZ=              0.0000

 486\MP4DQ=-33.8948029\MP4SDQ=-33.8968372\CCSD=-33.8978774\CCSD(T)=-33.
 Normal termination of Gaussian 16 at Sun Dec 10 06:28:41 2023.
