 Gaussian 16, Revision A.03,
 Gaussian 16:  ES64L-G16RevA.03 25-Dec-2016

 ------------------
 #p CCSD(T)/CEP-31G
 ------------------

 ------------
 H2O_H2O_1386
 ------------
 Symbolic Z-matrix:
 Charge =  0 Multiplicity = 1

                         Standard orientation:
 ---------------------------------------------------------------------
 Center     Atomic      Atomic             Coordinates (Angstroms)
 Number     Number       Type             X           Y           Z
 ---------------------------------------------------------------------
      1          8           0        0.059691    1.659555    0.000000
      2          1           0        0.057891    0.676955    0.000000
      3          1           0       -0.869217    1.979923    0.000000
      4          8           0        0.059691   -1.482177   -0.000000
      5          1           0        0.706210   -2.222121   -0.000000
      6          1           0       -0.849933   -1.853782   -0.000000
 ---------------------------------------------------------------------

 SCF Done:  E(RHF) =  -33.6607677647     A.U. after   11 cycles
 E2 =    -0.2289474083D+00 EUMP2 =    -0.33889715172952D+02
 CCSD(T)
 CCSD(T)= -0.33906471418D+02

 The electronic state is 1-A'.
 Alpha  occ. eigenvalues --   -1.38168  -1.32233  -0.73830  -0.68186  -0.58624
 Alpha  occ. eigenvalues --   -0.52859  -0.51951  -0.46874
 Alpha virt. eigenvalues --    0.17731   0.25356   0.28381   0.40121   0.76773
 Alpha virt. eigenvalues --    0.79966   0.84680   0.85647   0.92091   0.99980
 Alpha virt. eigenvalues --    1.14974   1.19357   1.21213   1.34789   2.49772

 Mulliken charges:
               1
     1  O   -0.778101
     2  H    0.425062
     3  H    0.351727
     4  O   -0.784906
     5  H    0.402630
     6  H    0.383587
 Sum of Mulliken charges =  -0.00000

 Dipole moment (field-independent basis, Debye):
    X=             -2.6477    Y=             -4.5189    Z=             -0.0000  Tot=              5.2374
 Quadrupole moment (field-independent basis, Debye-Ang):
   XX=             -9.6600   YY=             -8.2565   ZZ=            -15.0083
   XY=             -4.2003   XZ=              0.0000   YZ=              0.0000

 9621\MP4DQ=-33.9006717\MP4SDQ=-33.9027755\CCSD=-33.9037699\CCSD(T)=-33
 Normal termination of Gaussian 16 at Sun Dec 10 06:44:49 2023.
