 Gaussian 16, Revision A.03,
 Gaussian 16:  ES64L-G16RevA.03 25-Dec-2016

 ------------------
 #p CCSD(T)/CEP-31G
 ------------------

 -----------
 H2O_H2O_423
 -----------
 Symbolic Z-matrix:
 Charge =  0 Multiplicity = 1

                         Standard orientation:
 ---------------------------------------------------------------------
 Center     Atomic      Atomic             Coordinates (Angstroms)
 Number     Number       Type             X           Y           Z
 ---------------------------------------------------------------------
      1          8           0        0.016844   -1.263019    0.000000
      2          1           0        0.011362   -0.280433    0.000000
      3          1           0       -0.910856   -1.586866    0.000000
      4          8           0        0.016844    1.099718    0.000000
      5          1           0        0.996969    1.169453    0.000000
      6          1           0       -0.366984    2.004252    0.000000
 ---------------------------------------------------------------------

 SCF Done:  E(RHF) =  -33.6442155680     A.U. after   11 cycles
 E2 =    -0.2279070291D+00 EUMP2 =    -0.33872122597040D+02
 CCSD(T)
 CCSD(T)= -0.33887745029D+02

 The electronic state is 1-A'.
 Alpha  occ. eigenvalues --   -1.41938  -1.29216  -0.78589  -0.70455  -0.58607
 Alpha  occ. eigenvalues --   -0.56115  -0.47756  -0.43688
 Alpha virt. eigenvalues --    0.17232   0.26054   0.28717   0.56077   0.73743
 Alpha virt. eigenvalues --    0.75636   0.87808   0.89557   0.93513   1.04510
 Alpha virt. eigenvalues --    1.14993   1.21760   1.28575   1.39280   2.76892

 Mulliken charges:
               1
     1  O   -0.757986
     2  H    0.364555
     3  H    0.344295
     4  O   -0.837641
     5  H    0.418879
     6  H    0.467898
 Sum of Mulliken charges =  -0.00000

 Dipole moment (field-independent basis, Debye):
    X=             -0.7488    Y=              4.8309    Z=              0.0000  Tot=              4.8886
 Quadrupole moment (field-independent basis, Debye-Ang):
   XX=             -9.6797   YY=             -9.7728   ZZ=            -14.9934
   XY=              4.2076   XZ=              0.0000   YZ=              0.0000

 91\MP4DQ=-33.8817206\MP4SDQ=-33.8839582\CCSD=-33.8847519\CCSD(T)=-33.8
 Normal termination of Gaussian 16 at Sun Dec 10 06:26:23 2023.
