 Gaussian 16, Revision A.03,
 Gaussian 16:  ES64L-G16RevA.03 25-Dec-2016

 ------------------
 #p CCSD(T)/CEP-31G
 ------------------

 ------------
 H2O_H2O_4087
 ------------
 Symbolic Z-matrix:
 Charge =  0 Multiplicity = 1

                         Standard orientation:
 ---------------------------------------------------------------------
 Center     Atomic      Atomic             Coordinates (Angstroms)
 Number     Number       Type             X           Y           Z
 ---------------------------------------------------------------------
      1          8           0        0.055971    2.737362   -0.000000
      2          1           0        0.054787    1.754762   -0.000000
      3          1           0       -0.873137    3.057149   -0.000000
      4          8           0        0.055971   -2.558431    0.000000
      5          1           0        0.749938   -3.254073    0.000000
      6          1           0       -0.827131   -2.989287    0.000000
 ---------------------------------------------------------------------

 SCF Done:  E(RHF) =  -33.6534985420     A.U. after   11 cycles
 E2 =    -0.2282994465D+00 EUMP2 =    -0.33881797988471D+02
 CCSD(T)
 CCSD(T)= -0.33898749549D+02

 The electronic state is 1-A'.
 Alpha  occ. eigenvalues --   -1.36351  -1.34550  -0.71993  -0.70175  -0.56186
 Alpha  occ. eigenvalues --   -0.54335  -0.50948  -0.49147
 Alpha virt. eigenvalues --    0.19464   0.21397   0.29759   0.31668   0.79609
 Alpha virt. eigenvalues --    0.81364   0.82415   0.84372   0.85629   0.87504
 Alpha virt. eigenvalues --    1.16624   1.18438   1.21060   1.23028   2.56586

 Mulliken charges:
               1
     1  O   -0.747805
     2  H    0.380559
     3  H    0.367196
     4  O   -0.747216
     5  H    0.375374
     6  H    0.371891
 Sum of Mulliken charges =  -0.00000

 Dipole moment (field-independent basis, Debye):
    X=             -2.5675    Y=             -4.2105    Z=              0.0000  Tot=              4.9316
 Quadrupole moment (field-independent basis, Debye-Ang):
   XX=             -9.5848   YY=             -5.6013   ZZ=            -14.9920
   XY=             -6.1831   XZ=              0.0000   YZ=             -0.0000

 686\MP4DQ=-33.8931165\MP4SDQ=-33.8951408\CCSD=-33.8961918\CCSD(T)=-33.
 Normal termination of Gaussian 16 at Sun Dec 10 06:46:33 2023.
