 Gaussian 16, Revision A.03,
 Gaussian 16:  ES64L-G16RevA.03 25-Dec-2016

 ------------------
 #p CCSD(T)/CEP-31G
 ------------------

 ------------
 H2O_H2O_2693
 ------------
 Symbolic Z-matrix:
 Charge =  0 Multiplicity = 1

                         Standard orientation:
 ---------------------------------------------------------------------
 Center     Atomic      Atomic             Coordinates (Angstroms)
 Number     Number       Type             X           Y           Z
 ---------------------------------------------------------------------
      1          8           0        0.033807    2.178168    0.000000
      2          1           0        0.031404    1.195570    0.000000
      3          1           0       -0.894904    2.499107    0.000000
      4          8           0        0.033807   -2.000658   -0.000000
      5          1           0        0.940691   -2.378903   -0.000000
      6          1           0       -0.618105   -2.735857   -0.000000
 ---------------------------------------------------------------------

 SCF Done:  E(RHF) =  -33.6562742435     A.U. after   11 cycles
 E2 =    -0.2283616271D+00 EUMP2 =    -0.33884635870583D+02
 CCSD(T)
 CCSD(T)= -0.33901528277D+02

 The electronic state is 1-A'.
 Alpha  occ. eigenvalues --   -1.36868  -1.33800  -0.72516  -0.69431  -0.56875
 Alpha  occ. eigenvalues --   -0.53649  -0.51504  -0.48437
 Alpha virt. eigenvalues --    0.18571   0.22719   0.29384   0.32863   0.79049
 Alpha virt. eigenvalues --    0.82052   0.83379   0.84526   0.85738   0.88104
 Alpha virt. eigenvalues --    1.16199   1.19640   1.20625   1.27728   2.55168

 Mulliken charges:
               1
     1  O   -0.759186
     2  H    0.392002
     3  H    0.365825
     4  O   -0.755354
     5  H    0.379395
     6  H    0.377318
 Sum of Mulliken charges =  -0.00000

 Dipole moment (field-independent basis, Debye):
    X=             -1.5352    Y=             -4.2712    Z=             -0.0000  Tot=              4.5387
 Quadrupole moment (field-independent basis, Debye-Ang):
   XX=             -9.4285   YY=             -6.8936   ZZ=            -14.9975
   XY=             -6.4880   XZ=             -0.0000   YZ=              0.0000

 186\MP4DQ=-33.8958743\MP4SDQ=-33.8979211\CCSD=-33.8989546\CCSD(T)=-33.
 Normal termination of Gaussian 16 at Sun Dec 10 06:21:29 2023.
