 Gaussian 16, Revision A.03,
 Gaussian 16:  ES64L-G16RevA.03 25-Dec-2016

 ------------------
 #p CCSD(T)/CEP-31G
 ------------------

 ------------
 H2O_H2O_1761
 ------------
 Symbolic Z-matrix:
 Charge =  0 Multiplicity = 1

                         Standard orientation:
 ---------------------------------------------------------------------
 Center     Atomic      Atomic             Coordinates (Angstroms)
 Number     Number       Type             X           Y           Z
 ---------------------------------------------------------------------
      1          8           0        0.059676    1.809143    0.000000
      2          1           0        0.058033    0.826543    0.000000
      3          1           0       -0.869282    2.129363    0.000000
      4          8           0        0.059676   -1.631746   -0.000000
      5          1           0        0.706314   -2.371587   -0.000000
      6          1           0       -0.849888   -2.003496   -0.000000
 ---------------------------------------------------------------------

 SCF Done:  E(RHF) =  -33.6589178492     A.U. after   11 cycles
 E2 =    -0.2287369400D+00 EUMP2 =    -0.33887654789233D+02
 CCSD(T)
 CCSD(T)= -0.33904517751D+02

 The electronic state is 1-A'.
 Alpha  occ. eigenvalues --   -1.37645  -1.32876  -0.73309  -0.68559  -0.57935
 Alpha  occ. eigenvalues --   -0.52671  -0.52309  -0.47518
 Alpha virt. eigenvalues --    0.17925   0.24431   0.28760   0.36666   0.77796
 Alpha virt. eigenvalues --    0.81969   0.83453   0.85717   0.90055   0.93956
 Alpha virt. eigenvalues --    1.15395   1.19913   1.20591   1.34122   2.50585

 Mulliken charges:
               1
     1  O   -0.771454
     2  H    0.412797
     3  H    0.356594
     4  O   -0.768945
     5  H    0.392121
     6  H    0.378887
 Sum of Mulliken charges =   0.00000

 Dipole moment (field-independent basis, Debye):
    X=             -2.6774    Y=             -4.4200    Z=             -0.0000  Tot=              5.1677
 Quadrupole moment (field-independent basis, Debye-Ang):
   XX=             -9.6676   YY=             -7.8140   ZZ=            -15.0029
   XY=             -4.4302   XZ=             -0.0000   YZ=              0.0000

 382\MP4DQ=-33.898771\MP4SDQ=-33.9008582\CCSD=-33.9018756\CCSD(T)=-33.9
 Normal termination of Gaussian 16 at Sun Dec 10 06:52:08 2023.
