 Gaussian 16, Revision A.03,
 Gaussian 16:  ES64L-G16RevA.03 25-Dec-2016

 ------------------
 #p CCSD(T)/CEP-31G
 ------------------

 ------------
 H2O_H2O_2530
 ------------
 Symbolic Z-matrix:
 Charge =  0 Multiplicity = 1

                         Standard orientation:
 ---------------------------------------------------------------------
 Center     Atomic      Atomic             Coordinates (Angstroms)
 Number     Number       Type             X           Y           Z
 ---------------------------------------------------------------------
      1          8           0        0.079856    2.108304   -0.000000
      2          1           0        0.079309    1.125703   -0.000000
      3          1           0       -0.849459    2.427488   -0.000000
      4          8           0        0.079856   -1.949252    0.000000
      5          1           0        0.395185   -2.879883    0.000000
      6          1           0       -0.902739   -1.945725    0.000000
 ---------------------------------------------------------------------

 SCF Done:  E(RHF) =  -33.6543756263     A.U. after   11 cycles
 E2 =    -0.2284906816D+00 EUMP2 =    -0.33882866307894D+02
 CCSD(T)
 CCSD(T)= -0.33899824304D+02

 The electronic state is 1-A'.
 Alpha  occ. eigenvalues --   -1.37028  -1.34175  -0.72708  -0.69761  -0.56929
 Alpha  occ. eigenvalues --   -0.53942  -0.51628  -0.48769
 Alpha virt. eigenvalues --    0.17803   0.22688   0.29106   0.32635   0.78908
 Alpha virt. eigenvalues --    0.81794   0.83113   0.84779   0.86505   0.88195
 Alpha virt. eigenvalues --    1.15805   1.19308   1.20453   1.29889   2.55230

 Mulliken charges:
               1
     1  O   -0.752214
     2  H    0.389315
     3  H    0.361571
     4  O   -0.750802
     5  H    0.382141
     6  H    0.369989
 Sum of Mulliken charges =   0.00000

 Dipole moment (field-independent basis, Debye):
    X=             -3.6361    Y=             -3.8485    Z=              0.0000  Tot=              5.2945
 Quadrupole moment (field-independent basis, Debye-Ang):
   XX=            -10.4888   YY=             -8.0061   ZZ=            -14.9927
   XY=             -3.5545   XZ=              0.0000   YZ=             -0.0000

 3979\MP4DQ=-33.8941429\MP4SDQ=-33.8962023\CCSD=-33.8972371\CCSD(T)=-33
 Normal termination of Gaussian 16 at Sun Dec 10 06:18:33 2023.
