 Gaussian 16, Revision A.03,
 Gaussian 16:  ES64L-G16RevA.03 25-Dec-2016

 ------------------
 #p CCSD(T)/CEP-31G
 ------------------

 ------------
 H2O_H2O_4152
 ------------
 Symbolic Z-matrix:
 Charge =  0 Multiplicity = 1

                         Standard orientation:
 ---------------------------------------------------------------------
 Center     Atomic      Atomic             Coordinates (Angstroms)
 Number     Number       Type             X           Y           Z
 ---------------------------------------------------------------------
      1          8           0        0.088230   -2.748479    0.000000
      2          1           0        0.088080   -1.765877    0.000000
      3          1           0       -0.841215   -3.067287    0.000000
      4          8           0        0.088230    2.604154    0.000000
      5          1           0        0.216337    3.578370    0.000000
      6          1           0       -0.874876    2.409391    0.000000
 ---------------------------------------------------------------------

 SCF Done:  E(RHF) =  -33.6522970162     A.U. after   11 cycles
 E2 =    -0.2283504830D+00 EUMP2 =    -0.33880647499234D+02
 CCSD(T)
 CCSD(T)= -0.33897635107D+02

 The electronic state is 1-A'.
 Alpha  occ. eigenvalues --   -1.36376  -1.35009  -0.72026  -0.70624  -0.56146
 Alpha  occ. eigenvalues --   -0.54750  -0.50953  -0.49584
 Alpha virt. eigenvalues --    0.19268   0.20942   0.29670   0.31103   0.79613
 Alpha virt. eigenvalues --    0.80952   0.82533   0.83968   0.85605   0.87186
 Alpha virt. eigenvalues --    1.16520   1.17949   1.21000   1.22519   2.56351

 Mulliken charges:
               1
     1  O   -0.743185
     2  H    0.376410
     3  H    0.366754
     4  O   -0.743522
     5  H    0.375259
     6  H    0.368284
 Sum of Mulliken charges =  -0.00000

 Dipole moment (field-independent basis, Debye):
    X=             -4.0543    Y=              3.3964    Z=              0.0000  Tot=              5.2890
 Quadrupole moment (field-independent basis, Debye-Ang):
   XX=            -10.9673   YY=             -8.5436   ZZ=            -14.9890
   XY=              2.9608   XZ=              0.0000   YZ=              0.0000

 04\MP4DQ=-33.8919926\MP4SDQ=-33.8940197\CCSD=-33.8950734\CCSD(T)=-33.8
 Normal termination of Gaussian 16 at Sun Dec 10 06:47:44 2023.
