 Gaussian 16, Revision A.03,
 Gaussian 16:  ES64L-G16RevA.03 25-Dec-2016

 ------------------
 #p CCSD(T)/CEP-31G
 ------------------

 ------------
 H2O_H2O_4324
 ------------
 Symbolic Z-matrix:
 Charge =  0 Multiplicity = 1

                         Standard orientation:
 ---------------------------------------------------------------------
 Center     Atomic      Atomic             Coordinates (Angstroms)
 Number     Number       Type             X           Y           Z
 ---------------------------------------------------------------------
      1          8           0       -0.013478    2.816440    0.000000
      2          1           0       -0.011015    1.833842    0.000000
      3          1           0        0.915214    3.137435    0.000000
      4          8           0       -0.013478   -2.657164    0.000000
      5          1           0       -0.996076   -2.659627    0.000000
      6          1           0        0.307518   -3.585856    0.000000
 ---------------------------------------------------------------------

 SCF Done:  E(RHF) =  -33.6534919992     A.U. after   11 cycles
 E2 =    -0.2282845516D+00 EUMP2 =    -0.33881776550787D+02
 CCSD(T)
 CCSD(T)= -0.33898730663D+02

 The electronic state is 1-A'.
 Alpha  occ. eigenvalues --   -1.36284  -1.34806  -0.71927  -0.70447  -0.56113
 Alpha  occ. eigenvalues --   -0.54603  -0.50880  -0.49408
 Alpha virt. eigenvalues --    0.19533   0.21121   0.29831   0.31378   0.79672
 Alpha virt. eigenvalues --    0.81109   0.82510   0.84090   0.85673   0.87191
 Alpha virt. eigenvalues --    1.16689   1.18185   1.21126   1.22710   2.56620

 Mulliken charges:
               1
     1  O   -0.747757
     2  H    0.377527
     3  H    0.370214
     4  O   -0.747410
     5  H    0.373306
     6  H    0.374121
 Sum of Mulliken charges =  -0.00000

 Dipole moment (field-independent basis, Debye):
    X=              0.6186    Y=             -3.7360    Z=              0.0000  Tot=              3.7869
 Quadrupole moment (field-independent basis, Debye-Ang):
   XX=             -9.8762   YY=             -7.0779   ZZ=            -14.9919
   XY=             10.2079   XZ=              0.0000   YZ=              0.0000

 96\MP4DQ=-33.8930976\MP4SDQ=-33.8951213\CCSD=-33.8961733\CCSD(T)=-33.8
 Normal termination of Gaussian 16 at Sun Dec 10 06:50:49 2023.
