 Gaussian 16, Revision A.03,
 Gaussian 16:  ES64L-G16RevA.03 25-Dec-2016

 ------------------
 #p CCSD(T)/CEP-31G
 ------------------

 ------------
 H2O_H2O_1236
 ------------
 Symbolic Z-matrix:
 Charge =  0 Multiplicity = 1

                         Standard orientation:
 ---------------------------------------------------------------------
 Center     Atomic      Atomic             Coordinates (Angstroms)
 Number     Number       Type             X           Y           Z
 ---------------------------------------------------------------------
      1          8           0        0.059697    1.599719    0.000000
      2          1           0        0.057826    0.617119    0.000000
      3          1           0       -0.869188    1.920155   -0.000000
      4          8           0        0.059697   -1.422349    0.000000
      5          1           0        0.706163   -2.162341    0.000000
      6          1           0       -0.849954   -1.793889   -0.000000
 ---------------------------------------------------------------------

 SCF Done:  E(RHF) =  -33.6613605655     A.U. after   11 cycles
 E2 =    -0.2290269977D+00 EUMP2 =    -0.33890387563245D+02
 CCSD(T)
 CCSD(T)= -0.33907064007D+02

 The electronic state is 1-A'.
 Alpha  occ. eigenvalues --   -1.38450  -1.31909  -0.74107  -0.68122  -0.58906
 Alpha  occ. eigenvalues --   -0.53151  -0.51567  -0.46543
 Alpha virt. eigenvalues --    0.17635   0.25755   0.28187   0.41920   0.76281
 Alpha virt. eigenvalues --    0.79016   0.85306   0.85550   0.93152   1.01770
 Alpha virt. eigenvalues --    1.14912   1.19097   1.21533   1.35034   2.50335

 Mulliken charges:
               1
     1  O   -0.779741
     2  H    0.429451
     3  H    0.349147
     4  O   -0.793399
     5  H    0.408295
     6  H    0.386248
 Sum of Mulliken charges =  -0.00000

 Dipole moment (field-independent basis, Debye):
    X=             -2.6318    Y=             -4.5711    Z=             -0.0000  Tot=              5.2746
 Quadrupole moment (field-independent basis, Debye-Ang):
   XX=             -9.6556   YY=             -8.4550   ZZ=            -15.0109
   XY=             -4.1076   XZ=              0.0000   YZ=             -0.0000

 5419\MP4DQ=-33.9012393\MP4SDQ=-33.903352\CCSD=-33.9043299\CCSD(T)=-33.
 Normal termination of Gaussian 16 at Sun Dec 10 06:41:50 2023.
