 Gaussian 16, Revision A.03,
 Gaussian 16:  ES64L-G16RevA.03 25-Dec-2016

 ------------------
 #p CCSD(T)/CEP-31G
 ------------------

 ------------
 H2O_H2O_2606
 ------------
 Symbolic Z-matrix:
 Charge =  0 Multiplicity = 1

                         Standard orientation:
 ---------------------------------------------------------------------
 Center     Atomic      Atomic             Coordinates (Angstroms)
 Number     Number       Type             X           Y           Z
 ---------------------------------------------------------------------
      1          8           0        0.076763    2.140472   -0.000000
      2          1           0        0.076096    1.157871   -0.000000
      3          1           0       -0.852513    2.459770    0.000000
      4          8           0        0.076763   -1.977273   -0.000000
      5          1           0        0.452173   -2.885334   -0.000000
      6          1           0       -0.903967   -2.037899    0.000000
 ---------------------------------------------------------------------

 SCF Done:  E(RHF) =  -33.6545487480     A.U. after   11 cycles
 E2 =    -0.2284590494D+00 EUMP2 =    -0.33883007797463D+02
 CCSD(T)
 CCSD(T)= -0.33899955103D+02

 The electronic state is 1-A'.
 Alpha  occ. eigenvalues --   -1.36973  -1.34128  -0.72645  -0.69719  -0.56882
 Alpha  occ. eigenvalues --   -0.53905  -0.51577  -0.48726
 Alpha virt. eigenvalues --    0.18013   0.22594   0.29155   0.32594   0.78971
 Alpha virt. eigenvalues --    0.81813   0.83143   0.84823   0.85974   0.88189
 Alpha virt. eigenvalues --    1.15915   1.19336   1.20476   1.28998   2.55308

 Mulliken charges:
               1
     1  O   -0.752696
     2  H    0.389447
     3  H    0.361991
     4  O   -0.751078
     5  H    0.381606
     6  H    0.370731
 Sum of Mulliken charges =   0.00000

 Dipole moment (field-independent basis, Debye):
    X=             -3.4963    Y=             -3.9404    Z=              0.0000  Tot=              5.2679
 Quadrupole moment (field-independent basis, Debye-Ang):
   XX=            -10.3280   YY=             -7.7353   ZZ=            -14.9933
   XY=             -3.8179   XZ=             -0.0000   YZ=              0.0000

 5349\MP4DQ=-33.8942818\MP4SDQ=-33.8963367\CCSD=-33.8973723\CCSD(T)=-33
 Normal termination of Gaussian 16 at Sun Dec 10 06:19:55 2023.
