 Gaussian 16, Revision A.03,
 Gaussian 16:  ES64L-G16RevA.03 25-Dec-2016

 ------------------
 #p CCSD(T)/CEP-31G
 ------------------

 -----------
 H2O_H2O_717
 -----------
 Symbolic Z-matrix:
 Charge =  0 Multiplicity = 1

                         Standard orientation:
 ---------------------------------------------------------------------
 Center     Atomic      Atomic             Coordinates (Angstroms)
 Number     Number       Type             X           Y           Z
 ---------------------------------------------------------------------
      1          8           0        0.037586    1.391119    0.000000
      2          1           0        0.033967    0.408524    0.000000
      3          1           0       -0.890727    1.713206   -0.000000
      4          8           0        0.037586   -1.212272    0.000000
      5          1           0        0.917248   -1.650109    0.000000
      6          1           0       -0.661868   -1.902395   -0.000000
 ---------------------------------------------------------------------

 SCF Done:  E(RHF) =  -33.6606781372     A.U. after   11 cycles
 E2 =    -0.2289505183D+00 EUMP2 =    -0.33889628655459D+02
 CCSD(T)
 CCSD(T)= -0.33905636352D+02

 The electronic state is 1-A'.
 Alpha  occ. eigenvalues --   -1.40004  -1.30072  -0.75458  -0.69528  -0.59104
 Alpha  occ. eigenvalues --   -0.54704  -0.49260  -0.44649
 Alpha virt. eigenvalues --    0.17373   0.27355   0.27597   0.50756   0.74535
 Alpha virt. eigenvalues --    0.75347   0.85734   0.88137   0.96303   0.99721
 Alpha virt. eigenvalues --    1.15453   1.18288   1.24016   1.37146   2.60722

 Mulliken charges:
               1
     1  O   -0.782763
     2  H    0.430307
     3  H    0.341909
     4  O   -0.828674
     5  H    0.416807
     6  H    0.422413
 Sum of Mulliken charges =  -0.00000

 Dipole moment (field-independent basis, Debye):
    X=             -1.6360    Y=             -4.8898    Z=             -0.0000  Tot=              5.1562
 Quadrupole moment (field-independent basis, Debye-Ang):
   XX=             -9.3406   YY=             -9.3031   ZZ=            -15.0186
   XY=             -4.1251   XZ=              0.0000   YZ=             -0.0000

 733\MP4DQ=-33.8997265\MP4SDQ=-33.9018713\CCSD=-33.9027323\CCSD(T)=-33.
 Normal termination of Gaussian 16 at Sun Dec 10 06:32:00 2023.
