 Gaussian 16, Revision A.03,
 Gaussian 16:  ES64L-G16RevA.03 25-Dec-2016

 ------------------
 #p CCSD(T)/CEP-31G
 ------------------

 ------------
 H2O_H2O_2607
 ------------
 Symbolic Z-matrix:
 Charge =  0 Multiplicity = 1

                         Standard orientation:
 ---------------------------------------------------------------------
 Center     Atomic      Atomic             Coordinates (Angstroms)
 Number     Number       Type             X           Y           Z
 ---------------------------------------------------------------------
      1          8           0        0.073542    2.142500    0.000000
      2          1           0        0.072742    1.159899    0.000000
      3          1           0       -0.855691    2.461923   -0.000000
      4          8           0        0.073542   -1.975569    0.000000
      5          1           0        0.507417   -2.857191    0.000000
      6          1           0       -0.901139   -2.100076   -0.000000
 ---------------------------------------------------------------------

 SCF Done:  E(RHF) =  -33.6548341826     A.U. after   11 cycles
 E2 =    -0.2284491087D+00 EUMP2 =    -0.33883283291305D+02
 CCSD(T)
 CCSD(T)= -0.33900221736D+02

 The electronic state is 1-A'.
 Alpha  occ. eigenvalues --   -1.36967  -1.34043  -0.72635  -0.69637  -0.56892
 Alpha  occ. eigenvalues --   -0.53828  -0.51576  -0.48646
 Alpha virt. eigenvalues --    0.18128   0.22622   0.29172   0.32692   0.78973
 Alpha virt. eigenvalues --    0.81885   0.83240   0.84891   0.85817   0.88232
 Alpha virt. eigenvalues --    1.15965   1.19407   1.20483   1.28853   2.55179

 Mulliken charges:
               1
     1  O   -0.753780
     2  H    0.390407
     3  H    0.362059
     4  O   -0.751784
     5  H    0.381605
     6  H    0.371494
 Sum of Mulliken charges =   0.00000

 Dipole moment (field-independent basis, Debye):
    X=             -3.3484    Y=             -4.0307    Z=             -0.0000  Tot=              5.2401
 Quadrupole moment (field-independent basis, Debye-Ang):
   XX=            -10.1748   YY=             -7.5307   ZZ=            -14.9940
   XY=             -4.0568   XZ=              0.0000   YZ=             -0.0000

 8024\MP4DQ=-33.8945505\MP4SDQ=-33.8966048\CCSD=-33.8976398\CCSD(T)=-33
 Normal termination of Gaussian 16 at Sun Dec 10 06:19:56 2023.
