 Gaussian 16, Revision A.03,
 Gaussian 16:  ES64L-G16RevA.03 25-Dec-2016

 ------------------
 #p CCSD(T)/CEP-31G
 ------------------

 ------------
 H2O_H2O_2044
 ------------
 Symbolic Z-matrix:
 Charge =  0 Multiplicity = 1

                         Standard orientation:
 ---------------------------------------------------------------------
 Center     Atomic      Atomic             Coordinates (Angstroms)
 Number     Number       Type             X           Y           Z
 ---------------------------------------------------------------------
      1          8           0        0.030239    1.917849   -0.000000
      2          1           0        0.027328    0.935251   -0.000000
      3          1           0       -0.898306    2.239267   -0.000000
      4          8           0        0.030239   -1.742275    0.000000
      5          1           0        0.959754   -2.060877    0.000000
      6          1           0       -0.572594   -2.518226    0.000000
 ---------------------------------------------------------------------

 SCF Done:  E(RHF) =  -33.6586328299     A.U. after   11 cycles
 E2 =    -0.2285386833D+00 EUMP2 =    -0.33887171513205D+02
 CCSD(T)
 CCSD(T)= -0.33904041918D+02

 The electronic state is 1-A'.
 Alpha  occ. eigenvalues --   -1.37321  -1.33198  -0.72976  -0.68866  -0.57535
 Alpha  occ. eigenvalues --   -0.53062  -0.51985  -0.47863
 Alpha virt. eigenvalues --    0.18129   0.23916   0.29074   0.34972   0.78350
 Alpha virt. eigenvalues --    0.82694   0.82836   0.86164   0.88044   0.90705
 Alpha virt. eigenvalues --    1.15781   1.19972   1.20620   1.32972   2.52260

 Mulliken charges:
               1
     1  O   -0.770093
     2  H    0.404033
     3  H    0.363714
     4  O   -0.764409
     5  H    0.383570
     6  H    0.383185
 Sum of Mulliken charges =   0.00000

 Dipole moment (field-independent basis, Debye):
    X=             -1.3624    Y=             -4.3142    Z=              0.0000  Tot=              4.5242
 Quadrupole moment (field-independent basis, Debye-Ang):
   XX=             -9.4578   YY=             -7.5747   ZZ=            -15.0021
   XY=             -5.9359   XZ=              0.0000   YZ=             -0.0000

 5865\MP4DQ=-33.8983348\MP4SDQ=-33.9004084\CCSD=-33.9014316\CCSD(T)=-33
 Normal termination of Gaussian 16 at Sun Dec 10 06:57:28 2023.
