 Gaussian 16, Revision A.03,
 Gaussian 16:  ES64L-G16RevA.03 25-Dec-2016

 ------------------
 #p CCSD(T)/CEP-31G
 ------------------

 ------------
 H2O_H2O_3825
 ------------
 Symbolic Z-matrix:
 Charge =  0 Multiplicity = 1

                         Standard orientation:
 ---------------------------------------------------------------------
 Center     Atomic      Atomic             Coordinates (Angstroms)
 Number     Number       Type             X           Y           Z
 ---------------------------------------------------------------------
      1          8           0        0.092949   -2.612577    0.000000
      2          1           0        0.092949   -1.629976    0.000000
      3          1           0       -0.836544   -2.931244    0.000000
      4          8           0        0.092949    2.479790    0.000000
      5          1           0        0.092950    3.462392    0.000000
      6          1           0       -0.836544    2.161124    0.000000
 ---------------------------------------------------------------------

 SCF Done:  E(RHF) =  -33.6520542968     A.U. after   11 cycles
 E2 =    -0.2283702277D+00 EUMP2 =    -0.33880424524442D+02
 CCSD(T)
 CCSD(T)= -0.33897420635D+02

 The electronic state is 1-A'.
 Alpha  occ. eigenvalues --   -1.36476  -1.35096  -0.72132  -0.70707  -0.56236
 Alpha  occ. eigenvalues --   -0.54827  -0.51048  -0.49666
 Alpha virt. eigenvalues --    0.18841   0.21078   0.29540   0.31056   0.79525
 Alpha virt. eigenvalues --    0.80876   0.82442   0.83887   0.85486   0.87199
 Alpha virt. eigenvalues --    1.16285   1.17957   1.20869   1.22732   2.55762

 Mulliken charges:
               1
     1  O   -0.742251
     2  H    0.375882
     3  H    0.366321
     4  O   -0.742820
     5  H    0.375901
     6  H    0.366966
 Sum of Mulliken charges =  -0.00000

 Dipole moment (field-independent basis, Debye):
    X=             -4.2681    Y=              3.1344    Z=              0.0000  Tot=              5.2954
 Quadrupole moment (field-independent basis, Debye-Ang):
   XX=            -11.2860   YY=             -9.6225   ZZ=            -14.9882
   XY=              2.3038   XZ=              0.0000   YZ=              0.0000

 0337\MP4DQ=-33.8917744\MP4SDQ=-33.8938033\CCSD=-33.8948565\CCSD(T)=-33
 Normal termination of Gaussian 16 at Sun Dec 10 06:41:50 2023.
