 Gaussian 16, Revision A.03,
 Gaussian 16:  ES64L-G16RevA.03 25-Dec-2016

 ------------------
 #p CCSD(T)/CEP-31G
 ------------------

 ------------
 H2O_H2O_4251
 ------------
 Symbolic Z-matrix:
 Charge =  0 Multiplicity = 1

                         Standard orientation:
 ---------------------------------------------------------------------
 Center     Atomic      Atomic             Coordinates (Angstroms)
 Number     Number       Type             X           Y           Z
 ---------------------------------------------------------------------
      1          8           0        0.090684   -2.785318    0.000000
      2          1           0        0.090613   -1.802716    0.000000
      3          1           0       -0.838786   -3.104051    0.000000
      4          8           0        0.090684    2.646607    0.000000
      5          1           0        0.154878    3.627109    0.000000
      6          1           0       -0.857643    2.389346    0.000000
 ---------------------------------------------------------------------

 SCF Done:  E(RHF) =  -33.6521317521     A.U. after   11 cycles
 E2 =    -0.2283572571D+00 EUMP2 =    -0.33880489009236D+02
 CCSD(T)
 CCSD(T)= -0.33897481623D+02

 The electronic state is 1-A'.
 Alpha  occ. eigenvalues --   -1.36357  -1.35092  -0.72007  -0.70708  -0.56119
 Alpha  occ. eigenvalues --   -0.54829  -0.50932  -0.49665
 Alpha virt. eigenvalues --    0.19280   0.20844   0.29676   0.31003   0.79634
 Alpha virt. eigenvalues --    0.80875   0.82576   0.83893   0.85636   0.87102
 Alpha virt. eigenvalues --    1.16527   1.17855   1.21011   1.22399   2.56318

 Mulliken charges:
               1
     1  O   -0.742540
     2  H    0.375548
     3  H    0.366978
     4  O   -0.742905
     5  H    0.374983
     6  H    0.367936
 Sum of Mulliken charges =   0.00000

 Dipole moment (field-independent basis, Debye):
    X=             -4.1690    Y=              3.2619    Z=              0.0000  Tot=              5.2934
 Quadrupole moment (field-independent basis, Debye-Ang):
   XX=            -11.1275   YY=             -9.0582   ZZ=            -14.9887
   XY=              2.6360   XZ=              0.0000   YZ=              0.0000

 966\MP4DQ=-33.8918381\MP4SDQ=-33.8938655\CCSD=-33.8949196\CCSD(T)=-33.
 Normal termination of Gaussian 16 at Sun Dec 10 06:49:31 2023.
