 Gaussian 16, Revision A.03,
 Gaussian 16:  ES64L-G16RevA.03 25-Dec-2016

 ------------------
 #p CCSD(T)/CEP-31G
 ------------------

 ------------
 H2O_H2O_4345
 ------------
 Symbolic Z-matrix:
 Charge =  0 Multiplicity = 1

                         Standard orientation:
 ---------------------------------------------------------------------
 Center     Atomic      Atomic             Coordinates (Angstroms)
 Number     Number       Type             X           Y           Z
 ---------------------------------------------------------------------
      1          8           0        0.026618    2.834000   -0.000000
      2          1           0        0.024570    1.851400   -0.000000
      3          1           0       -0.902209    3.154602   -0.000000
      4          8           0        0.026618   -2.660751    0.000000
      5          1           0        0.975206   -2.917044    0.000000
      6          1           0       -0.523458   -3.474950    0.000000
 ---------------------------------------------------------------------

 SCF Done:  E(RHF) =  -33.6535638483     A.U. after   11 cycles
 E2 =    -0.2282866267D+00 EUMP2 =    -0.33881850474961D+02
 CCSD(T)
 CCSD(T)= -0.33898801305D+02

 The electronic state is 1-A'.
 Alpha  occ. eigenvalues --   -1.36280  -1.34670  -0.71920  -0.70306  -0.56115
 Alpha  occ. eigenvalues --   -0.54465  -0.50878  -0.49271
 Alpha virt. eigenvalues --    0.19563   0.21253   0.29835   0.31533   0.79675
 Alpha virt. eigenvalues --    0.81242   0.82500   0.84228   0.85700   0.87329
 Alpha virt. eigenvalues --    1.16698   1.18317   1.21132   1.22845   2.56655

 Mulliken charges:
               1
     1  O   -0.748039
     2  H    0.378848
     3  H    0.369172
     4  O   -0.747445
     5  H    0.374022
     6  H    0.373442
 Sum of Mulliken charges =  -0.00000

 Dipole moment (field-independent basis, Debye):
    X=             -1.2214    Y=             -4.0655    Z=              0.0000  Tot=              4.2450
 Quadrupole moment (field-independent basis, Debye-Ang):
   XX=             -9.5290   YY=             -5.8445   ZZ=            -14.9922
   XY=             -8.9459   XZ=              0.0000   YZ=             -0.0000

 209\MP4DQ=-33.8931693\MP4SDQ=-33.8951927\CCSD=-33.8962444\CCSD(T)=-33.
 Normal termination of Gaussian 16 at Sun Dec 10 06:51:12 2023.
