 Gaussian 16, Revision A.03,
 Gaussian 16:  ES64L-G16RevA.03 25-Dec-2016

 ------------------
 #p CCSD(T)/CEP-31G
 ------------------

 ------------
 H2O_H2O_2258
 ------------
 Symbolic Z-matrix:
 Charge =  0 Multiplicity = 1

                         Standard orientation:
 ---------------------------------------------------------------------
 Center     Atomic      Atomic             Coordinates (Angstroms)
 Number     Number       Type             X           Y           Z
 ---------------------------------------------------------------------
      1          8           0        0.070212    2.004682    0.000000
      2          1           0        0.069206    1.022081    0.000000
      3          1           0       -0.858955    2.324300   -0.000000
      4          8           0        0.070212   -1.834459    0.000000
      5          1           0        0.560642   -2.685920    0.000000
      6          1           0       -0.894280   -2.022245   -0.000000
 ---------------------------------------------------------------------

 SCF Done:  E(RHF) =  -33.6559936353     A.U. after   11 cycles
 E2 =    -0.2285449472D+00 EUMP2 =    -0.33884538582504D+02
 CCSD(T)
 CCSD(T)= -0.33901469205D+02

 The electronic state is 1-A'.
 Alpha  occ. eigenvalues --   -1.37203  -1.33683  -0.72876  -0.69280  -0.57222
 Alpha  occ. eigenvalues --   -0.53476  -0.51826  -0.48297
 Alpha virt. eigenvalues --    0.17948   0.23251   0.29027   0.33715   0.78633
 Alpha virt. eigenvalues --    0.82318   0.83334   0.85165   0.88051   0.88666
 Alpha virt. eigenvalues --    1.15757   1.19770   1.20370   1.31918   2.53597

 Mulliken charges:
               1
     1  O   -0.759130
     2  H    0.397093
     3  H    0.360082
     4  O   -0.755951
     5  H    0.384787
     6  H    0.373119
 Sum of Mulliken charges =   0.00000

 Dipole moment (field-independent basis, Debye):
    X=             -3.1835    Y=             -4.1566    Z=             -0.0000  Tot=              5.2356
 Quadrupole moment (field-independent basis, Debye-Ang):
   XX=            -10.0325   YY=             -7.6202   ZZ=            -14.9963
   XY=             -4.1407   XZ=              0.0000   YZ=             -0.0000

 0239\MP4DQ=-33.8957696\MP4SDQ=-33.8978406\CCSD=-33.8988699\CCSD(T)=-33
 Normal termination of Gaussian 16 at Sun Dec 10 07:02:44 2023.
