 Gaussian 16, Revision A.03,
 Gaussian 16:  ES64L-G16RevA.03 25-Dec-2016

 ------------------
 #p CCSD(T)/CEP-31G
 ------------------

 ------------
 H2O_H2O_2736
 ------------
 Symbolic Z-matrix:
 Charge =  0 Multiplicity = 1

                         Standard orientation:
 ---------------------------------------------------------------------
 Center     Atomic      Atomic             Coordinates (Angstroms)
 Number     Number       Type             X           Y           Z
 ---------------------------------------------------------------------
      1          8           0        0.059649    2.198066    0.000000
      2          1           0        0.058309    1.215466    0.000000
      3          1           0       -0.869408    2.518000   -0.000000
      4          8           0        0.059649   -2.020632    0.000000
      5          1           0        0.706516   -2.760274    0.000000
      6          1           0       -0.849800   -2.392663   -0.000000
 ---------------------------------------------------------------------

 SCF Done:  E(RHF) =  -33.6554569772     A.U. after   11 cycles
 E2 =    -0.2283891122D+00 EUMP2 =    -0.33883846089459D+02
 CCSD(T)
 CCSD(T)= -0.33900757728D+02

 The electronic state is 1-A'.
 Alpha  occ. eigenvalues --   -1.36871  -1.33890  -0.72524  -0.69498  -0.56830
 Alpha  occ. eigenvalues --   -0.53704  -0.51493  -0.48508
 Alpha virt. eigenvalues --    0.18539   0.22572   0.29322   0.32714   0.79068
 Alpha virt. eigenvalues --    0.81988   0.83308   0.84798   0.85269   0.88225
 Alpha virt. eigenvalues --    1.16164   1.19484   1.20594   1.27358   2.55291

 Mulliken charges:
               1
     1  O   -0.755897
     2  H    0.391289
     3  H    0.363358
     4  O   -0.753007
     5  H    0.380490
     6  H    0.373766
 Sum of Mulliken charges =  -0.00000

 Dipole moment (field-independent basis, Debye):
    X=             -2.7152    Y=             -4.2689    Z=             -0.0000  Tot=              5.0592
 Quadrupole moment (field-independent basis, Debye-Ang):
   XX=             -9.6725   YY=             -6.8688   ZZ=            -14.9957
   XY=             -5.0338   XZ=              0.0000   YZ=             -0.0000

 89\MP4DQ=-33.8951015\MP4SDQ=-33.8971482\CCSD=-33.8981837\CCSD(T)=-33.9
 Normal termination of Gaussian 16 at Sun Dec 10 06:22:15 2023.
