 Gaussian 16, Revision A.03,
 Gaussian 16:  ES64L-G16RevA.03 25-Dec-2016

 ------------------
 #p CCSD(T)/CEP-31G
 ------------------

 ------------
 H2O_H2O_3966
 ------------
 Symbolic Z-matrix:
 Charge =  0 Multiplicity = 1

                         Standard orientation:
 ---------------------------------------------------------------------
 Center     Atomic      Atomic             Coordinates (Angstroms)
 Number     Number       Type             X           Y           Z
 ---------------------------------------------------------------------
      1          8           0        0.041118    2.688056    0.000000
      2          1           0        0.039425    1.705456    0.000000
      3          1           0       -0.887825    3.008323    0.000000
      4          8           0        0.041118   -2.508111   -0.000000
      5          1           0        0.891228   -3.000876   -0.000000
      6          1           0       -0.700713   -3.152465   -0.000000
 ---------------------------------------------------------------------

 SCF Done:  E(RHF) =  -33.6538606539     A.U. after   11 cycles
 E2 =    -0.2282857656D+00 EUMP2 =    -0.33882146419447D+02
 CCSD(T)
 CCSD(T)= -0.33899087985D+02

 The electronic state is 1-A'.
 Alpha  occ. eigenvalues --   -1.36372  -1.34478  -0.72013  -0.70107  -0.56227
 Alpha  occ. eigenvalues --   -0.54277  -0.50974  -0.49082
 Alpha virt. eigenvalues --    0.19448   0.21499   0.29761   0.31764   0.79582
 Alpha virt. eigenvalues --    0.81423   0.82352   0.84427   0.85602   0.87539
 Alpha virt. eigenvalues --    1.16618   1.18539   1.21054   1.23159   2.56573

 Mulliken charges:
               1
     1  O   -0.749197
     2  H    0.381319
     3  H    0.367804
     4  O   -0.748338
     5  H    0.375278
     6  H    0.373135
 Sum of Mulliken charges =  -0.00000

 Dipole moment (field-independent basis, Debye):
    X=             -1.8844    Y=             -4.2375    Z=             -0.0000  Tot=              4.6376
 Quadrupole moment (field-independent basis, Debye-Ang):
   XX=             -9.4120   YY=             -5.6240   ZZ=            -14.9928
   XY=             -7.2936   XZ=             -0.0000   YZ=              0.0000

 7074\MP4DQ=-33.893457\MP4SDQ=-33.8954809\CCSD=-33.8965309\CCSD(T)=-33.
 Normal termination of Gaussian 16 at Sun Dec 10 06:44:23 2023.
