 Gaussian 16, Revision A.03,
 Gaussian 16:  ES64L-G16RevA.03 25-Dec-2016

 ------------------
 #p CCSD(T)/CEP-31G
 ------------------

 ------------
 H2O_H2O_2118
 ------------
 Symbolic Z-matrix:
 Charge =  0 Multiplicity = 1

                         Standard orientation:
 ---------------------------------------------------------------------
 Center     Atomic      Atomic             Coordinates (Angstroms)
 Number     Number       Type             X           Y           Z
 ---------------------------------------------------------------------
      1          8           0        0.033834    1.948804    0.000000
      2          1           0        0.031134    0.966207    0.000000
      3          1           0       -0.894780    2.270023    0.000000
      4          8           0        0.033834   -1.771315   -0.000000
      5          1           0        0.940603   -2.149832   -0.000000
      6          1           0       -0.618299   -2.506316   -0.000000
 ---------------------------------------------------------------------

 SCF Done:  E(RHF) =  -33.6583124215     A.U. after   11 cycles
 E2 =    -0.2285175028D+00 EUMP2 =    -0.33886829924354D+02
 CCSD(T)
 CCSD(T)= -0.33903701871D+02

 The electronic state is 1-A'.
 Alpha  occ. eigenvalues --   -1.37262  -1.33247  -0.72913  -0.68903  -0.57447
 Alpha  occ. eigenvalues --   -0.53109  -0.51922  -0.47907
 Alpha virt. eigenvalues --    0.18198   0.23763   0.29113   0.34647   0.78463
 Alpha virt. eigenvalues --    0.82739   0.83003   0.86106   0.87778   0.89658
 Alpha virt. eigenvalues --    1.15841   1.20053   1.20526   1.32192   2.52525

 Mulliken charges:
               1
     1  O   -0.768568
     2  H    0.402880
     3  H    0.363406
     4  O   -0.762653
     5  H    0.383339
     6  H    0.381595
 Sum of Mulliken charges =   0.00000

 Dipole moment (field-independent basis, Debye):
    X=             -1.5261    Y=             -4.3493    Z=             -0.0000  Tot=              4.6092
 Quadrupole moment (field-independent basis, Debye-Ang):
   XX=             -9.4217   YY=             -7.4318   ZZ=            -15.0015
   XY=             -5.8499   XZ=             -0.0000   YZ=              0.0000

 2535\MP4DQ=-33.8980033\MP4SDQ=-33.900073\CCSD=-33.9010975\CCSD(T)=-33.
 Normal termination of Gaussian 16 at Sun Dec 10 06:58:55 2023.
