 Gaussian 16, Revision A.03,
 Gaussian 16:  ES64L-G16RevA.03 25-Dec-2016

 ------------------
 #p CCSD(T)/CEP-31G
 ------------------

 ------------
 H2O_H2O_2215
 ------------
 Symbolic Z-matrix:
 Charge =  0 Multiplicity = 1

                         Standard orientation:
 ---------------------------------------------------------------------
 Center     Atomic      Atomic             Coordinates (Angstroms)
 Number     Number       Type             X           Y           Z
 ---------------------------------------------------------------------
      1          8           0        0.044890    1.990253    0.000000
      2          1           0        0.042741    1.007654    0.000000
      3          1           0       -0.883904    2.310951    0.000000
      4          8           0        0.044890   -1.809885   -0.000000
      5          1           0        0.860698   -2.357574   -0.000000
      6          1           0       -0.737771   -2.403979   -0.000000
 ---------------------------------------------------------------------

 SCF Done:  E(RHF) =  -33.6577129628     A.U. after   11 cycles
 E2 =    -0.2285017871D+00 EUMP2 =    -0.33886214749886D+02
 CCSD(T)
 CCSD(T)= -0.33903092976D+02

 The electronic state is 1-A'.
 Alpha  occ. eigenvalues --   -1.37197  -1.33317  -0.72846  -0.68952  -0.57335
 Alpha  occ. eigenvalues --   -0.53165  -0.51851  -0.47965
 Alpha virt. eigenvalues --    0.18281   0.23553   0.29142   0.34252   0.78592
 Alpha virt. eigenvalues --    0.82627   0.83539   0.85928   0.86986   0.88879
 Alpha virt. eigenvalues --    1.15903   1.20096   1.20409   1.31113   2.52872

 Mulliken charges:
               1
     1  O   -0.765844
     2  H    0.401496
     3  H    0.362171
     4  O   -0.760056
     5  H    0.383603
     6  H    0.378630
 Sum of Mulliken charges =  -0.00000

 Dipole moment (field-independent basis, Debye):
    X=             -2.0287    Y=             -4.4063    Z=             -0.0000  Tot=              4.8509
 Quadrupole moment (field-independent basis, Debye-Ang):
   XX=             -9.4187   YY=             -7.2251   ZZ=            -15.0003
   XY=             -5.4291   XZ=             -0.0000   YZ=              0.0000

 MP4DQ=-33.8974035\MP4SDQ=-33.8994689\CCSD=-33.9004954\CCSD(T)=-33.9030
 Normal termination of Gaussian 16 at Sun Dec 10 07:01:05 2023.
