 Gaussian 16, Revision A.03,
 Gaussian 16:  ES64L-G16RevA.03 25-Dec-2016

 ------------------
 #p CCSD(T)/CEP-31G
 ------------------

 ------------
 H2O_H2O_1414
 ------------
 Symbolic Z-matrix:
 Charge =  0 Multiplicity = 1

                         Standard orientation:
 ---------------------------------------------------------------------
 Center     Atomic      Atomic             Coordinates (Angstroms)
 Number     Number       Type             X           Y           Z
 ---------------------------------------------------------------------
      1          8           0        0.048649    1.671126    0.000000
      2          1           0        0.046267    0.688527    0.000000
      3          1           0       -0.880069    1.992044   -0.000000
      4          8           0        0.048649   -1.490808    0.000000
      5          1           0        0.826747   -2.090866    0.000000
      6          1           0       -0.771321   -2.032247   -0.000000
 ---------------------------------------------------------------------

 SCF Done:  E(RHF) =  -33.6616343941     A.U. after   11 cycles
 E2 =    -0.2289158102D+00 EUMP2 =    -0.33890550204235D+02
 CCSD(T)
 CCSD(T)= -0.33907275182D+02

 The electronic state is 1-A'.
 Alpha  occ. eigenvalues --   -1.38096  -1.32130  -0.73726  -0.68104  -0.58625
 Alpha  occ. eigenvalues --   -0.52806  -0.51882  -0.46793
 Alpha virt. eigenvalues --    0.17869   0.25407   0.28492   0.40057   0.76875
 Alpha virt. eigenvalues --    0.79974   0.84674   0.85946   0.92010   0.97985
 Alpha virt. eigenvalues --    1.15083   1.19656   1.21294   1.34026   2.49632

 Mulliken charges:
               1
     1  O   -0.781528
     2  H    0.426285
     3  H    0.353986
     4  O   -0.785015
     5  H    0.397919
     6  H    0.388353
 Sum of Mulliken charges =  -0.00000

 Dipole moment (field-independent basis, Debye):
    X=             -2.1616    Y=             -4.5767    Z=             -0.0000  Tot=              5.0615
 Quadrupole moment (field-independent basis, Debye-Ang):
   XX=             -9.4356   YY=             -8.1720   ZZ=            -15.0103
   XY=             -4.5791   XZ=              0.0000   YZ=             -0.0000

 7796\MP4DQ=-33.9014924\MP4SDQ=-33.9035847\CCSD=-33.9045785\CCSD(T)=-33
 Normal termination of Gaussian 16 at Sun Dec 10 06:45:22 2023.
