 Gaussian 16, Revision A.03,
 Gaussian 16:  ES64L-G16RevA.03 25-Dec-2016

 ------------------
 #p CCSD(T)/CEP-31G
 ------------------

 ------------
 H2O_H2O_4749
 ------------
 Symbolic Z-matrix:
 Charge =  0 Multiplicity = 1

                         Standard orientation:
 ---------------------------------------------------------------------
 Center     Atomic      Atomic             Coordinates (Angstroms)
 Number     Number       Type             X           Y           Z
 ---------------------------------------------------------------------
      1          8           0       -0.013466    2.985964    0.000000
      2          1           0       -0.011147    2.003366    0.000000
      3          1           0        0.915273    3.306824    0.000000
      4          8           0       -0.013466   -2.826685    0.000000
      5          1           0       -0.996065   -2.829003    0.000000
      6          1           0        0.307393   -3.755423    0.000000
 ---------------------------------------------------------------------

 SCF Done:  E(RHF) =  -33.6532005821     A.U. after   11 cycles
 E2 =    -0.2282965564D+00 EUMP2 =    -0.33881497138499D+02
 CCSD(T)
 CCSD(T)= -0.33898459078D+02

 The electronic state is 1-A'.
 Alpha  occ. eigenvalues --   -1.36205  -1.34906  -0.71846  -0.70546  -0.56017
 Alpha  occ. eigenvalues --   -0.54693  -0.50797  -0.49503
 Alpha virt. eigenvalues --    0.19634   0.20974   0.29897   0.31243   0.79753
 Alpha virt. eigenvalues --    0.81021   0.82636   0.84006   0.85783   0.87095
 Alpha virt. eigenvalues --    1.16758   1.18062   1.21203   1.22540   2.56724

 Mulliken charges:
               1
     1  O   -0.746605
     2  H    0.376290
     3  H    0.370312
     4  O   -0.746331
     5  H    0.372846
     6  H    0.373489
 Sum of Mulliken charges =  -0.00000

 Dipole moment (field-independent basis, Debye):
    X=              0.6189    Y=             -3.7270    Z=              0.0000  Tot=              3.7780
 Quadrupole moment (field-independent basis, Debye-Ang):
   XX=             -9.8774   YY=             -6.8672   ZZ=            -14.9913
   XY=             10.8319   XZ=              0.0000   YZ=              0.0000

 777\MP4DQ=-33.8928246\MP4SDQ=-33.8948486\CCSD=-33.8959015\CCSD(T)=-33.
 Normal termination of Gaussian 16 at Sun Dec 10 06:58:29 2023.
