 Gaussian 16, Revision A.03,
 Gaussian 16:  ES64L-G16RevA.03 25-Dec-2016

 ------------------
 #p CCSD(T)/CEP-31G
 ------------------

 ------------
 H2O_H2O_1652
 ------------
 Symbolic Z-matrix:
 Charge =  0 Multiplicity = 1

                         Standard orientation:
 ---------------------------------------------------------------------
 Center     Atomic      Atomic             Coordinates (Angstroms)
 Number     Number       Type             X           Y           Z
 ---------------------------------------------------------------------
      1          8           0        0.088236   -1.751278    0.000000
      2          1           0        0.087998   -0.768676    0.000000
      3          1           0       -0.841179   -2.070170    0.000000
      4          8           0        0.088236    1.606969    0.000000
      5          1           0        0.216255    2.581195    0.000000
      6          1           0       -0.874853    1.412118    0.000000
 ---------------------------------------------------------------------

 SCF Done:  E(RHF) =  -33.6543790176     A.U. after   11 cycles
 E2 =    -0.2289490178D+00 EUMP2 =    -0.33883328035364D+02
 CCSD(T)
 CCSD(T)= -0.33900364002D+02

 The electronic state is 1-A'.
 Alpha  occ. eigenvalues --   -1.37890  -1.33899  -0.73751  -0.69414  -0.57856
 Alpha  occ. eigenvalues --   -0.53580  -0.52461  -0.48460
 Alpha virt. eigenvalues --    0.16853   0.24194   0.28369   0.36208   0.77396
 Alpha virt. eigenvalues --    0.81730   0.82926   0.84796   0.88865   1.01159
 Alpha virt. eigenvalues --    1.15251   1.17866   1.21314   1.39261   2.51833

 Mulliken charges:
               1
     1  O   -0.754972
     2  H    0.396405
     3  H    0.354880
     4  O   -0.758394
     5  H    0.395171
     6  H    0.366911
 Sum of Mulliken charges =  -0.00000

 Dipole moment (field-independent basis, Debye):
    X=             -3.9757    Y=              3.6315    Z=              0.0000  Tot=              5.3846
 Quadrupole moment (field-independent basis, Debye-Ang):
   XX=            -11.0072   YY=             -9.0603   ZZ=            -14.9912
   XY=              2.7114   XZ=              0.0000   YZ=              0.0000

 89\MP4DQ=-33.8945469\MP4SDQ=-33.8966832\CCSD=-33.8976984\CCSD(T)=-33.9
 Normal termination of Gaussian 16 at Sun Dec 10 06:50:05 2023.
