 Gaussian 16, Revision A.03,
 Gaussian 16:  ES64L-G16RevA.03 25-Dec-2016

 ------------------
 #p CCSD(T)/CEP-31G
 ------------------

 ------------
 H2O_H2O_3065
 ------------
 Symbolic Z-matrix:
 Charge =  0 Multiplicity = 1

                         Standard orientation:
 ---------------------------------------------------------------------
 Center     Atomic      Atomic             Coordinates (Angstroms)
 Number     Number       Type             X           Y           Z
 ---------------------------------------------------------------------
      1          8           0        0.044860    2.329313    0.000000
      2          1           0        0.043037    1.346713    0.000000
      3          1           0       -0.884040    2.649703   -0.000000
      4          8           0        0.044860   -2.148915    0.000000
      5          1           0        0.860849   -2.696334    0.000000
      6          1           0       -0.737604   -2.743268   -0.000000
 ---------------------------------------------------------------------

 SCF Done:  E(RHF) =  -33.6552089953     A.U. after   11 cycles
 E2 =    -0.2283198349D+00 EUMP2 =    -0.33883528830167D+02
 CCSD(T)
 CCSD(T)= -0.33900437054D+02

 The electronic state is 1-A'.
 Alpha  occ. eigenvalues --   -1.36688  -1.34031  -0.72333  -0.69654  -0.56624
 Alpha  occ. eigenvalues --   -0.53856  -0.51309  -0.48652
 Alpha virt. eigenvalues --    0.18905   0.22236   0.29519   0.32358   0.79260
 Alpha virt. eigenvalues --    0.81830   0.82509   0.84726   0.85346   0.87991
 Alpha virt. eigenvalues --    1.16355   1.19248   1.20780   1.25317   2.56050

 Mulliken charges:
               1
     1  O   -0.754562
     2  H    0.388098
     3  H    0.365716
     4  O   -0.752238
     5  H    0.378266
     6  H    0.374720
 Sum of Mulliken charges =  -0.00000

 Dipole moment (field-independent basis, Debye):
    X=             -2.0454    Y=             -4.3049    Z=             -0.0000  Tot=              4.7661
 Quadrupole moment (field-independent basis, Debye-Ang):
   XX=             -9.4246   YY=             -6.4062   ZZ=            -14.9955
   XY=             -6.1925   XZ=              0.0000   YZ=             -0.0000

 436\MP4DQ=-33.8947978\MP4SDQ=-33.8968329\CCSD=-33.8978728\CCSD(T)=-33.
 Normal termination of Gaussian 16 at Sun Dec 10 06:28:14 2023.
