 Gaussian 16, Revision A.03,
 Gaussian 16:  ES64L-G16RevA.03 25-Dec-2016

 ------------------
 #p CCSD(T)/CEP-31G
 ------------------

 ------------
 H2O_H2O_1027
 ------------
 Symbolic Z-matrix:
 Charge =  0 Multiplicity = 1

                         Standard orientation:
 ---------------------------------------------------------------------
 Center     Atomic      Atomic             Coordinates (Angstroms)
 Number     Number       Type             X           Y           Z
 ---------------------------------------------------------------------
      1          8           0        0.088239   -1.501976    0.000000
      2          1           0        0.087959   -0.519374    0.000000
      3          1           0       -0.841163   -1.820907    0.000000
      4          8           0        0.088239    1.357675    0.000000
      5          1           0        0.216217    2.331907    0.000000
      6          1           0       -0.874841    1.162783    0.000000
 ---------------------------------------------------------------------

 SCF Done:  E(RHF) =  -33.6526015170     A.U. after   11 cycles
 E2 =    -0.2291677790D+00 EUMP2 =    -0.33881769295980D+02
 CCSD(T)
 CCSD(T)= -0.33898690755D+02

 The electronic state is 1-A'.
 Alpha  occ. eigenvalues --   -1.39177  -1.32973  -0.75531  -0.68657  -0.58973
 Alpha  occ. eigenvalues --   -0.53651  -0.52462  -0.47470
 Alpha virt. eigenvalues --    0.16704   0.25297   0.27655   0.42890   0.75275
 Alpha virt. eigenvalues --    0.79372   0.84874   0.85339   0.91500   1.11919
 Alpha virt. eigenvalues --    1.15264   1.22782   1.24888   1.38121   2.51297

 Mulliken charges:
               1
     1  O   -0.746945
     2  H    0.389004
     3  H    0.344693
     4  O   -0.777630
     5  H    0.421623
     6  H    0.369254
 Sum of Mulliken charges =  -0.00000

 Dipole moment (field-independent basis, Debye):
    X=             -3.9041    Y=              3.8592    Z=              0.0000  Tot=              5.4895
 Quadrupole moment (field-independent basis, Debye-Ang):
   XX=            -11.0340   YY=             -9.3024   ZZ=            -14.9926
   XY=              2.6319   XZ=              0.0000   YZ=              0.0000

 2\MP4DQ=-33.8927161\MP4SDQ=-33.8949453\CCSD=-33.8959091\CCSD(T)=-33.89
 Normal termination of Gaussian 16 at Sun Dec 10 06:37:49 2023.
