 Gaussian 16, Revision A.03,
 Gaussian 16:  ES64L-G16RevA.03 25-Dec-2016

 ------------------
 #p CCSD(T)/CEP-31G
 ------------------

 ------------
 H2O_H2O_2205
 ------------
 Symbolic Z-matrix:
 Charge =  0 Multiplicity = 1

                         Standard orientation:
 ---------------------------------------------------------------------
 Center     Atomic      Atomic             Coordinates (Angstroms)
 Number     Number       Type             X           Y           Z
 ---------------------------------------------------------------------
      1          8           0        0.079860    1.978666   -0.000000
      2          1           0        0.079274    0.996065   -0.000000
      3          1           0       -0.849443    2.297886   -0.000000
      4          8           0        0.079860   -1.819620    0.000000
      5          1           0        0.395151   -2.750263    0.000000
      6          1           0       -0.902736   -1.816055    0.000000
 ---------------------------------------------------------------------

 SCF Done:  E(RHF) =  -33.6550305723     A.U. after   11 cycles
 E2 =    -0.2286031949D+00 EUMP2 =    -0.33883633767187D+02
 CCSD(T)
 CCSD(T)= -0.33900601221D+02

 The electronic state is 1-A'.
 Alpha  occ. eigenvalues --   -1.37267  -1.33943  -0.72965  -0.69520  -0.57226
 Alpha  occ. eigenvalues --   -0.53704  -0.51871  -0.48538
 Alpha virt. eigenvalues --    0.17538   0.23246   0.28929   0.33561   0.78554
 Alpha virt. eigenvalues --    0.82144   0.82985   0.84941   0.88321   0.89680
 Alpha virt. eigenvalues --    1.15563   1.19398   1.20449   1.33383   2.53937

 Mulliken charges:
               1
     1  O   -0.755664
     2  H    0.394245
     3  H    0.359512
     4  O   -0.753945
     5  H    0.385434
     6  H    0.370418
 Sum of Mulliken charges =  -0.00000

 Dipole moment (field-independent basis, Debye):
    X=             -3.6238    Y=             -3.8913    Z=              0.0000  Tot=              5.3174
 Quadrupole moment (field-independent basis, Debye-Ang):
   XX=            -10.4931   YY=             -8.1765   ZZ=            -14.9937
   XY=             -3.4728   XZ=              0.0000   YZ=             -0.0000

 1457\MP4DQ=-33.8948866\MP4SDQ=-33.8969656\CCSD=-33.8979951\CCSD(T)=-33
 Normal termination of Gaussian 16 at Sun Dec 10 07:00:52 2023.
