 Gaussian 16, Revision A.03,
 Gaussian 16:  ES64L-G16RevA.03 25-Dec-2016

 ------------------
 #p CCSD(T)/CEP-31G
 ------------------

 ------------
 H2O_H2O_2912
 ------------
 Symbolic Z-matrix:
 Charge =  0 Multiplicity = 1

                         Standard orientation:
 ---------------------------------------------------------------------
 Center     Atomic      Atomic             Coordinates (Angstroms)
 Number     Number       Type             X           Y           Z
 ---------------------------------------------------------------------
      1          8           0        0.055995    2.268668    0.000000
      2          1           0        0.054555    1.286067    0.000000
      3          1           0       -0.873031    2.588695   -0.000000
      4          8           0        0.055995   -2.089766    0.000000
      5          1           0        0.749781   -2.785587    0.000000
      6          1           0       -0.827219   -2.520391   -0.000000
 ---------------------------------------------------------------------

 SCF Done:  E(RHF) =  -33.6552140097     A.U. after   11 cycles
 E2 =    -0.2283533266D+00 EUMP2 =    -0.33883567336270D+02
 CCSD(T)
 CCSD(T)= -0.33900479009D+02

 The electronic state is 1-A'.
 Alpha  occ. eigenvalues --   -1.36773  -1.33978  -0.72422  -0.69592  -0.56712
 Alpha  occ. eigenvalues --   -0.53794  -0.51392  -0.48595
 Alpha virt. eigenvalues --    0.18729   0.22367   0.29418   0.32488   0.79177
 Alpha virt. eigenvalues --    0.81892   0.82819   0.84802   0.85222   0.88111
 Alpha virt. eigenvalues --    1.16264   1.19339   1.20685   1.26152   2.55750

 Mulliken charges:
               1
     1  O   -0.754715
     2  H    0.389433
     3  H    0.364320
     4  O   -0.752259
     5  H    0.379406
     6  H    0.373817
 Sum of Mulliken charges =   0.00000

 Dipole moment (field-independent basis, Debye):
    X=             -2.5519    Y=             -4.2851    Z=             -0.0000  Tot=              4.9874
 Quadrupole moment (field-independent basis, Debye-Ang):
   XX=             -9.5838   YY=             -6.6328   ZZ=            -14.9954
   XY=             -5.3755   XZ=              0.0000   YZ=             -0.0000

 \MP4DQ=-33.8948322\MP4SDQ=-33.8968725\CCSD=-33.8979105\CCSD(T)=-33.900
 Normal termination of Gaussian 16 at Sun Dec 10 06:25:24 2023.
