 Gaussian 16, Revision A.03,
 Gaussian 16:  ES64L-G16RevA.03 25-Dec-2016

 ------------------
 #p CCSD(T)/CEP-31G
 ------------------

 ------------
 H2O_H2O_1310
 ------------
 Symbolic Z-matrix:
 Charge =  0 Multiplicity = 1

                         Standard orientation:
 ---------------------------------------------------------------------
 Center     Atomic      Atomic             Coordinates (Angstroms)
 Number     Number       Type             X           Y           Z
 ---------------------------------------------------------------------
      1          8           0        0.063283    1.628586    0.000000
      2          1           0        0.061646    0.645986    0.000000
      3          1           0       -0.865678    1.948800    0.000000
      4          8           0        0.063283   -1.453146   -0.000000
      5          1           0        0.660154   -2.233691   -0.000000
      6          1           0       -0.868646   -1.764617   -0.000000
 ---------------------------------------------------------------------

 SCF Done:  E(RHF) =  -33.6605947136     A.U. after   11 cycles
 E2 =    -0.2289847032D+00 EUMP2 =    -0.33889579416768D+02
 CCSD(T)
 CCSD(T)= -0.33906323804D+02

 The electronic state is 1-A'.
 Alpha  occ. eigenvalues --   -1.38316  -1.32165  -0.74000  -0.68195  -0.58743
 Alpha  occ. eigenvalues --   -0.53000  -0.51846  -0.46794
 Alpha virt. eigenvalues --    0.17624   0.25498   0.28247   0.40861   0.76518
 Alpha virt. eigenvalues --    0.79580   0.84929   0.85530   0.92410   1.02121
 Alpha virt. eigenvalues --    1.14927   1.18955   1.21390   1.35310   2.50023

 Mulliken charges:
               1
     1  O   -0.777175
     2  H    0.425730
     3  H    0.350027
     4  O   -0.788335
     5  H    0.406716
     6  H    0.383037
 Sum of Mulliken charges =   0.00000

 Dipole moment (field-independent basis, Debye):
    X=             -2.7998    Y=             -4.4996    Z=             -0.0000  Tot=              5.2995
 Quadrupole moment (field-independent basis, Debye-Ang):
   XX=             -9.7686   YY=             -8.3836   ZZ=            -15.0084
   XY=             -4.0284   XZ=             -0.0000   YZ=              0.0000

 15\MP4DQ=-33.9005051\MP4SDQ=-33.9026189\CCSD=-33.9036078\CCSD(T)=-33.9
 Normal termination of Gaussian 16 at Sun Dec 10 06:43:18 2023.
