 Gaussian 16, Revision A.03,
 Gaussian 16:  ES64L-G16RevA.03 25-Dec-2016

 ------------------
 #p CCSD(T)/CEP-31G
 ------------------

 ------------
 H2O_H2O_1354
 ------------
 Symbolic Z-matrix:
 Charge =  0 Multiplicity = 1

                         Standard orientation:
 ---------------------------------------------------------------------
 Center     Atomic      Atomic             Coordinates (Angstroms)
 Number     Number       Type             X           Y           Z
 ---------------------------------------------------------------------
      1          8           0        0.082817   -1.637145    0.000000
      2          1           0        0.082265   -0.654544    0.000000
      3          1           0       -0.846497   -1.956333    0.000000
      4          8           0        0.082817    1.482656    0.000000
      5          1           0        0.336600    2.431920    0.000000
      6          1           0       -0.897443    1.414869    0.000000
 ---------------------------------------------------------------------

 SCF Done:  E(RHF) =  -33.6561882344     A.U. after   11 cycles
 E2 =    -0.2290000139D+00 EUMP2 =    -0.33885188248343D+02
 CCSD(T)
 CCSD(T)= -0.33902145752D+02

 The electronic state is 1-A'.
 Alpha  occ. eigenvalues --   -1.38333  -1.33128  -0.74241  -0.68790  -0.58442
 Alpha  occ. eigenvalues --   -0.52919  -0.52767  -0.47696
 Alpha virt. eigenvalues --    0.17067   0.24940   0.28055   0.39244   0.76538
 Alpha virt. eigenvalues --    0.80469   0.84180   0.85063   0.90538   1.08110
 Alpha virt. eigenvalues --    1.15422   1.17480   1.21742   1.38886   2.50326

 Mulliken charges:
               1
     1  O   -0.761211
     2  H    0.406198
     3  H    0.350216
     4  O   -0.774224
     5  H    0.407234
     6  H    0.371789
 Sum of Mulliken charges =  -0.00000

 Dipole moment (field-independent basis, Debye):
    X=             -3.6970    Y=              3.9761    Z=              0.0000  Tot=              5.4293
 Quadrupole moment (field-independent basis, Debye-Ang):
   XX=            -10.6788   YY=             -8.8244   ZZ=            -14.9969
   XY=              3.0762   XZ=              0.0000   YZ=              0.0000

 772\MP4DQ=-33.8962823\MP4SDQ=-33.8984395\CCSD=-33.8994409\CCSD(T)=-33.
 Normal termination of Gaussian 16 at Sun Dec 10 06:44:10 2023.
