 Gaussian 16, Revision A.03,
 Gaussian 16:  ES64L-G16RevA.03 25-Dec-2016

 ------------------
 #p CCSD(T)/CEP-31G
 ------------------

 -----------
 H2O_H2O_830
 -----------
 Symbolic Z-matrix:
 Charge =  0 Multiplicity = 1

                         Standard orientation:
 ---------------------------------------------------------------------
 Center     Atomic      Atomic             Coordinates (Angstroms)
 Number     Number       Type             X           Y           Z
 ---------------------------------------------------------------------
      1          8           0        0.079879   -1.430190    0.000000
      2          1           0        0.079056   -0.447589    0.000000
      3          1           0       -0.849347   -1.749635    0.000000
      4          8           0        0.079879    1.271183    0.000000
      5          1           0        0.394947    2.201902    0.000000
      6          1           0       -0.902716    1.267381    0.000000
 ---------------------------------------------------------------------

 SCF Done:  E(RHF) =  -33.6543898098     A.U. after   11 cycles
 E2 =    -0.2289924659D+00 EUMP2 =    -0.33883382275691D+02
 CCSD(T)
 CCSD(T)= -0.33899982682D+02

 The electronic state is 1-A'.
 Alpha  occ. eigenvalues --   -1.39746  -1.31745  -0.75961  -0.68609  -0.59222
 Alpha  occ. eigenvalues --   -0.54249  -0.51084  -0.46240
 Alpha virt. eigenvalues --    0.16878   0.25961   0.27519   0.46800   0.74716
 Alpha virt. eigenvalues --    0.77721   0.85173   0.86767   0.94077   1.10275
 Alpha virt. eigenvalues --    1.15864   1.22666   1.25041   1.36542   2.56328

 Mulliken charges:
               1
     1  O   -0.753334
     2  H    0.402511
     3  H    0.338333
     4  O   -0.806564
     5  H    0.438880
     6  H    0.380174
 Sum of Mulliken charges =  -0.00000

 Dipole moment (field-independent basis, Debye):
    X=             -3.4739    Y=              4.3473    Z=              0.0000  Tot=              5.5648
 Quadrupole moment (field-independent basis, Debye-Ang):
   XX=            -10.5190   YY=             -9.1713   ZZ=            -15.0007
   XY=              3.1305   XZ=              0.0000   YZ=              0.0000

 336\MP4DQ=-33.8939965\MP4SDQ=-33.8962211\CCSD=-33.8971507\CCSD(T)=-33.
 Normal termination of Gaussian 16 at Sun Dec 10 06:34:08 2023.
