 Gaussian 16, Revision A.03,
 Gaussian 16:  ES64L-G16RevA.03 25-Dec-2016

 ------------------
 #p CCSD(T)/CEP-31G
 ------------------

 ------------
 H2O_H2O_1614
 ------------
 Symbolic Z-matrix:
 Charge =  0 Multiplicity = 1

                         Standard orientation:
 ---------------------------------------------------------------------
 Center     Atomic      Atomic             Coordinates (Angstroms)
 Number     Number       Type             X           Y           Z
 ---------------------------------------------------------------------
      1          8           0        0.048638    1.750907    0.000000
      2          1           0        0.046370    0.768308    0.000000
      3          1           0       -0.880117    2.071718    0.000000
      4          8           0        0.048638   -1.570578    0.000000
      5          1           0        0.826806   -2.170544    0.000000
      6          1           0       -0.771269   -2.112112    0.000000
 ---------------------------------------------------------------------

 SCF Done:  E(RHF) =  -33.6605203068     A.U. after   11 cycles
 E2 =    -0.2287969759D+00 EUMP2 =    -0.33889317282736D+02
 CCSD(T)
 CCSD(T)= -0.33906115421D+02

 The electronic state is 1-A'.
 Alpha  occ. eigenvalues --   -1.37803  -1.32505  -0.73444  -0.68291  -0.58236
 Alpha  occ. eigenvalues --   -0.52494  -0.52306  -0.47168
 Alpha virt. eigenvalues --    0.17976   0.24894   0.28694   0.38064   0.77447
 Alpha virt. eigenvalues --    0.81154   0.83973   0.86033   0.90710   0.95363
 Alpha virt. eigenvalues --    1.15308   1.19861   1.20920   1.33761   2.49862

 Mulliken charges:
               1
     1  O   -0.777625
     2  H    0.419323
     3  H    0.356553
     4  O   -0.775859
     5  H    0.393025
     6  H    0.384582
 Sum of Mulliken charges =   0.00000

 Dipole moment (field-independent basis, Debye):
    X=             -2.1735    Y=             -4.5221    Z=              0.0000  Tot=              5.0173
 Quadrupole moment (field-independent basis, Debye-Ang):
   XX=             -9.4426   YY=             -7.9107   ZZ=            -15.0069
   XY=             -4.7495   XZ=              0.0000   YZ=              0.0000

 6331\MP4DQ=-33.9003597\MP4SDQ=-33.902445\CCSD=-33.9034538\CCSD(T)=-33.
 Normal termination of Gaussian 16 at Sun Dec 10 06:49:21 2023.
