 Gaussian 16, Revision A.03,
 Gaussian 16:  ES64L-G16RevA.03 25-Dec-2016

 ------------------
 #p CCSD(T)/CEP-31G
 ------------------

 -----------
 H2O_H2O_298
 -----------
 Symbolic Z-matrix:
 Charge =  0 Multiplicity = 1

                         Standard orientation:
 ---------------------------------------------------------------------
 Center     Atomic      Atomic             Coordinates (Angstroms)
 Number     Number       Type             X           Y           Z
 ---------------------------------------------------------------------
      1          8           0        0.016864   -1.213156    0.000000
      2          1           0        0.011141   -0.230571    0.000000
      3          1           0       -0.910757   -1.537231    0.000000
      4          8           0        0.016864    1.049864    0.000000
      5          1           0        0.996971    1.119838    0.000000
      6          1           0       -0.367186    1.954304    0.000000
 ---------------------------------------------------------------------

 SCF Done:  E(RHF) =  -33.6318683678     A.U. after   11 cycles
 E2 =    -0.2275717944D+00 EUMP2 =    -0.33859440162231D+02
 CCSD(T)
 CCSD(T)= -0.33874736849D+02

 The electronic state is 1-A'.
 Alpha  occ. eigenvalues --   -1.43163  -1.28485  -0.80062  -0.71657  -0.57773
 Alpha  occ. eigenvalues --   -0.56981  -0.46574  -0.42854
 Alpha virt. eigenvalues --    0.17099   0.25526   0.29261   0.58700   0.73542
 Alpha virt. eigenvalues --    0.75207   0.88738   0.90317   0.93529   1.03710
 Alpha virt. eigenvalues --    1.14464   1.20949   1.29276   1.40371   2.85249

 Mulliken charges:
               1
     1  O   -0.750307
     2  H    0.336640
     3  H    0.338848
     4  O   -0.829932
     5  H    0.425730
     6  H    0.479022
 Sum of Mulliken charges =  -0.00000

 Dipole moment (field-independent basis, Debye):
    X=             -0.7425    Y=              5.0023    Z=              0.0000  Tot=              5.0571
 Quadrupole moment (field-independent basis, Debye-Ang):
   XX=             -9.6565   YY=            -10.0258   ZZ=            -14.9744
   XY=              4.0110   XZ=              0.0000   YZ=              0.0000

 8\MP4DQ=-33.8686627\MP4SDQ=-33.8709347\CCSD=-33.8716744\CCSD(T)=-33.87
 Normal termination of Gaussian 16 at Sun Dec 10 06:23:56 2023.
