 Gaussian 16, Revision A.03,
 Gaussian 16:  ES64L-G16RevA.03 25-Dec-2016

 ------------------
 #p CCSD(T)/CEP-31G
 ------------------

 ------------
 H2O_H2O_1287
 ------------
 Symbolic Z-matrix:
 Charge =  0 Multiplicity = 1

                         Standard orientation:
 ---------------------------------------------------------------------
 Center     Atomic      Atomic             Coordinates (Angstroms)
 Number     Number       Type             X           Y           Z
 ---------------------------------------------------------------------
      1          8           0        0.056050    1.620458    0.000000
      2          1           0        0.054001    0.637859    0.000000
      3          1           0       -0.872776    1.941062    0.000000
      4          8           0        0.056050   -1.441626   -0.000000
      5          1           0        0.749404   -2.137878   -0.000000
      6          1           0       -0.827431   -1.871704   -0.000000
 ---------------------------------------------------------------------

 SCF Done:  E(RHF) =  -33.6616175860     A.U. after   11 cycles
 E2 =    -0.2290023632D+00 EUMP2 =    -0.33890619949220D+02
 CCSD(T)
 CCSD(T)= -0.33907305410D+02

 The electronic state is 1-A'.
 Alpha  occ. eigenvalues --   -1.38338  -1.31950  -0.73977  -0.68092  -0.58837
 Alpha  occ. eigenvalues --   -0.53045  -0.51639  -0.46595
 Alpha virt. eigenvalues --    0.17719   0.25669   0.28290   0.41396   0.76460
 Alpha virt. eigenvalues --    0.79266   0.85132   0.85665   0.92943   1.00257
 Alpha virt. eigenvalues --    1.14927   1.19392   1.21433   1.34617   2.50016

 Mulliken charges:
               1
     1  O   -0.780947
     2  H    0.429285
     3  H    0.350626
     4  O   -0.790958
     5  H    0.404773
     6  H    0.387221
 Sum of Mulliken charges =  -0.00000

 Dipole moment (field-independent basis, Debye):
    X=             -2.4765    Y=             -4.5855    Z=             -0.0000  Tot=              5.2116
 Quadrupole moment (field-independent basis, Debye-Ang):
   XX=             -9.5632   YY=             -8.3674   ZZ=            -15.0111
   XY=             -4.2548   XZ=             -0.0000   YZ=              0.0000

 7935\MP4DQ=-33.9014953\MP4SDQ=-33.9035998\CCSD=-33.9045821\CCSD(T)=-33
 Normal termination of Gaussian 16 at Sun Dec 10 06:42:51 2023.
