 Gaussian 16, Revision A.03,
 Gaussian 16:  ES64L-G16RevA.03 25-Dec-2016

 ------------------
 #p CCSD(T)/CEP-31G
 ------------------

 ------------
 H2O_H2O_4366
 ------------
 Symbolic Z-matrix:
 Charge =  0 Multiplicity = 1

                         Standard orientation:
 ---------------------------------------------------------------------
 Center     Atomic      Atomic             Coordinates (Angstroms)
 Number     Number       Type             X           Y           Z
 ---------------------------------------------------------------------
      1          8           0        0.041109    2.847610   -0.000000
      2          1           0        0.039514    1.865010   -0.000000
      3          1           0       -0.887866    3.167785   -0.000000
      4          8           0        0.041109   -2.667657    0.000000
      5          1           0        0.891268   -3.160338    0.000000
      6          1           0       -0.700659   -3.312086    0.000000
 ---------------------------------------------------------------------

 SCF Done:  E(RHF) =  -33.6534818155     A.U. after   11 cycles
 E2 =    -0.2282936085D+00 EUMP2 =    -0.33881775423999D+02
 CCSD(T)
 CCSD(T)= -0.33898727841D+02

 The electronic state is 1-A'.
 Alpha  occ. eigenvalues --   -1.36280  -1.34616  -0.71920  -0.70247  -0.56112
 Alpha  occ. eigenvalues --   -0.54405  -0.50877  -0.49215
 Alpha virt. eigenvalues --    0.19564   0.21304   0.29833   0.31585   0.79676
 Alpha virt. eigenvalues --    0.81299   0.82505   0.84291   0.85713   0.87401
 Alpha virt. eigenvalues --    1.16694   1.18364   1.21136   1.22885   2.56657

 Mulliken charges:
               1
     1  O   -0.747725
     2  H    0.379412
     3  H    0.368293
     4  O   -0.747087
     5  H    0.374489
     6  H    0.372618
 Sum of Mulliken charges =   0.00000

 Dipole moment (field-independent basis, Debye):
    X=             -1.8869    Y=             -4.2239    Z=              0.0000  Tot=              4.6262
 Quadrupole moment (field-independent basis, Debye-Ang):
   XX=             -9.4130   YY=             -5.2646   ZZ=            -14.9920
   XY=             -7.6779   XZ=              0.0000   YZ=             -0.0000

 3475\MP4DQ=-33.8930955\MP4SDQ=-33.8951191\CCSD=-33.8961708\CCSD(T)=-33
 Normal termination of Gaussian 16 at Sun Dec 10 06:51:35 2023.
