 Gaussian 16, Revision A.03,
 Gaussian 16:  ES64L-G16RevA.03 25-Dec-2016

 ------------------
 #p CCSD(T)/CEP-31G
 ------------------

 ------------
 H2O_H2O_1720
 ------------
 Symbolic Z-matrix:
 Charge =  0 Multiplicity = 1

                         Standard orientation:
 ---------------------------------------------------------------------
 Center     Atomic      Atomic             Coordinates (Angstroms)
 Number     Number       Type             X           Y           Z
 ---------------------------------------------------------------------
      1          8           0        0.026729    1.786916   -0.000000
      2          1           0        0.023420    0.804320   -0.000000
      3          1           0       -0.901685    2.108710   -0.000000
      4          8           0        0.026729   -1.613735    0.000000
      5          1           0        0.974988   -1.871246    0.000000
      6          1           0       -0.524392   -2.427228    0.000000
 ---------------------------------------------------------------------

 SCF Done:  E(RHF) =  -33.6601870829     A.U. after   11 cycles
 E2 =    -0.2286598600D+00 EUMP2 =    -0.33888846942861D+02
 CCSD(T)
 CCSD(T)= -0.33905686766D+02

 The electronic state is 1-A'.
 Alpha  occ. eigenvalues --   -1.37645  -1.32808  -0.73316  -0.68553  -0.58022
 Alpha  occ. eigenvalues --   -0.52655  -0.52326  -0.47488
 Alpha virt. eigenvalues --    0.17964   0.24658   0.28838   0.36995   0.77701
 Alpha virt. eigenvalues --    0.81451   0.83544   0.86424   0.88887   0.96247
 Alpha virt. eigenvalues --    1.15523   1.19396   1.21135   1.34951   2.50877

 Mulliken charges:
               1
     1  O   -0.776920
     2  H    0.411921
     3  H    0.362516
     4  O   -0.773892
     5  H    0.386525
     6  H    0.389850
 Sum of Mulliken charges =  -0.00000

 Dipole moment (field-independent basis, Debye):
    X=             -1.1997    Y=             -4.3200    Z=              0.0000  Tot=              4.4835
 Quadrupole moment (field-independent basis, Debye-Ang):
   XX=             -9.5046   YY=             -7.9693   ZZ=            -15.0055
   XY=             -5.6971   XZ=              0.0000   YZ=             -0.0000

 033\MP4DQ=-33.8999405\MP4SDQ=-33.9020287\CCSD=-33.9030434\CCSD(T)=-33.
 Normal termination of Gaussian 16 at Sun Dec 10 06:51:22 2023.
