 Gaussian 16, Revision A.03,
 Gaussian 16:  ES64L-G16RevA.03 25-Dec-2016

 ------------------
 #p CCSD(T)/CEP-31G
 ------------------

 ----------
 H2O_H2O_86
 ----------
 Symbolic Z-matrix:
 Charge =  0 Multiplicity = 1

                         Standard orientation:
 ---------------------------------------------------------------------
 Center     Atomic      Atomic             Coordinates (Angstroms)
 Number     Number       Type             X           Y           Z
 ---------------------------------------------------------------------
      1          8           0        0.059770    1.140962   -0.000000
      2          1           0        0.057084    0.158364   -0.000000
      3          1           0       -0.868848    1.462168    0.000000
      4          8           0        0.059770   -0.963692   -0.000000
      5          1           0        0.705623   -1.704218   -0.000000
      6          1           0       -0.850187   -1.334476    0.000000
 ---------------------------------------------------------------------

 SCF Done:  E(RHF) =  -33.5995953901     A.U. after   11 cycles
 E2 =    -0.2278081278D+00 EUMP2 =    -0.33827403517935D+02
 CCSD(T)
 CCSD(T)= -0.33841998556D+02

 The electronic state is 1-A'.
 Alpha  occ. eigenvalues --   -1.45910  -1.26942  -0.81161  -0.77500  -0.59025
 Alpha  occ. eigenvalues --   -0.54486  -0.43926  -0.40852
 Alpha virt. eigenvalues --    0.16076   0.24699   0.30355   0.61967   0.73201
 Alpha virt. eigenvalues --    0.73640   0.86928   0.91808   0.92464   1.08521
 Alpha virt. eigenvalues --    1.11310   1.17586   1.29194   1.35166   2.99215

 Mulliken charges:
               1
     1  O   -0.736357
     2  H    0.306768
     3  H    0.299427
     4  O   -0.777071
     5  H    0.476660
     6  H    0.430573
 Sum of Mulliken charges =   0.00000

 Dipole moment (field-independent basis, Debye):
    X=             -2.3896    Y=             -5.6819    Z=              0.0000  Tot=              6.1639
 Quadrupole moment (field-independent basis, Debye-Ang):
   XX=             -9.5623   YY=            -10.7049   ZZ=            -14.9235
   XY=             -3.2362   XZ=             -0.0000   YZ=              0.0000

 \MP4DQ=-33.8357478\MP4SDQ=-33.8381479\CCSD=-33.8387382\CCSD(T)=-33.841
 Normal termination of Gaussian 16 at Sun Dec 10 06:19:43 2023.
