 Gaussian 16, Revision A.03,
 Gaussian 16:  ES64L-G16RevA.03 25-Dec-2016

 ------------------
 #p CCSD(T)/CEP-31G
 ------------------

 -----------
 H2O_H2O_559
 -----------
 Symbolic Z-matrix:
 Charge =  0 Multiplicity = 1

                         Standard orientation:
 ---------------------------------------------------------------------
 Center     Atomic      Atomic             Coordinates (Angstroms)
 Number     Number       Type             X           Y           Z
 ---------------------------------------------------------------------
      1          8           0        0.066831    1.328101    0.000000
      2          1           0        0.065041    0.345501    0.000000
      3          1           0       -0.862079    1.648460    0.000000
      4          8           0        0.066831   -1.155107   -0.000000
      5          1           0        0.611247   -1.973103   -0.000000
      6          1           0       -0.883513   -1.404813   -0.000000
 ---------------------------------------------------------------------

 SCF Done:  E(RHF) =  -33.6522090661     A.U. after   11 cycles
 E2 =    -0.2289388041D+00 EUMP2 =    -0.33881147870156D+02
 CCSD(T)
 CCSD(T)= -0.33897033979D+02

 The electronic state is 1-A'.
 Alpha  occ. eigenvalues --   -1.40955  -1.29955  -0.76728  -0.70515  -0.58507
 Alpha  occ. eigenvalues --   -0.55436  -0.48860  -0.44386
 Alpha virt. eigenvalues --    0.16872   0.26347   0.28052   0.53127   0.74013
 Alpha virt. eigenvalues --    0.75279   0.85487   0.88745   0.96495   1.05574
 Alpha virt. eigenvalues --    1.15427   1.19385   1.23531   1.36075   2.68813

 Mulliken charges:
               1
     1  O   -0.760178
     2  H    0.413816
     3  H    0.328260
     4  O   -0.833539
     5  H    0.452169
     6  H    0.399473
 Sum of Mulliken charges =   0.00000

 Dipole moment (field-independent basis, Debye):
    X=             -2.8182    Y=             -4.8959    Z=             -0.0000  Tot=              5.6491
 Quadrupole moment (field-independent basis, Debye-Ang):
   XX=             -9.8691   YY=             -9.5613   ZZ=            -15.0028
   XY=             -3.5098   XZ=              0.0000   YZ=              0.0000

 784\MP4DQ=-33.8910148\MP4SDQ=-33.8932414\CCSD=-33.8940664\CCSD(T)=-33.
 Normal termination of Gaussian 16 at Sun Dec 10 06:29:03 2023.
