 Gaussian 16, Revision A.03,
 Gaussian 16:  ES64L-G16RevA.03 25-Dec-2016

 ------------------
 #p CCSD(T)/CEP-31G
 ------------------

 -----------
 H2O_H2O_547
 -----------
 Symbolic Z-matrix:
 Charge =  0 Multiplicity = 1

                         Standard orientation:
 ---------------------------------------------------------------------
 Center     Atomic      Atomic             Coordinates (Angstroms)
 Number     Number       Type             X           Y           Z
 ---------------------------------------------------------------------
      1          8           0       -0.020056    1.314892    0.000000
      2          1           0       -0.015020    0.332303    0.000000
      3          1           0        0.907791    1.638319    0.000000
      4          8           0       -0.020056   -1.147882    0.000000
      5          1           0       -0.993581   -1.281129    0.000000
      6          1           0        0.421712   -2.025576    0.000000
 ---------------------------------------------------------------------

 SCF Done:  E(RHF) =  -33.6529854786     A.U. after   11 cycles
 E2 =    -0.2282667072D+00 EUMP2 =    -0.33881252185727D+02
 CCSD(T)
 CCSD(T)= -0.33897098613D+02

 The electronic state is 1-A'.
 Alpha  occ. eigenvalues --   -1.40976  -1.29705  -0.77180  -0.69843  -0.59013
 Alpha  occ. eigenvalues --   -0.55422  -0.48574  -0.44241
 Alpha virt. eigenvalues --    0.17313   0.26580   0.28238   0.53592   0.74026
 Alpha virt. eigenvalues --    0.75749   0.87022   0.88903   0.93785   1.04155
 Alpha virt. eigenvalues --    1.15474   1.21746   1.26772   1.38011   2.69234

 Mulliken charges:
               1
     1  O   -0.768543
     2  H    0.392248
     3  H    0.346187
     4  O   -0.838276
     5  H    0.414333
     6  H    0.454050
 Sum of Mulliken charges =  -0.00000

 Dipole moment (field-independent basis, Debye):
    X=              0.8926    Y=             -4.7769    Z=              0.0000  Tot=              4.8596
 Quadrupole moment (field-independent basis, Debye-Ang):
   XX=             -9.5998   YY=             -9.5523   ZZ=            -15.0069
   XY=              4.2898   XZ=              0.0000   YZ=              0.0000

 704\MP4DQ=-33.8911264\MP4SDQ=-33.8933246\CCSD=-33.894158\CCSD(T)=-33.8
 Normal termination of Gaussian 16 at Sun Dec 10 06:28:49 2023.
