 Gaussian 16, Revision A.03,
 Gaussian 16:  ES64L-G16RevA.03 25-Dec-2016

 ------------------
 #p CCSD(T)/CEP-31G
 ------------------

 ------------
 H2O_H2O_1321
 ------------
 Symbolic Z-matrix:
 Charge =  0 Multiplicity = 1

                         Standard orientation:
 ---------------------------------------------------------------------
 Center     Atomic      Atomic             Coordinates (Angstroms)
 Number     Number       Type             X           Y           Z
 ---------------------------------------------------------------------
      1          8           0       -0.023316    1.625818    0.000000
      2          1           0       -0.019474    0.643224    0.000000
      3          1           0        0.904924    1.948116    0.000000
      4          8           0       -0.023316   -1.455490    0.000000
      5          1           0       -0.986280   -1.650951    0.000000
      6          1           0        0.473880   -2.303017    0.000000
 ---------------------------------------------------------------------

 SCF Done:  E(RHF) =  -33.6620277227     A.U. after   11 cycles
 E2 =    -0.2287709541D+00 EUMP2 =    -0.33890798676806D+02
 CCSD(T)
 CCSD(T)= -0.33907531411D+02

 The electronic state is 1-A'.
 Alpha  occ. eigenvalues --   -1.38230  -1.32151  -0.73955  -0.68188  -0.58796
 Alpha  occ. eigenvalues --   -0.52931  -0.51905  -0.46840
 Alpha virt. eigenvalues --    0.17784   0.25669   0.28394   0.40770   0.76546
 Alpha virt. eigenvalues --    0.79510   0.84888   0.86437   0.90442   1.04518
 Alpha virt. eigenvalues --    1.15628   1.18022   1.22097   1.36008   2.50649

 Mulliken charges:
               1
     1  O   -0.783729
     2  H    0.420440
     3  H    0.360050
     4  O   -0.792510
     5  H    0.391941
     6  H    0.403808
 Sum of Mulliken charges =  -0.00000

 Dipole moment (field-independent basis, Debye):
    X=              1.0435    Y=             -4.3665    Z=              0.0000  Tot=              4.4895
 Quadrupole moment (field-independent basis, Debye-Ang):
   XX=             -9.5623   YY=             -8.4495   ZZ=            -15.0113
   XY=              5.3082   XZ=              0.0000   YZ=              0.0000

 0119\MP4DQ=-33.9017269\MP4SDQ=-33.9038368\CCSD=-33.9048276\CCSD(T)=-33
 Normal termination of Gaussian 16 at Sun Dec 10 06:43:31 2023.
