 Gaussian 16, Revision A.03,
 Gaussian 16:  ES64L-G16RevA.03 25-Dec-2016

 ------------------
 #p CCSD(T)/CEP-31G
 ------------------

 ------------
 H2O_H2O_4779
 ------------
 Symbolic Z-matrix:
 Charge =  0 Multiplicity = 1

                         Standard orientation:
 ---------------------------------------------------------------------
 Center     Atomic      Atomic             Coordinates (Angstroms)
 Number     Number       Type             X           Y           Z
 ---------------------------------------------------------------------
      1          8           0        0.082797    3.003322   -0.000000
      2          1           0        0.082502    2.020720   -0.000000
      3          1           0       -0.846601    3.322266   -0.000000
      4          8           0        0.082797   -2.848789    0.000000
      5          1           0        0.336828   -3.797986    0.000000
      6          1           0       -0.897482   -2.781258    0.000000
 ---------------------------------------------------------------------

 SCF Done:  E(RHF) =  -33.6523649753     A.U. after   11 cycles
 E2 =    -0.2283424690D+00 EUMP2 =    -0.33880707444302D+02
 CCSD(T)
 CCSD(T)= -0.33897692125D+02

 The electronic state is 1-A'.
 Alpha  occ. eigenvalues --   -1.36236  -1.35011  -0.71880  -0.70633  -0.56006
 Alpha  occ. eigenvalues --   -0.54759  -0.50815  -0.49589
 Alpha virt. eigenvalues --    0.19545   0.20837   0.29813   0.31088   0.79743
 Alpha virt. eigenvalues --    0.80947   0.82693   0.83958   0.85787   0.87111
 Alpha virt. eigenvalues --    1.16692   1.17915   1.21142   1.22409   2.56678

 Mulliken charges:
               1
     1  O   -0.743415
     2  H    0.375798
     3  H    0.367615
     4  O   -0.743528
     5  H    0.374193
     6  H    0.369337
 Sum of Mulliken charges =  -0.00000

 Dipole moment (field-independent basis, Debye):
    X=             -3.8100    Y=             -3.6212    Z=              0.0000  Tot=              5.2563
 Quadrupole moment (field-independent basis, Debye-Ang):
   XX=            -10.6358   YY=             -7.3658   ZZ=            -14.9894
   XY=             -3.7456   XZ=              0.0000   YZ=             -0.0000

 86\MP4DQ=-33.8920515\MP4SDQ=-33.8940777\CCSD=-33.895132\CCSD(T)=-33.89
 Normal termination of Gaussian 16 at Sun Dec 10 06:59:02 2023.
