 Gaussian 16, Revision A.03,
 Gaussian 16:  ES64L-G16RevA.03 25-Dec-2016

 ------------------
 #p CCSD(T)/CEP-31G
 ------------------

 ------------
 H2O_H2O_3391
 ------------
 Symbolic Z-matrix:
 Charge =  0 Multiplicity = 1

                         Standard orientation:
 ---------------------------------------------------------------------
 Center     Atomic      Atomic             Coordinates (Angstroms)
 Number     Number       Type             X           Y           Z
 ---------------------------------------------------------------------
      1          8           0        0.041133    2.458695   -0.000000
      2          1           0        0.039276    1.476095   -0.000000
      3          1           0       -0.887756    2.779117   -0.000000
      4          8           0        0.041133   -2.278763    0.000000
      5          1           0        0.891161   -2.771671    0.000000
      6          1           0       -0.700806   -2.922994    0.000000
 ---------------------------------------------------------------------

 SCF Done:  E(RHF) =  -33.6546510602     A.U. after   11 cycles
 E2 =    -0.2282923316D+00 EUMP2 =    -0.33882943391811D+02
 CCSD(T)
 CCSD(T)= -0.33899863558D+02

 The electronic state is 1-A'.
 Alpha  occ. eigenvalues --   -1.36550  -1.34221  -0.72193  -0.69848  -0.56452
 Alpha  occ. eigenvalues --   -0.54038  -0.51163  -0.48835
 Alpha virt. eigenvalues --    0.19151   0.21909   0.29624   0.32092   0.79401
 Alpha virt. eigenvalues --    0.81654   0.82235   0.84651   0.85423   0.87803
 Alpha virt. eigenvalues --    1.16472   1.18936   1.20896   1.24132   2.56405

 Mulliken charges:
               1
     1  O   -0.752276
     2  H    0.385082
     3  H    0.366828
     4  O   -0.750735
     5  H    0.376868
     6  H    0.374233
 Sum of Mulliken charges =  -0.00000

 Dipole moment (field-independent basis, Debye):
    X=             -1.8794    Y=             -4.2676    Z=              0.0000  Tot=              4.6631
 Quadrupole moment (field-independent basis, Debye-Ang):
   XX=             -9.4100   YY=             -6.1394   ZZ=            -14.9944
   XY=             -6.7407   XZ=              0.0000   YZ=             -0.0000

 4783\MP4DQ=-33.8942309\MP4SDQ=-33.8962592\CCSD=-33.8973038\CCSD(T)=-33
 Normal termination of Gaussian 16 at Sun Dec 10 06:34:05 2023.
