 Gaussian 16, Revision A.03,
 Gaussian 16:  ES64L-G16RevA.03 25-Dec-2016

 ------------------
 #p CCSD(T)/CEP-31G
 ------------------

 ------------
 H2O_H2O_1080
 ------------
 Symbolic Z-matrix:
 Charge =  0 Multiplicity = 1

                         Standard orientation:
 ---------------------------------------------------------------------
 Center     Atomic      Atomic             Coordinates (Angstroms)
 Number     Number       Type             X           Y           Z
 ---------------------------------------------------------------------
      1          8           0        0.079874   -1.529914    0.000000
      2          1           0        0.079108   -0.547313    0.000000
      3          1           0       -0.849370   -1.849305    0.000000
      4          8           0        0.079874    1.370898    0.000000
      5          1           0        0.394996    2.301599    0.000000
      6          1           0       -0.902720    1.367152    0.000000
 ---------------------------------------------------------------------

 SCF Done:  E(RHF) =  -33.6567403716     A.U. after   11 cycles
 E2 =    -0.2290306260D+00 EUMP2 =    -0.33885770997575D+02
 CCSD(T)
 CCSD(T)= -0.33902581606D+02

 The electronic state is 1-A'.
 Alpha  occ. eigenvalues --   -1.38927  -1.32403  -0.74927  -0.68469  -0.58977
 Alpha  occ. eigenvalues --   -0.53505  -0.51933  -0.46953
 Alpha virt. eigenvalues --    0.17051   0.25626   0.27704   0.42846   0.75606
 Alpha virt. eigenvalues --    0.78997   0.85124   0.85494   0.92416   1.10879
 Alpha virt. eigenvalues --    1.16516   1.19222   1.22205   1.37526   2.51512

 Mulliken charges:
               1
     1  O   -0.761703
     2  H    0.410206
     3  H    0.344810
     4  O   -0.791679
     5  H    0.421993
     6  H    0.376373
 Sum of Mulliken charges =  -0.00000

 Dipole moment (field-independent basis, Debye):
    X=             -3.5220    Y=              4.2032    Z=              0.0000  Tot=              5.4838
 Quadrupole moment (field-independent basis, Debye-Ang):
   XX=            -10.5153   YY=             -8.9156   ZZ=            -15.0013
   XY=              3.1966   XZ=              0.0000   YZ=              0.0000

 805\MP4DQ=-33.8966658\MP4SDQ=-33.8988481\CCSD=-33.8998214\CCSD(T)=-33.
 Normal termination of Gaussian 16 at Sun Dec 10 06:38:49 2023.
