 Gaussian 16, Revision A.03,
 Gaussian 16:  ES64L-G16RevA.03 25-Dec-2016

 ------------------
 #p CCSD(T)/CEP-31G
 ------------------

 ------------
 H2O_H2O_1595
 ------------
 Symbolic Z-matrix:
 Charge =  0 Multiplicity = 1

                         Standard orientation:
 ---------------------------------------------------------------------
 Center     Atomic      Atomic             Coordinates (Angstroms)
 Number     Number       Type             X           Y           Z
 ---------------------------------------------------------------------
      1          8           0        0.026738    1.737054   -0.000000
      2          1           0        0.023329    0.754458   -0.000000
      3          1           0       -0.901644    2.058943    0.000000
      4          8           0        0.026738   -1.563879   -0.000000
      5          1           0        0.974970   -1.821485   -0.000000
      6          1           0       -0.524466   -2.377316    0.000000
 ---------------------------------------------------------------------

 SCF Done:  E(RHF) =  -33.6608631670     A.U. after   11 cycles
 E2 =    -0.2287105466D+00 EUMP2 =    -0.33889573713593D+02
 CCSD(T)
 CCSD(T)= -0.33906386960D+02

 The electronic state is 1-A'.
 Alpha  occ. eigenvalues --   -1.37801  -1.32603  -0.73478  -0.68407  -0.58252
 Alpha  occ. eigenvalues --   -0.52491  -0.52432  -0.47288
 Alpha virt. eigenvalues --    0.17922   0.24969   0.28720   0.38043   0.77383
 Alpha virt. eigenvalues --    0.80882   0.83924   0.86458   0.89393   0.98554
 Alpha virt. eigenvalues --    1.15433   1.19076   1.21390   1.35238   2.50459

 Mulliken charges:
               1
     1  O   -0.779582
     2  H    0.415575
     3  H    0.361533
     4  O   -0.778807
     5  H    0.388220
     6  H    0.393061
 Sum of Mulliken charges =  -0.00000

 Dipole moment (field-independent basis, Debye):
    X=             -1.1985    Y=             -4.3508    Z=              0.0000  Tot=              4.5129
 Quadrupole moment (field-independent basis, Debye-Ang):
   XX=             -9.5012   YY=             -8.0967   ZZ=            -15.0073
   XY=             -5.5355   XZ=             -0.0000   YZ=              0.0000

 8939\MP4DQ=-33.9006247\MP4SDQ=-33.9027178\CCSD=-33.903727\CCSD(T)=-33.
 Normal termination of Gaussian 16 at Sun Dec 10 06:48:59 2023.
