 Gaussian 16, Revision A.03,
 Gaussian 16:  ES64L-G16RevA.03 25-Dec-2016

 ------------------
 #p CCSD(T)/CEP-31G
 ------------------

 ------------
 H2O_H2O_3280
 ------------
 Symbolic Z-matrix:
 Charge =  0 Multiplicity = 1

                         Standard orientation:
 ---------------------------------------------------------------------
 Center     Atomic      Atomic             Coordinates (Angstroms)
 Number     Number       Type             X           Y           Z
 ---------------------------------------------------------------------
      1          8           0        0.079851    2.407468   -0.000000
      2          1           0        0.079373    1.424867   -0.000000
      3          1           0       -0.849487    2.726586   -0.000000
      4          8           0        0.079851   -2.248404    0.000000
      5          1           0        0.395246   -3.179012    0.000000
      6          1           0       -0.902745   -2.244948    0.000000
 ---------------------------------------------------------------------

 SCF Done:  E(RHF) =  -33.6533443642     A.U. after   11 cycles
 E2 =    -0.2283556983D+00 EUMP2 =    -0.33881700062487D+02
 CCSD(T)
 CCSD(T)= -0.33898659566D+02

 The electronic state is 1-A'.
 Alpha  occ. eigenvalues --   -1.36636  -1.34554  -0.72294  -0.70159  -0.56466
 Alpha  occ. eigenvalues --   -0.54318  -0.51227  -0.49141
 Alpha virt. eigenvalues --    0.18693   0.21716   0.29424   0.31739   0.79348
 Alpha virt. eigenvalues --    0.81374   0.82310   0.84397   0.85343   0.87745
 Alpha virt. eigenvalues --    1.16259   1.18646   1.20718   1.24420   2.56329

 Mulliken charges:
               1
     1  O   -0.747312
     2  H    0.382309
     3  H    0.364665
     4  O   -0.747228
     5  H    0.378032
     6  H    0.369534
 Sum of Mulliken charges =  -0.00000

 Dipole moment (field-independent basis, Debye):
    X=             -3.6543    Y=             -3.7824    Z=              0.0000  Tot=              5.2593
 Quadrupole moment (field-independent basis, Debye-Ang):
   XX=            -10.4816   YY=             -7.6385   ZZ=            -14.9912
   XY=             -3.7429   XZ=              0.0000   YZ=             -0.0000

 2687\MP4DQ=-33.8930147\MP4SDQ=-33.8950473\CCSD=-33.8960939\CCSD(T)=-33
 Normal termination of Gaussian 16 at Sun Dec 10 06:32:06 2023.
