 Gaussian 16, Revision A.03,
 Gaussian 16:  ES64L-G16RevA.03 25-Dec-2016

 ------------------
 #p CCSD(T)/CEP-31G
 ------------------

 ------------
 H2O_H2O_3930
 ------------
 Symbolic Z-matrix:
 Charge =  0 Multiplicity = 1

                         Standard orientation:
 ---------------------------------------------------------------------
 Center     Atomic      Atomic             Coordinates (Angstroms)
 Number     Number       Type             X           Y           Z
 ---------------------------------------------------------------------
      1          8           0        0.079847    2.666742   -0.000000
      2          1           0        0.079417    1.684141   -0.000000
      3          1           0       -0.849507    2.985815   -0.000000
      4          8           0        0.079847   -2.507671    0.000000
      5          1           0        0.395287   -3.438263    0.000000
      6          1           0       -0.902749   -2.504262    0.000000
 ---------------------------------------------------------------------

 SCF Done:  E(RHF) =  -33.6528290534     A.U. after   11 cycles
 E2 =    -0.2283316136D+00 EUMP2 =    -0.33881160666999D+02
 CCSD(T)
 CCSD(T)= -0.33898132252D+02

 The electronic state is 1-A'.
 Alpha  occ. eigenvalues --   -1.36418  -1.34771  -0.72068  -0.70386  -0.56217
 Alpha  occ. eigenvalues --   -0.54528  -0.51003  -0.49354
 Alpha virt. eigenvalues --    0.19260   0.21209   0.29642   0.31410   0.79562
 Alpha virt. eigenvalues --    0.81170   0.82417   0.84186   0.85543   0.87407
 Alpha virt. eigenvalues --    1.16515   1.18216   1.20949   1.22917   2.56451

 Mulliken charges:
               1
     1  O   -0.745247
     2  H    0.378909
     3  H    0.366280
     4  O   -0.745350
     5  H    0.375920
     6  H    0.369487
 Sum of Mulliken charges =  -0.00000

 Dipole moment (field-independent basis, Debye):
    X=             -3.6645    Y=             -3.7504    Z=              0.0000  Tot=              5.2435
 Quadrupole moment (field-independent basis, Debye-Ang):
   XX=            -10.4775   YY=             -7.3254   ZZ=            -14.9903
   XY=             -3.9040   XZ=              0.0000   YZ=             -0.0000

 85\MP4DQ=-33.8924931\MP4SDQ=-33.8945196\CCSD=-33.8955715\CCSD(T)=-33.8
 Normal termination of Gaussian 16 at Sun Dec 10 06:43:43 2023.
