 Gaussian 16, Revision A.03,
 Gaussian 16:  ES64L-G16RevA.03 25-Dec-2016

 ------------------
 #p CCSD(T)/CEP-31G
 ------------------

 -----------
 H2O_H2O_255
 -----------
 Symbolic Z-matrix:
 Charge =  0 Multiplicity = 1

                         Standard orientation:
 ---------------------------------------------------------------------
 Center     Atomic      Atomic             Coordinates (Angstroms)
 Number     Number       Type             X           Y           Z
 ---------------------------------------------------------------------
      1          8           0        0.079892   -1.200823    0.000000
      2          1           0        0.078901   -0.218222    0.000000
      3          1           0       -0.849279   -1.520426    0.000000
      4          8           0        0.079892    1.041843    0.000000
      5          1           0        0.394801    1.972615    0.000000
      6          1           0       -0.902701    1.037872    0.000000
 ---------------------------------------------------------------------

 SCF Done:  E(RHF) =  -33.6198035959     A.U. after   11 cycles
 E2 =    -0.2283347394D+00 EUMP2 =    -0.33848138335292D+02
 CCSD(T)
 CCSD(T)= -0.33863635705D+02

 The electronic state is 1-A'.
 Alpha  occ. eigenvalues --   -1.43912  -1.29260  -0.81072  -0.72009  -0.57374
 Alpha  occ. eigenvalues --   -0.57011  -0.47449  -0.43426
 Alpha virt. eigenvalues --    0.16226   0.24360   0.29272   0.58438   0.73280
 Alpha virt. eigenvalues --    0.75277   0.87599   0.90012   0.96939   1.08117
 Alpha virt. eigenvalues --    1.13134   1.23407   1.25418   1.39496   2.90944

 Mulliken charges:
               1
     1  O   -0.711601
     2  H    0.324470
     3  H    0.312124
     4  O   -0.809946
     5  H    0.488463
     6  H    0.396491
 Sum of Mulliken charges =  -0.00000

 Dipole moment (field-independent basis, Debye):
    X=             -3.3020    Y=              4.9442    Z=              0.0000  Tot=              5.9454
 Quadrupole moment (field-independent basis, Debye-Ang):
   XX=            -10.4900   YY=            -10.0996   ZZ=            -14.9487
   XY=              2.9164   XZ=              0.0000   YZ=              0.0000

 795\MP4DQ=-33.8573875\MP4SDQ=-33.8597928\CCSD=-33.8605209\CCSD(T)=-33.
 Normal termination of Gaussian 16 at Sun Dec 10 06:23:04 2023.
