 Gaussian 16, Revision A.03,
 Gaussian 16:  ES64L-G16RevA.03 25-Dec-2016

 ------------------
 #p CCSD(T)/CEP-31G
 ------------------

 ------------
 H2O_H2O_1731
 ------------
 Symbolic Z-matrix:
 Charge =  0 Multiplicity = 1

                         Standard orientation:
 ---------------------------------------------------------------------
 Center     Atomic      Atomic             Coordinates (Angstroms)
 Number     Number       Type             X           Y           Z
 ---------------------------------------------------------------------
      1          8           0        0.076775    1.791444    0.000000
      2          1           0        0.075971    0.808843    0.000000
      3          1           0       -0.852458    2.110871    0.000000
      4          8           0        0.076775   -1.628267   -0.000000
      5          1           0        0.452058   -2.536379   -0.000000
      6          1           0       -0.903964   -1.688757   -0.000000
 ---------------------------------------------------------------------

 SCF Done:  E(RHF) =  -33.6568079321     A.U. after   11 cycles
 E2 =    -0.2287981494D+00 EUMP2 =    -0.33885606081449D+02
 CCSD(T)
 CCSD(T)= -0.33902557455D+02

 The electronic state is 1-A'.
 Alpha  occ. eigenvalues --   -1.37730  -1.33338  -0.73465  -0.68953  -0.57860
 Alpha  occ. eigenvalues --   -0.53077  -0.52350  -0.47942
 Alpha virt. eigenvalues --    0.17458   0.24245   0.28579   0.36239   0.77682
 Alpha virt. eigenvalues --    0.81860   0.83169   0.85247   0.89509   0.97475
 Alpha virt. eigenvalues --    1.15181   1.18983   1.20878   1.36898   2.51249

 Mulliken charges:
               1
     1  O   -0.763700
     2  H    0.405962
     3  H    0.355177
     4  O   -0.765001
     5  H    0.394542
     6  H    0.373021
 Sum of Mulliken charges =  -0.00000

 Dipole moment (field-independent basis, Debye):
    X=             -3.4542    Y=             -4.0824    Z=             -0.0000  Tot=              5.3477
 Quadrupole moment (field-independent basis, Debye-Ang):
   XX=            -10.3382   YY=             -8.2966   ZZ=            -14.9976
   XY=             -3.5526   XZ=             -0.0000   YZ=              0.0000

 523\MP4DQ=-33.8967802\MP4SDQ=-33.8988895\CCSD=-33.899909\CCSD(T)=-33.9
 Normal termination of Gaussian 16 at Sun Dec 10 06:51:34 2023.
