 Gaussian 16, Revision A.03,
 Gaussian 16:  ES64L-G16RevA.03 25-Dec-2016

 ------------------
 #p CCSD(T)/CEP-31G
 ------------------

 ------------
 H2O_H2O_1509
 ------------
 Symbolic Z-matrix:
 Charge =  0 Multiplicity = 1

                         Standard orientation:
 ---------------------------------------------------------------------
 Center     Atomic      Atomic             Coordinates (Angstroms)
 Number     Number       Type             X           Y           Z
 ---------------------------------------------------------------------
      1          8           0        0.066795    1.707062   -0.000000
      2          1           0        0.065423    0.724462   -0.000000
      3          1           0       -0.862253    2.027026   -0.000000
      4          8           0        0.066795   -1.534011    0.000000
      5          1           0        0.611558   -2.351776    0.000000
      6          1           0       -0.883443   -1.784122    0.000000
 ---------------------------------------------------------------------

 SCF Done:  E(RHF) =  -33.6592620170     A.U. after   11 cycles
 E2 =    -0.2288810991D+00 EUMP2 =    -0.33888143116155D+02
 CCSD(T)
 CCSD(T)= -0.33904989373D+02

 The electronic state is 1-A'.
 Alpha  occ. eigenvalues --   -1.37993  -1.32647  -0.73692  -0.68422  -0.58333
 Alpha  occ. eigenvalues --   -0.52654  -0.52379  -0.47274
 Alpha virt. eigenvalues --    0.17664   0.24933   0.28452   0.38573   0.77127
 Alpha virt. eigenvalues --    0.80787   0.84102   0.85528   0.91010   0.99824
 Alpha virt. eigenvalues --    1.15037   1.19135   1.21060   1.35650   2.49977

 Mulliken charges:
               1
     1  O   -0.772785
     2  H    0.418074
     3  H    0.352803
     4  O   -0.777235
     5  H    0.400342
     6  H    0.378801
 Sum of Mulliken charges =  -0.00000

 Dipole moment (field-independent basis, Debye):
    X=             -2.9791    Y=             -4.3799    Z=              0.0000  Tot=              5.2970
 Quadrupole moment (field-independent basis, Debye-Ang):
   XX=             -9.8968   YY=             -8.1999   ZZ=            -15.0041
   XY=             -3.9877   XZ=             -0.0000   YZ=             -0.0000

 85\MP4DQ=-33.8991964\MP4SDQ=-33.9013041\CCSD=-33.9023112\CCSD(T)=-33.9
 Normal termination of Gaussian 16 at Sun Dec 10 06:47:15 2023.
