 Gaussian 16, Revision A.03,
 Gaussian 16:  ES64L-G16RevA.03 25-Dec-2016

 ------------------
 #p CCSD(T)/CEP-31G
 ------------------

 ------------
 H2O_H2O_3827
 ------------
 Symbolic Z-matrix:
 Charge =  0 Multiplicity = 1

                         Standard orientation:
 ---------------------------------------------------------------------
 Center     Atomic      Atomic             Coordinates (Angstroms)
 Number     Number       Type             X           Y           Z
 ---------------------------------------------------------------------
      1          8           0        0.088230   -2.618843    0.000000
      2          1           0        0.088073   -1.636242    0.000000
      3          1           0       -0.841212   -2.937658    0.000000
      4          8           0        0.088230    2.474520    0.000000
      5          1           0        0.216330    3.448736    0.000000
      6          1           0       -0.874874    2.279749    0.000000
 ---------------------------------------------------------------------

 SCF Done:  E(RHF) =  -33.6524046089     A.U. after   11 cycles
 E2 =    -0.2283534353D+00 EUMP2 =    -0.33880758044160D+02
 CCSD(T)
 CCSD(T)= -0.33897743038D+02

 The electronic state is 1-A'.
 Alpha  occ. eigenvalues --   -1.36463  -1.34942  -0.72117  -0.70554  -0.56241
 Alpha  occ. eigenvalues --   -0.54684  -0.51041  -0.49517
 Alpha virt. eigenvalues --    0.19023   0.21140   0.29589   0.31198   0.79529
 Alpha virt. eigenvalues --    0.81016   0.82417   0.84028   0.85493   0.87315
 Alpha virt. eigenvalues --    1.16393   1.18084   1.20915   1.22823   2.56158

 Mulliken charges:
               1
     1  O   -0.743614
     2  H    0.377410
     3  H    0.366144
     4  O   -0.744039
     5  H    0.376061
     6  H    0.368037
 Sum of Mulliken charges =   0.00000

 Dipole moment (field-independent basis, Debye):
    X=             -4.0500    Y=              3.4066    Z=              0.0000  Tot=              5.2922
 Quadrupole moment (field-independent basis, Debye-Ang):
   XX=            -10.9696   YY=             -8.6080   ZZ=            -14.9892
   XY=              2.9305   XZ=              0.0000   YZ=              0.0000

 3\MP4DQ=-33.8920997\MP4SDQ=-33.8941277\CCSD=-33.8951802\CCSD(T)=-33.89
 Normal termination of Gaussian 16 at Sun Dec 10 06:41:52 2023.
