 Gaussian 16, Revision A.03,
 Gaussian 16:  ES64L-G16RevA.03 25-Dec-2016

 ------------------
 #p CCSD(T)/CEP-31G
 ------------------

 ------------
 H2O_H2O_1110
 ------------
 Symbolic Z-matrix:
 Charge =  0 Multiplicity = 1

                         Standard orientation:
 ---------------------------------------------------------------------
 Center     Atomic      Atomic             Coordinates (Angstroms)
 Number     Number       Type             X           Y           Z
 ---------------------------------------------------------------------
      1          8           0        0.063291    1.548805    0.000000
      2          1           0        0.061565    0.566205    0.000000
      3          1           0       -0.865641    1.869103    0.000000
      4          8           0        0.063291   -1.373376   -0.000000
      5          1           0        0.660091   -2.153976   -0.000000
      6          1           0       -0.868665   -1.684764   -0.000000
 ---------------------------------------------------------------------

 SCF Done:  E(RHF) =  -33.6610518974     A.U. after   11 cycles
 E2 =    -0.2290715050D+00 EUMP2 =    -0.33890123402375D+02
 CCSD(T)
 CCSD(T)= -0.33906739148D+02

 The electronic state is 1-A'.
 Alpha  occ. eigenvalues --   -1.38747  -1.31699  -0.74431  -0.68199  -0.59082
 Alpha  occ. eigenvalues --   -0.53438  -0.51279  -0.46312
 Alpha virt. eigenvalues --    0.17487   0.26036   0.27958   0.43480   0.75832
 Alpha virt. eigenvalues --    0.78310   0.85395   0.85828   0.93834   1.04156
 Alpha virt. eigenvalues --    1.15104   1.18578   1.21829   1.35672   2.51498

 Mulliken charges:
               1
     1  O   -0.778014
     2  H    0.430241
     3  H    0.346120
     4  O   -0.800634
     5  H    0.415609
     6  H    0.386678
 Sum of Mulliken charges =   0.00000

 Dipole moment (field-independent basis, Debye):
    X=             -2.7741    Y=             -4.5791    Z=             -0.0000  Tot=              5.3538
 Quadrupole moment (field-independent basis, Debye-Ang):
   XX=             -9.7635   YY=             -8.6491   ZZ=            -15.0115
   XY=             -3.9190   XZ=             -0.0000   YZ=              0.0000

 197\MP4DQ=-33.9008834\MP4SDQ=-33.9030126\CCSD=-33.9039751\CCSD(T)=-33.
 Normal termination of Gaussian 16 at Sun Dec 10 06:39:23 2023.
