 Gaussian 16, Revision A.03,
 Gaussian 16:  ES64L-G16RevA.03 25-Dec-2016

 ------------------
 #p CCSD(T)/CEP-31G
 ------------------

 ------------
 H2O_H2O_3730
 ------------
 Symbolic Z-matrix:
 Charge =  0 Multiplicity = 1

                         Standard orientation:
 ---------------------------------------------------------------------
 Center     Atomic      Atomic             Coordinates (Angstroms)
 Number     Number       Type             X           Y           Z
 ---------------------------------------------------------------------
      1          8           0        0.079848    2.586965    0.000000
      2          1           0        0.079405    1.604364    0.000000
      3          1           0       -0.849501    2.906051    0.000000
      4          8           0        0.079848   -2.427896   -0.000000
      5          1           0        0.395276   -3.358494   -0.000000
      6          1           0       -0.902747   -2.424474   -0.000000
 ---------------------------------------------------------------------

 SCF Done:  E(RHF) =  -33.6529589448     A.U. after   11 cycles
 E2 =    -0.2283339689D+00 EUMP2 =    -0.33881292913723D+02
 CCSD(T)
 CCSD(T)= -0.33898261021D+02

 The electronic state is 1-A'.
 Alpha  occ. eigenvalues --   -1.36476  -1.34712  -0.72128  -0.70324  -0.56283
 Alpha  occ. eigenvalues --   -0.54471  -0.51062  -0.49296
 Alpha virt. eigenvalues --    0.19125   0.21334   0.29583   0.31495   0.79505
 Alpha virt. eigenvalues --    0.81225   0.82346   0.84244   0.85473   0.87500
 Alpha virt. eigenvalues --    1.16451   1.18317   1.20883   1.23189   2.56401

 Mulliken charges:
               1
     1  O   -0.745755
     2  H    0.379796
     3  H    0.365854
     4  O   -0.745852
     5  H    0.376479
     6  H    0.369478
 Sum of Mulliken charges =   0.00000

 Dipole moment (field-independent basis, Debye):
    X=             -3.6618    Y=             -3.7584    Z=             -0.0000  Tot=              5.2473
 Quadrupole moment (field-independent basis, Debye-Ang):
   XX=            -10.4786   YY=             -7.4222   ZZ=            -14.9905
   XY=             -3.8546   XZ=             -0.0000   YZ=              0.0000

 8762\MP4DQ=-33.8926212\MP4SDQ=-33.8946486\CCSD=-33.8956995\CCSD(T)=-33
 Normal termination of Gaussian 16 at Sun Dec 10 06:40:07 2023.
