 Gaussian 16, Revision A.03,
 Gaussian 16:  ES64L-G16RevA.03 25-Dec-2016

 ------------------
 #p CCSD(T)/CEP-31G
 ------------------

 ------------
 H2O_H2O_4077
 ------------
 Symbolic Z-matrix:
 Charge =  0 Multiplicity = 1

                         Standard orientation:
 ---------------------------------------------------------------------
 Center     Atomic      Atomic             Coordinates (Angstroms)
 Number     Number       Type             X           Y           Z
 ---------------------------------------------------------------------
      1          8           0        0.088230   -2.718563    0.000000
      2          1           0        0.088078   -1.735962    0.000000
      3          1           0       -0.841214   -3.037373    0.000000
      4          8           0        0.088230    2.574239    0.000000
      5          1           0        0.216335    3.548454    0.000000
      6          1           0       -0.874876    2.379473    0.000000
 ---------------------------------------------------------------------

 SCF Done:  E(RHF) =  -33.6523190739     A.U. after   11 cycles
 E2 =    -0.2283507249D+00 EUMP2 =    -0.33880669798815D+02
 CCSD(T)
 CCSD(T)= -0.33897656861D+02

 The electronic state is 1-A'.
 Alpha  occ. eigenvalues --   -1.36395  -1.34995  -0.72046  -0.70609  -0.56166
 Alpha  occ. eigenvalues --   -0.54736  -0.50972  -0.49569
 Alpha virt. eigenvalues --    0.19220   0.20981   0.29653   0.31123   0.79595
 Alpha virt. eigenvalues --    0.80966   0.82507   0.83981   0.85580   0.87212
 Alpha virt. eigenvalues --    1.16494   1.17975   1.20982   1.22570   2.56306

 Mulliken charges:
               1
     1  O   -0.743273
     2  H    0.376623
     3  H    0.366624
     4  O   -0.743630
     5  H    0.375429
     6  H    0.368228
 Sum of Mulliken charges =  -0.00000

 Dipole moment (field-independent basis, Debye):
    X=             -4.0534    Y=              3.3985    Z=              0.0000  Tot=              5.2896
 Quadrupole moment (field-independent basis, Debye-Ang):
   XX=            -10.9678   YY=             -8.5586   ZZ=            -14.9891
   XY=              2.9538   XZ=              0.0000   YZ=              0.0000

 72\MP4DQ=-33.8920143\MP4SDQ=-33.8940415\CCSD=-33.895095\CCSD(T)=-33.89
 Normal termination of Gaussian 16 at Sun Dec 10 06:46:22 2023.
