 Gaussian 16, Revision A.03,
 Gaussian 16:  ES64L-G16RevA.03 25-Dec-2016

 ------------------
 #p CCSD(T)/CEP-31G
 ------------------

 -----------
 H2O_H2O_866
 -----------
 Symbolic Z-matrix:
 Charge =  0 Multiplicity = 1

                         Standard orientation:
 ---------------------------------------------------------------------
 Center     Atomic      Atomic             Coordinates (Angstroms)
 Number     Number       Type             X           Y           Z
 ---------------------------------------------------------------------
      1          8           0        0.041258    1.451475   -0.000000
      2          1           0        0.038029    0.468879   -0.000000
      3          1           0       -0.887182    1.773195   -0.000000
      4          8           0        0.041258   -1.271659    0.000000
      5          1           0        0.890597   -1.765754    0.000000
      6          1           0       -0.701580   -1.914852    0.000000
 ---------------------------------------------------------------------

 SCF Done:  E(RHF) =  -33.6626475129     A.U. after   11 cycles
 E2 =    -0.2290629520D+00 EUMP2 =    -0.33891710464934D+02
 CCSD(T)
 CCSD(T)= -0.33907951024D+02

 The electronic state is 1-A'.
 Alpha  occ. eigenvalues --   -1.39408  -1.30624  -0.74911  -0.68704  -0.59308
 Alpha  occ. eigenvalues --   -0.54146  -0.50020  -0.45241
 Alpha virt. eigenvalues --    0.17503   0.27067   0.27694   0.47965   0.75019
 Alpha virt. eigenvalues --    0.76204   0.85647   0.87297   0.96241   0.99492
 Alpha virt. eigenvalues --    1.15160   1.18580   1.23254   1.36462   2.56014

 Mulliken charges:
               1
     1  O   -0.785580
     2  H    0.435799
     3  H    0.344991
     4  O   -0.819402
     5  H    0.412891
     6  H    0.411302
 Sum of Mulliken charges =   0.00000

 Dipole moment (field-independent basis, Debye):
    X=             -1.8014    Y=             -4.8057    Z=              0.0000  Tot=              5.1322
 Quadrupole moment (field-independent basis, Debye-Ang):
   XX=             -9.3504   YY=             -9.0303   ZZ=            -15.0197
   XY=             -4.2302   XZ=              0.0000   YZ=             -0.0000

 103\MP4DQ=-33.9020755\MP4SDQ=-33.9042019\CCSD=-33.9051036\CCSD(T)=-33.
 Normal termination of Gaussian 16 at Sun Dec 10 06:34:48 2023.
