 Gaussian 16, Revision A.03,
 Gaussian 16:  ES64L-G16RevA.03 25-Dec-2016

 ------------------
 #p CCSD(T)/CEP-31G
 ------------------

 ------------
 H2O_H2O_2135
 ------------
 Symbolic Z-matrix:
 Charge =  0 Multiplicity = 1

                         Standard orientation:
 ---------------------------------------------------------------------
 Center     Atomic      Atomic             Coordinates (Angstroms)
 Number     Number       Type             X           Y           Z
 ---------------------------------------------------------------------
      1          8           0        0.063257    1.957678   -0.000000
      2          1           0        0.061908    0.975077   -0.000000
      3          1           0       -0.865798    2.277620    0.000000
      4          8           0        0.063257   -1.782200   -0.000000
      5          1           0        0.660357   -2.562571   -0.000000
      6          1           0       -0.868579   -2.093946    0.000000
 ---------------------------------------------------------------------

 SCF Done:  E(RHF) =  -33.6570116872     A.U. after   11 cycles
 E2 =    -0.2285710154D+00 EUMP2 =    -0.33885582702639D+02
 CCSD(T)
 CCSD(T)= -0.33902490012D+02

 The electronic state is 1-A'.
 Alpha  occ. eigenvalues --   -1.37289  -1.33409  -0.72954  -0.69022  -0.57389
 Alpha  occ. eigenvalues --   -0.53219  -0.51928  -0.48038
 Alpha virt. eigenvalues --    0.18045   0.23571   0.29004   0.34385   0.78476
 Alpha virt. eigenvalues --    0.82619   0.83265   0.85426   0.88882   0.88922
 Alpha virt. eigenvalues --    1.15734   1.20026   1.20306   1.32361   2.52682

 Mulliken charges:
               1
     1  O   -0.763357
     2  H    0.401586
     3  H    0.359614
     4  O   -0.759164
     5  H    0.386025
     6  H    0.375295
 Sum of Mulliken charges =   0.00000

 Dipole moment (field-independent basis, Debye):
    X=             -2.8603    Y=             -4.3033    Z=              0.0000  Tot=              5.1672
 Quadrupole moment (field-independent basis, Debye-Ang):
   XX=             -9.7777   YY=             -7.5020   ZZ=            -14.9986
   XY=             -4.4762   XZ=             -0.0000   YZ=              0.0000

 82\MP4DQ=-33.8967834\MP4SDQ=-33.8988572\CCSD=-33.8998838\CCSD(T)=-33.9
 Normal termination of Gaussian 16 at Sun Dec 10 06:59:15 2023.
