 Gaussian 16, Revision A.03,
 Gaussian 16:  ES64L-G16RevA.03 25-Dec-2016

 ------------------
 #p CCSD(T)/CEP-31G
 ------------------

 ------------
 H2O_H2O_4580
 ------------
 Symbolic Z-matrix:
 Charge =  0 Multiplicity = 1

                         Standard orientation:
 ---------------------------------------------------------------------
 Center     Atomic      Atomic             Coordinates (Angstroms)
 Number     Number       Type             X           Y           Z
 ---------------------------------------------------------------------
      1          8           0        0.079844    2.926015   -0.000000
      2          1           0        0.079453    1.943414   -0.000000
      3          1           0       -0.849523    3.245051   -0.000000
      4          8           0        0.079844   -2.766938    0.000000
      5          1           0        0.395322   -3.697518    0.000000
      6          1           0       -0.902752   -2.763567    0.000000
 ---------------------------------------------------------------------

 SCF Done:  E(RHF) =  -33.6525285433     A.U. after   11 cycles
 E2 =    -0.2283355396D+00 EUMP2 =    -0.33880864082910D+02
 CCSD(T)
 CCSD(T)= -0.33897843980D+02

 The electronic state is 1-A'.
 Alpha  occ. eigenvalues --   -1.36269  -1.34926  -0.71913  -0.70547  -0.56048
 Alpha  occ. eigenvalues --   -0.54679  -0.50850  -0.49507
 Alpha virt. eigenvalues --    0.19514   0.20941   0.29788   0.31195   0.79708
 Alpha virt. eigenvalues --    0.81025   0.82635   0.84034   0.85741   0.87193
 Alpha virt. eigenvalues --    1.16665   1.18008   1.21112   1.22519   2.56643

 Mulliken charges:
               1
     1  O   -0.744057
     2  H    0.376690
     3  H    0.367361
     4  O   -0.744123
     5  H    0.374538
     6  H    0.369591
 Sum of Mulliken charges =  -0.00000

 Dipole moment (field-independent basis, Debye):
    X=             -3.6718    Y=             -3.7317    Z=              0.0000  Tot=              5.2353
 Quadrupole moment (field-independent basis, Debye-Ang):
   XX=            -10.4744   YY=             -7.0073   ZZ=            -14.9898
   XY=             -4.0637   XZ=              0.0000   YZ=             -0.0000

 609\MP4DQ=-33.8922045\MP4SDQ=-33.8942304\CCSD=-33.8952842\CCSD(T)=-33.
 Normal termination of Gaussian 16 at Sun Dec 10 06:55:26 2023.
