 Gaussian 16, Revision A.03,
 Gaussian 16:  ES64L-G16RevA.03 25-Dec-2016

 ------------------
 #p CCSD(T)/CEP-31G
 ------------------

 -----------
 H2O_H2O_775
 -----------
 Symbolic Z-matrix:
 Charge =  0 Multiplicity = 1

                         Standard orientation:
 ---------------------------------------------------------------------
 Center     Atomic      Atomic             Coordinates (Angstroms)
 Number     Number       Type             X           Y           Z
 ---------------------------------------------------------------------
      1          8           0        0.092949   -1.396001    0.000000
      2          1           0        0.092949   -0.413400    0.000000
      3          1           0       -0.836544   -1.714668    0.000000
      4          8           0        0.092949    1.263215    0.000000
      5          1           0        0.092949    2.245816    0.000000
      6          1           0       -0.836544    0.944547    0.000000
 ---------------------------------------------------------------------

 SCF Done:  E(RHF) =  -33.6438957981     A.U. after   11 cycles
 E2 =    -0.2294005145D+00 EUMP2 =    -0.33873296312576D+02
 CCSD(T)
 CCSD(T)= -0.33890120426D+02

 The electronic state is 1-A'.
 Alpha  occ. eigenvalues --   -1.40255  -1.32949  -0.77416  -0.68434  -0.59336
 Alpha  occ. eigenvalues --   -0.54457  -0.52265  -0.47349
 Alpha virt. eigenvalues --    0.16440   0.25019   0.27775   0.46386   0.74228
 Alpha virt. eigenvalues --    0.78806   0.84986   0.86287   0.91936   1.11911
 Alpha virt. eigenvalues --    1.13662   1.23839   1.34516   1.36474   2.54253

 Mulliken charges:
               1
     1  O   -0.720796
     2  H    0.351005
     3  H    0.339507
     4  O   -0.764731
     5  H    0.431114
     6  H    0.363902
 Sum of Mulliken charges =  -0.00000

 Dipole moment (field-independent basis, Debye):
    X=             -4.0771    Y=              3.7121    Z=              0.0000  Tot=              5.5138
 Quadrupole moment (field-independent basis, Debye-Ang):
   XX=            -11.3737   YY=             -9.7676   ZZ=            -14.9805
   XY=              2.2022   XZ=              0.0000   YZ=              0.0000

 1\MP4DQ=-33.8840109\MP4SDQ=-33.8863328\CCSD=-33.8872338\CCSD(T)=-33.89
 Normal termination of Gaussian 16 at Sun Dec 10 06:33:06 2023.
