 Gaussian 16, Revision A.03,
 Gaussian 16:  ES64L-G16RevA.03 25-Dec-2016

 ------------------
 #p CCSD(T)/CEP-31G
 ------------------

 ------------
 H2O_H2O_2983
 ------------
 Symbolic Z-matrix:
 Charge =  0 Multiplicity = 1

                         Standard orientation:
 ---------------------------------------------------------------------
 Center     Atomic      Atomic             Coordinates (Angstroms)
 Number     Number       Type             X           Y           Z
 ---------------------------------------------------------------------
      1          8           0        0.070200    2.293878   -0.000000
      2          1           0        0.069326    1.311276   -0.000000
      3          1           0       -0.859009    2.613371   -0.000000
      4          8           0        0.070200   -2.123636    0.000000
      5          1           0        0.560744   -2.975030    0.000000
      6          1           0       -0.894266   -2.311550    0.000000
 ---------------------------------------------------------------------

 SCF Done:  E(RHF) =  -33.6543708377     A.U. after   11 cycles
 E2 =    -0.2283680328D+00 EUMP2 =    -0.33882738870425D+02
 CCSD(T)
 CCSD(T)= -0.33899673493D+02

 The electronic state is 1-A'.
 Alpha  occ. eigenvalues --   -1.36754  -1.34207  -0.72411  -0.69811  -0.56643
 Alpha  occ. eigenvalues --   -0.53995  -0.51360  -0.48808
 Alpha virt. eigenvalues --    0.18602   0.22145   0.29347   0.32234   0.79213
 Alpha virt. eigenvalues --    0.81693   0.82600   0.84754   0.85225   0.88021
 Alpha virt. eigenvalues --    1.16219   1.19089   1.20634   1.25928   2.56010

 Mulliken charges:
               1
     1  O   -0.751424
     2  H    0.386846
     3  H    0.363828
     4  O   -0.750148
     5  H    0.379352
     6  H    0.371546
 Sum of Mulliken charges =   0.00000

 Dipole moment (field-independent basis, Debye):
    X=             -3.2045    Y=             -4.0719    Z=              0.0000  Tot=              5.1816
 Quadrupole moment (field-independent basis, Debye-Ang):
   XX=            -10.0288   YY=             -7.0824   ZZ=            -14.9934
   XY=             -4.4503   XZ=              0.0000   YZ=             -0.0000

 47\MP4DQ=-33.8940244\MP4SDQ=-33.8960636\CCSD=-33.8971044\CCSD(T)=-33.8
 Normal termination of Gaussian 16 at Sun Dec 10 06:26:42 2023.
