 Gaussian 16, Revision A.03,
 Gaussian 16:  ES64L-G16RevA.03 25-Dec-2016

 ------------------
 #p CCSD(T)/CEP-31G
 ------------------

 ------------
 H2O_H2O_4961
 ------------
 Symbolic Z-matrix:
 Charge =  0 Multiplicity = 1

                         Standard orientation:
 ---------------------------------------------------------------------
 Center     Atomic      Atomic             Coordinates (Angstroms)
 Number     Number       Type             X           Y           Z
 ---------------------------------------------------------------------
      1          8           0        0.059613    3.085592    0.000000
      2          1           0        0.058670    2.102991    0.000000
      3          1           0       -0.869573    3.405150   -0.000000
      4          8           0        0.059613   -2.908110    0.000000
      5          1           0        0.706778   -3.647490    0.000000
      6          1           0       -0.849686   -3.280508   -0.000000
 ---------------------------------------------------------------------

 SCF Done:  E(RHF) =  -33.6528604588     A.U. after   11 cycles
 E2 =    -0.2283192637D+00 EUMP2 =    -0.33881179722516D+02
 CCSD(T)
 CCSD(T)= -0.33898149604D+02

 The electronic state is 1-A'.
 Alpha  occ. eigenvalues --   -1.36184  -1.34816  -0.71823  -0.70444  -0.55980
 Alpha  occ. eigenvalues --   -0.54584  -0.50771  -0.49404
 Alpha virt. eigenvalues --    0.19642   0.21051   0.29894   0.31323   0.79781
 Alpha virt. eigenvalues --    0.81123   0.82692   0.84120   0.85840   0.87246
 Alpha virt. eigenvalues --    1.16765   1.18131   1.21212   1.22619   2.56752

 Mulliken charges:
               1
     1  O   -0.745303
     2  H    0.377118
     3  H    0.368183
     4  O   -0.745027
     5  H    0.373909
     6  H    0.371119
 Sum of Mulliken charges =  -0.00000

 Dipole moment (field-independent basis, Debye):
    X=             -2.7422    Y=             -4.1534    Z=             -0.0000  Tot=              4.9770
 Quadrupole moment (field-independent basis, Debye-Ang):
   XX=             -9.6718   YY=             -4.9768   ZZ=            -14.9907
   XY=             -6.4118   XZ=              0.0000   YZ=             -0.0000

 79\MP4DQ=-33.8925133\MP4SDQ=-33.894538\CCSD=-33.8955914\CCSD(T)=-33.89
 Normal termination of Gaussian 16 at Sun Dec 10 07:03:35 2023.
