 Gaussian 16, Revision A.03,
 Gaussian 16:  ES64L-G16RevA.03 25-Dec-2016

 ------------------
 #p CCSD(T)/CEP-31G
 ------------------

 ------------
 H2O_H2O_4905
 ------------
 Symbolic Z-matrix:
 Charge =  0 Multiplicity = 1

                         Standard orientation:
 ---------------------------------------------------------------------
 Center     Atomic      Atomic             Coordinates (Angstroms)
 Number     Number       Type             X           Y           Z
 ---------------------------------------------------------------------
      1          8           0        0.079842    3.055652    0.000000
      2          1           0        0.079469    2.073050    0.000000
      3          1           0       -0.849529    3.374671    0.000000
      4          8           0        0.079842   -2.896571   -0.000000
      5          1           0        0.395336   -3.827146   -0.000000
      6          1           0       -0.902754   -2.893218   -0.000000
 ---------------------------------------------------------------------

 SCF Done:  E(RHF) =  -33.6524256136     A.U. after   11 cycles
 E2 =    -0.2283392822D+00 EUMP2 =    -0.33880764895753D+02
 CCSD(T)
 CCSD(T)= -0.33897747633D+02

 The electronic state is 1-A'.
 Alpha  occ. eigenvalues --   -1.36210  -1.34988  -0.71853  -0.70611  -0.55983
 Alpha  occ. eigenvalues --   -0.54739  -0.50791  -0.49568
 Alpha virt. eigenvalues --    0.19582   0.20857   0.29842   0.31114   0.79766
 Alpha virt. eigenvalues --    0.80967   0.82714   0.83976   0.85816   0.87122
 Alpha virt. eigenvalues --    1.16720   1.17939   1.21170   1.22429   2.56715

 Mulliken charges:
               1
     1  O   -0.743641
     2  H    0.375868
     3  H    0.367771
     4  O   -0.743692
     5  H    0.374033
     6  H    0.369661
 Sum of Mulliken charges =   0.00000

 Dipole moment (field-independent basis, Debye):
    X=             -3.6747    Y=             -3.7251    Z=             -0.0000  Tot=              5.2325
 Quadrupole moment (field-independent basis, Debye-Ang):
   XX=            -10.4731   YY=             -6.8473   ZZ=            -14.9896
   XY=             -4.1433   XZ=             -0.0000   YZ=              0.0000

 44\MP4DQ=-33.8921077\MP4SDQ=-33.8941337\CCSD=-33.8951879\CCSD(T)=-33.8
 Normal termination of Gaussian 16 at Sun Dec 10 07:01:44 2023.
