 Gaussian 16, Revision A.03,
 Gaussian 16:  ES64L-G16RevA.03 25-Dec-2016

 ------------------
 #p CCSD(T)/CEP-31G
 ------------------

 ------------
 H2O_H2O_2825
 ------------
 Symbolic Z-matrix:
 Charge =  0 Multiplicity = 1

                         Standard orientation:
 ---------------------------------------------------------------------
 Center     Atomic      Atomic             Coordinates (Angstroms)
 Number     Number       Type             X           Y           Z
 ---------------------------------------------------------------------
      1          8           0        0.092949   -2.213700    0.000000
      2          1           0        0.092949   -1.231099    0.000000
      3          1           0       -0.836544   -2.532367    0.000000
      4          8           0        0.092949    2.080913    0.000000
      5          1           0        0.092949    3.063515    0.000000
      6          1           0       -0.836544    1.762246    0.000000
 ---------------------------------------------------------------------

 SCF Done:  E(RHF) =  -33.6523804959     A.U. after   11 cycles
 E2 =    -0.2284757790D+00 EUMP2 =    -0.33880856274831D+02
 CCSD(T)
 CCSD(T)= -0.33897857113D+02

 The electronic state is 1-A'.
 Alpha  occ. eigenvalues --   -1.36887  -1.34875  -0.72573  -0.70457  -0.56672
 Alpha  occ. eigenvalues --   -0.54597  -0.51458  -0.49440
 Alpha virt. eigenvalues --    0.17261   0.22240   0.29168   0.31733   0.79115
 Alpha virt. eigenvalues --    0.81127   0.82587   0.84080   0.85809   0.87629
 Alpha virt. eigenvalues --    1.15578   1.18601   1.20542   1.27334   2.55911

 Mulliken charges:
               1
     1  O   -0.743988
     2  H    0.379887
     3  H    0.363559
     4  O   -0.744451
     5  H    0.379633
     6  H    0.365360
 Sum of Mulliken charges =  -0.00000

 Dipole moment (field-independent basis, Debye):
    X=             -4.2477    Y=              3.1843    Z=              0.0000  Tot=              5.3087
 Quadrupole moment (field-independent basis, Debye-Ang):
   XX=            -11.2978   YY=             -9.5829   ZZ=            -14.9879
   XY=              2.2935   XZ=              0.0000   YZ=              0.0000

 4478\MP4DQ=-33.8921866\MP4SDQ=-33.8942335\CCSD=-33.8952766\CCSD(T)=-33
 Normal termination of Gaussian 16 at Sun Dec 10 06:23:50 2023.
