 Gaussian 16, Revision A.03,
 Gaussian 16:  ES64L-G16RevA.03 25-Dec-2016

 ------------------
 #p CCSD(T)/CEP-31G
 ------------------

 ------------
 H2O_H2O_3885
 ------------
 Symbolic Z-matrix:
 Charge =  0 Multiplicity = 1

                         Standard orientation:
 ---------------------------------------------------------------------
 Center     Atomic      Atomic             Coordinates (Angstroms)
 Number     Number       Type             X           Y           Z
 ---------------------------------------------------------------------
      1          8           0        0.063224    2.655736   -0.000000
      2          1           0        0.062242    1.673135   -0.000000
      3          1           0       -0.865950    2.975331   -0.000000
      4          8           0        0.063224   -2.480211    0.000000
      5          1           0        0.660615   -3.260359    0.000000
      6          1           0       -0.868497   -2.792305    0.000000
 ---------------------------------------------------------------------

 SCF Done:  E(RHF) =  -33.6535011971     A.U. after   11 cycles
 E2 =    -0.2283058491D+00 EUMP2 =    -0.33881807046180D+02
 CCSD(T)
 CCSD(T)= -0.33898758545D+02

 The electronic state is 1-A'.
 Alpha  occ. eigenvalues --   -1.36410  -1.34529  -0.72054  -0.70149  -0.56246
 Alpha  occ. eigenvalues --   -0.54310  -0.51006  -0.49124
 Alpha virt. eigenvalues --    0.19362   0.21450   0.29690   0.31707   0.79555
 Alpha virt. eigenvalues --    0.81387   0.82350   0.84407   0.85554   0.87564
 Alpha virt. eigenvalues --    1.16565   1.18476   1.20985   1.23180   2.56532

 Mulliken charges:
               1
     1  O   -0.747823
     2  H    0.381185
     3  H    0.366550
     4  O   -0.747324
     5  H    0.375979
     6  H    0.371433
 Sum of Mulliken charges =  -0.00000

 Dipole moment (field-independent basis, Debye):
    X=             -2.8987    Y=             -4.1390    Z=              0.0000  Tot=              5.0531
 Quadrupole moment (field-independent basis, Debye-Ang):
   XX=             -9.7760   YY=             -6.0386   ZZ=            -14.9920
   XY=             -5.4458   XZ=              0.0000   YZ=             -0.0000

 66\MP4DQ=-33.8931244\MP4SDQ=-33.8951496\CCSD=-33.8961999\CCSD(T)=-33.8
 Normal termination of Gaussian 16 at Sun Dec 10 06:42:55 2023.
