 Gaussian 16, Revision A.03,
 Gaussian 16:  ES64L-G16RevA.03 25-Dec-2016

 ------------------
 #p CCSD(T)/CEP-31G
 ------------------

 ------------
 H2O_H2O_1465
 ------------
 Symbolic Z-matrix:
 Charge =  0 Multiplicity = 1

                         Standard orientation:
 ---------------------------------------------------------------------
 Center     Atomic      Atomic             Coordinates (Angstroms)
 Number     Number       Type             X           Y           Z
 ---------------------------------------------------------------------
      1          8           0        0.044927    1.691078    0.000000
      2          1           0        0.042377    0.708480    0.000000
      3          1           0       -0.883736    2.012155    0.000000
      4          8           0        0.044927   -1.510746   -0.000000
      5          1           0        0.860511   -2.058769   -0.000000
      6          1           0       -0.737977   -2.104520   -0.000000
 ---------------------------------------------------------------------

 SCF Done:  E(RHF) =  -33.6615519830     A.U. after   11 cycles
 E2 =    -0.2288724039D+00 EUMP2 =    -0.33890424386944D+02
 CCSD(T)
 CCSD(T)= -0.33907165904D+02

 The electronic state is 1-A'.
 Alpha  occ. eigenvalues --   -1.38008  -1.32213  -0.73640  -0.68134  -0.58533
 Alpha  occ. eigenvalues --   -0.52716  -0.51987  -0.46882
 Alpha virt. eigenvalues --    0.17918   0.25298   0.28563   0.39536   0.77031
 Alpha virt. eigenvalues --    0.80252   0.84493   0.86083   0.91487   0.97427
 Alpha virt. eigenvalues --    1.15165   1.19624   1.21298   1.33934   2.49631

 Mulliken charges:
               1
     1  O   -0.781407
     2  H    0.424506
     3  H    0.355452
     4  O   -0.782935
     5  H    0.395387
     6  H    0.388997
 Sum of Mulliken charges =   0.00000

 Dipole moment (field-independent basis, Debye):
    X=             -2.0008    Y=             -4.5611    Z=             -0.0000  Tot=              4.9807
 Quadrupole moment (field-independent basis, Debye-Ang):
   XX=             -9.4004   YY=             -8.1027   ZZ=            -15.0098
   XY=             -4.7410   XZ=              0.0000   YZ=              0.0000

 75\MP4DQ=-33.9013923\MP4SDQ=-33.9034815\CCSD=-33.9044795\CCSD(T)=-33.9
 Normal termination of Gaussian 16 at Sun Dec 10 06:46:23 2023.
