 Gaussian 16, Revision A.03,
 Gaussian 16:  ES64L-G16RevA.03 25-Dec-2016

 ------------------
 #p CCSD(T)/CEP-31G
 ------------------

 ------------
 H2O_H2O_1515
 ------------
 Symbolic Z-matrix:
 Charge =  0 Multiplicity = 1

                         Standard orientation:
 ---------------------------------------------------------------------
 Center     Atomic      Atomic             Coordinates (Angstroms)
 Number     Number       Type             X           Y           Z
 ---------------------------------------------------------------------
      1          8           0        0.044924    1.711023    0.000000
      2          1           0        0.042405    0.728425    0.000000
      3          1           0       -0.883749    2.032071    0.000000
      4          8           0        0.044924   -1.530689   -0.000000
      5          1           0        0.860526   -2.078685   -0.000000
      6          1           0       -0.737961   -2.124488   -0.000000
 ---------------------------------------------------------------------

 SCF Done:  E(RHF) =  -33.6612685925     A.U. after   11 cycles
 E2 =    -0.2288432262D+00 EUMP2 =    -0.33890111818655D+02
 CCSD(T)
 CCSD(T)= -0.33906872753D+02

 The electronic state is 1-A'.
 Alpha  occ. eigenvalues --   -1.37933  -1.32309  -0.73568  -0.68180  -0.58434
 Alpha  occ. eigenvalues --   -0.52637  -0.52096  -0.46978
 Alpha virt. eigenvalues --    0.17945   0.25168   0.28615   0.39025   0.77177
 Alpha virt. eigenvalues --    0.80552   0.84313   0.86108   0.91154   0.96792
 Alpha virt. eigenvalues --    1.15219   1.19681   1.21196   1.33871   2.49669

 Mulliken charges:
               1
     1  O   -0.780425
     2  H    0.422771
     3  H    0.356088
     4  O   -0.780579
     5  H    0.394221
     6  H    0.387923
 Sum of Mulliken charges =  -0.00000

 Dipole moment (field-independent basis, Debye):
    X=             -2.0033    Y=             -4.5471    Z=             -0.0000  Tot=              4.9689
 Quadrupole moment (field-independent basis, Debye-Ang):
   XX=             -9.4023   YY=             -8.0367   ZZ=            -15.0089
   XY=             -4.7877   XZ=             -0.0000   YZ=              0.0000

 385\MP4DQ=-33.9011059\MP4SDQ=-33.9031934\CCSD=-33.9041954\CCSD(T)=-33.
 Normal termination of Gaussian 16 at Sun Dec 10 06:47:22 2023.
