 Gaussian 16, Revision A.03,
 Gaussian 16:  ES64L-G16RevA.03 25-Dec-2016

 ------------------
 #p CCSD(T)/CEP-31G
 ------------------

 ----------
 H2O_H2O_48
 ----------
 Symbolic Z-matrix:
 Charge =  0 Multiplicity = 1

                         Standard orientation:
 ---------------------------------------------------------------------
 Center     Atomic      Atomic             Coordinates (Angstroms)
 Number     Number       Type             X           Y           Z
 ---------------------------------------------------------------------
      1          8           0        0.016910   -1.113429    0.000000
      2          1           0        0.010634   -0.130848    0.000000
      3          1           0       -0.910528   -1.438027    0.000000
      4          8           0        0.016910    0.950156    0.000000
      5          1           0        0.996977    1.020683    0.000000
      6          1           0       -0.367649    1.854379    0.000000
 ---------------------------------------------------------------------

 SCF Done:  E(RHF) =  -33.5825999651     A.U. after   11 cycles
 E2 =    -0.2265181456D+00 EUMP2 =    -0.33809118110686D+02
 CCSD(T)
 CCSD(T)= -0.33823742786D+02

 The electronic state is 1-A'.
 Alpha  occ. eigenvalues --   -1.46932  -1.26762  -0.84201  -0.74647  -0.59271
 Alpha  occ. eigenvalues --   -0.55386  -0.43446  -0.40802
 Alpha virt. eigenvalues --    0.16736   0.24173   0.30499   0.62425   0.73292
 Alpha virt. eigenvalues --    0.74212   0.90659   0.91875   0.92587   1.04798
 Alpha virt. eigenvalues --    1.11253   1.19697   1.31144   1.46740   3.03014

 Mulliken charges:
               1
     1  O   -0.732052
     2  H    0.223479
     3  H    0.324580
     4  O   -0.758191
     5  H    0.442188
     6  H    0.499996
 Sum of Mulliken charges =   0.00000

 Dipole moment (field-independent basis, Debye):
    X=             -0.7136    Y=              5.4457    Z=              0.0000  Tot=              5.4923
 Quadrupole moment (field-independent basis, Debye-Ang):
   XX=             -9.5870   YY=            -10.6043   ZZ=            -14.9057
   XY=              3.6256   XZ=              0.0000   YZ=              0.0000

 4DQ=-33.8175307\MP4SDQ=-33.8199167\CCSD=-33.8205325\CCSD(T)=-33.823742
 Normal termination of Gaussian 16 at Sun Dec 10 06:18:58 2023.
