 Gaussian 16, Revision A.03,
 Gaussian 16:  ES64L-G16RevA.03 25-Dec-2016

 ------------------
 #p CCSD(T)/CEP-31G
 ------------------

 -----------
 H2O_H2O_508
 -----------
 Symbolic Z-matrix:
 Charge =  0 Multiplicity = 1

                         Standard orientation:
 ---------------------------------------------------------------------
 Center     Atomic      Atomic             Coordinates (Angstroms)
 Number     Number       Type             X           Y           Z
 ---------------------------------------------------------------------
      1          8           0        0.070261    1.306606    0.000000
      2          1           0        0.068681    0.324006    0.000000
      3          1           0       -0.858718    1.626768    0.000000
      4          8           0        0.070261   -1.136466    0.000000
      5          1           0        0.560193   -1.988213    0.000000
      6          1           0       -0.894339   -1.323686    0.000000
 ---------------------------------------------------------------------

 SCF Done:  E(RHF) =  -33.6485633393     A.U. after   11 cycles
 E2 =    -0.2288429582D+00 EUMP2 =    -0.33877406297542D+02
 CCSD(T)
 CCSD(T)= -0.33893250819D+02

 The electronic state is 1-A'.
 Alpha  occ. eigenvalues --   -1.41327  -1.29898  -0.77320  -0.70731  -0.58327
 Alpha  occ. eigenvalues --   -0.55701  -0.48707  -0.44288
 Alpha virt. eigenvalues --    0.16750   0.26016   0.28224   0.53950   0.73861
 Alpha virt. eigenvalues --    0.75338   0.85712   0.88942   0.96538   1.06462
 Alpha virt. eigenvalues --    1.15333   1.20902   1.23720   1.35769   2.71935

 Mulliken charges:
               1
     1  O   -0.752295
     2  H    0.402869
     3  H    0.325730
     4  O   -0.833656
     5  H    0.459373
     6  H    0.397979
 Sum of Mulliken charges =  -0.00000

 Dipole moment (field-independent basis, Debye):
    X=             -2.9531    Y=             -4.8830    Z=              0.0000  Tot=              5.7066
 Quadrupole moment (field-independent basis, Debye-Ang):
   XX=            -10.0122   YY=             -9.6400   ZZ=            -14.9963
   XY=             -3.3893   XZ=              0.0000   YZ=              0.0000

 42\MP4DQ=-33.8871969\MP4SDQ=-33.8894508\CCSD=-33.8902647\CCSD(T)=-33.8
 Normal termination of Gaussian 16 at Sun Dec 10 06:28:05 2023.
