 Gaussian 16, Revision A.03,
 Gaussian 16:  ES64L-G16RevA.03 25-Dec-2016

 ------------------
 #p CCSD(T)/CEP-31G
 ------------------

 -----------
 H2O_H2O_202
 -----------
 Symbolic Z-matrix:
 Charge =  0 Multiplicity = 1

                         Standard orientation:
 ---------------------------------------------------------------------
 Center     Atomic      Atomic             Coordinates (Angstroms)
 Number     Number       Type             X           Y           Z
 ---------------------------------------------------------------------
      1          8           0        0.088245   -1.172895    0.000000
      2          1           0        0.087882   -0.190293    0.000000
      3          1           0       -0.841130   -1.491905    0.000000
      4          8           0        0.088245    1.028609    0.000000
      5          1           0        0.216140    2.002851    0.000000
      6          1           0       -0.874819    0.833634    0.000000
 ---------------------------------------------------------------------

 SCF Done:  E(RHF) =  -33.6009612599     A.U. after   11 cycles
 E2 =    -0.2284380689D+00 EUMP2 =    -0.33829399328801D+02
 CCSD(T)
 CCSD(T)= -0.33845034106D+02

 The electronic state is 1-A'.
 Alpha  occ. eigenvalues --   -1.45075  -1.29843  -0.83124  -0.70931  -0.57792
 Alpha  occ. eigenvalues --   -0.57245  -0.48032  -0.43962
 Alpha virt. eigenvalues --    0.16077   0.23493   0.29447   0.58561   0.73066
 Alpha virt. eigenvalues --    0.75959   0.88404   0.89769   0.96470   1.10062
 Alpha virt. eigenvalues --    1.12211   1.22637   1.26222   1.47123   2.91026

 Mulliken charges:
               1
     1  O   -0.678356
     2  H    0.256100
     3  H    0.310842
     4  O   -0.761889
     5  H    0.489162
     6  H    0.384141
 Sum of Mulliken charges =   0.00000

 Dipole moment (field-independent basis, Debye):
    X=             -3.6783    Y=              4.6599    Z=              0.0000  Tot=              5.9367
 Quadrupole moment (field-independent basis, Debye-Ang):
   XX=            -11.0171   YY=            -10.2620   ZZ=            -14.9200
   XY=              2.4413   XZ=              0.0000   YZ=              0.0000

 4\MP4DQ=-33.838652\MP4SDQ=-33.8411645\CCSD=-33.8418626\CCSD(T)=-33.845
 Normal termination of Gaussian 16 at Sun Dec 10 06:22:02 2023.
