 Gaussian 16, Revision A.03,
 Gaussian 16:  ES64L-G16RevA.03 25-Dec-2016

 ------------------
 #p CCSD(T)/CEP-31G
 ------------------

 ------------
 H2O_H2O_1280
 ------------
 Symbolic Z-matrix:
 Charge =  0 Multiplicity = 1

                         Standard orientation:
 ---------------------------------------------------------------------
 Center     Atomic      Atomic             Coordinates (Angstroms)
 Number     Number       Type             X           Y           Z
 ---------------------------------------------------------------------
      1          8           0        0.079871   -1.609693    0.000000
      2          1           0        0.079145   -0.627092    0.000000
      3          1           0       -0.849386   -1.929047    0.000000
      4          8           0        0.079871    1.450670    0.000000
      5          1           0        0.395030    2.381358    0.000000
      6          1           0       -0.902723    1.446964    0.000000
 ---------------------------------------------------------------------

 SCF Done:  E(RHF) =  -33.6570896734     A.U. after   11 cycles
 E2 =    -0.2289968498D+00 EUMP2 =    -0.33886086523153D+02
 CCSD(T)
 CCSD(T)= -0.33902988557D+02

 The electronic state is 1-A'.
 Alpha  occ. eigenvalues --   -1.38457  -1.32813  -0.74347  -0.68597  -0.58621
 Alpha  occ. eigenvalues --   -0.53058  -0.52436  -0.47387
 Alpha virt. eigenvalues --    0.17156   0.25190   0.27986   0.40274   0.76317
 Alpha virt. eigenvalues --    0.79998   0.84598   0.85154   0.91234   1.08907
 Alpha virt. eigenvalues --    1.15621   1.17454   1.21790   1.38170   2.50327

 Mulliken charges:
               1
     1  O   -0.764132
     2  H    0.410829
     3  H    0.348787
     4  O   -0.780907
     5  H    0.411123
     6  H    0.374300
 Sum of Mulliken charges =  -0.00000

 Dipole moment (field-independent basis, Debye):
    X=             -3.5514    Y=              4.1162    Z=              0.0000  Tot=              5.4365
 Quadrupole moment (field-independent basis, Debye-Ang):
   XX=            -10.5109   YY=             -8.7498   ZZ=            -14.9997
   XY=              3.2461   XZ=              0.0000   YZ=              0.0000

 83\MP4DQ=-33.8971193\MP4SDQ=-33.899276\CCSD=-33.9002714\CCSD(T)=-33.90
 Normal termination of Gaussian 16 at Sun Dec 10 06:42:42 2023.
