 Gaussian 16, Revision A.03,
 Gaussian 16:  ES64L-G16RevA.03 25-Dec-2016

 ------------------
 #p CCSD(T)/CEP-31G
 ------------------

 ------------
 H2O_H2O_3255
 ------------
 Symbolic Z-matrix:
 Charge =  0 Multiplicity = 1

                         Standard orientation:
 ---------------------------------------------------------------------
 Center     Atomic      Atomic             Coordinates (Angstroms)
 Number     Number       Type             X           Y           Z
 ---------------------------------------------------------------------
      1          8           0        0.079851    2.397496   -0.000000
      2          1           0        0.079371    1.414895   -0.000000
      3          1           0       -0.849486    2.716616   -0.000000
      4          8           0        0.079851   -2.238433    0.000000
      5          1           0        0.395244   -3.169041    0.000000
      6          1           0       -0.902744   -2.234973    0.000000
 ---------------------------------------------------------------------

 SCF Done:  E(RHF) =  -33.6533702326     A.U. after   11 cycles
 E2 =    -0.2283578283D+00 EUMP2 =    -0.33881728060897D+02
 CCSD(T)
 CCSD(T)= -0.33898687170D+02

 The electronic state is 1-A'.
 Alpha  occ. eigenvalues --   -1.36647  -1.34544  -0.72305  -0.70149  -0.56478
 Alpha  occ. eigenvalues --   -0.54308  -0.51237  -0.49131
 Alpha virt. eigenvalues --    0.18664   0.21741   0.29414   0.31756   0.79338
 Alpha virt. eigenvalues --    0.81384   0.82320   0.84407   0.85339   0.87759
 Alpha virt. eigenvalues --    1.16247   1.18668   1.20709   1.24525   2.56323

 Mulliken charges:
               1
     1  O   -0.747421
     2  H    0.382475
     3  H    0.364588
     4  O   -0.747315
     5  H    0.378132
     6  H    0.369541
 Sum of Mulliken charges =  -0.00000

 Dipole moment (field-independent basis, Debye):
    X=             -3.6538    Y=             -3.7840    Z=              0.0000  Tot=              5.2602
 Quadrupole moment (field-independent basis, Debye-Ang):
   XX=            -10.4818   YY=             -7.6505   ZZ=            -14.9912
   XY=             -3.7367   XZ=              0.0000   YZ=             -0.0000

 2956\MP4DQ=-33.8930417\MP4SDQ=-33.8950748\CCSD=-33.8961211\CCSD(T)=-33
 Normal termination of Gaussian 16 at Sun Dec 10 06:31:39 2023.
