 Gaussian 16, Revision A.03,
 Gaussian 16:  ES64L-G16RevA.03 25-Dec-2016

 ------------------
 #p CCSD(T)/CEP-31G
 ------------------

 ------------
 H2O_H2O_2824
 ------------
 Symbolic Z-matrix:
 Charge =  0 Multiplicity = 1

                         Standard orientation:
 ---------------------------------------------------------------------
 Center     Atomic      Atomic             Coordinates (Angstroms)
 Number     Number       Type             X           Y           Z
 ---------------------------------------------------------------------
      1          8           0       -0.013533    2.218117    0.000000
      2          1           0       -0.010382    1.235521    0.000000
      3          1           0        0.914933    2.539763    0.000000
      4          8           0       -0.013533   -2.058860    0.000000
      5          1           0       -0.996130   -2.062012    0.000000
      6          1           0        0.308113   -2.987327    0.000000
 ---------------------------------------------------------------------

 SCF Done:  E(RHF) =  -33.6556081691     A.U. after   11 cycles
 E2 =    -0.2283259368D+00 EUMP2 =    -0.33883934105966D+02
 CCSD(T)
 CCSD(T)= -0.33900845147D+02

 The electronic state is 1-A'.
 Alpha  occ. eigenvalues --   -1.36783  -1.34210  -0.72442  -0.69859  -0.56737
 Alpha  occ. eigenvalues --   -0.54059  -0.51406  -0.48844
 Alpha virt. eigenvalues --    0.18301   0.22462   0.29419   0.32351   0.79148
 Alpha virt. eigenvalues --    0.81655   0.82698   0.84373   0.85952   0.87725
 Alpha virt. eigenvalues --    1.16160   1.19305   1.20686   1.27396   2.56050

 Mulliken charges:
               1
     1  O   -0.756522
     2  H    0.386243
     3  H    0.369372
     4  O   -0.754458
     5  H    0.376748
     6  H    0.378617
 Sum of Mulliken charges =   0.00000

 Dipole moment (field-independent basis, Debye):
    X=              0.6146    Y=             -3.8116    Z=              0.0000  Tot=              3.8609
 Quadrupole moment (field-independent basis, Debye-Ang):
   XX=             -9.8681   YY=             -7.8118   ZZ=            -14.9957
   XY=              8.0071   XZ=              0.0000   YZ=              0.0000

 06\MP4DQ=-33.895195\MP4SDQ=-33.8972369\CCSD=-33.8982739\CCSD(T)=-33.90
 Normal termination of Gaussian 16 at Sun Dec 10 06:23:49 2023.
