 Gaussian 16, Revision A.03,
 Gaussian 16:  ES64L-G16RevA.03 25-Dec-2016

 ------------------
 #p CCSD(T)/CEP-31G
 ------------------

 ------------
 H2O_H2O_1483
 ------------
 Symbolic Z-matrix:
 Charge =  0 Multiplicity = 1

                         Standard orientation:
 ---------------------------------------------------------------------
 Center     Atomic      Atomic             Coordinates (Angstroms)
 Number     Number       Type             X           Y           Z
 ---------------------------------------------------------------------
      1          8           0        0.070228    1.695538   -0.000000
      2          1           0        0.069029    0.712938   -0.000000
      3          1           0       -0.858875    2.015339    0.000000
      4          8           0        0.070228   -1.525343   -0.000000
      5          1           0        0.560491   -2.376900   -0.000000
      6          1           0       -0.894300   -1.712940    0.000000
 ---------------------------------------------------------------------

 SCF Done:  E(RHF) =  -33.6588194979     A.U. after   11 cycles
 E2 =    -0.2288962661D+00 EUMP2 =    -0.33887715764048D+02
 CCSD(T)
 CCSD(T)= -0.33904580561D+02

 The electronic state is 1-A'.
 Alpha  occ. eigenvalues --   -1.38045  -1.32716  -0.73769  -0.68481  -0.58350
 Alpha  occ. eigenvalues --   -0.52695  -0.52432  -0.47334
 Alpha virt. eigenvalues --    0.17566   0.24935   0.28383   0.38669   0.77038
 Alpha virt. eigenvalues --    0.80710   0.84116   0.85442   0.90947   1.01322
 Alpha virt. eigenvalues --    1.14993   1.18821   1.21163   1.36294   2.50056

 Mulliken charges:
               1
     1  O   -0.771119
     2  H    0.416766
     3  H    0.352192
     4  O   -0.777289
     5  H    0.401876
     6  H    0.377574
 Sum of Mulliken charges =   0.00000

 Dipole moment (field-independent basis, Debye):
    X=             -3.1324    Y=             -4.3192    Z=              0.0000  Tot=              5.3355
 Quadrupole moment (field-independent basis, Debye-Ang):
   XX=            -10.0344   YY=             -8.2951   ZZ=            -15.0030
   XY=             -3.8200   XZ=             -0.0000   YZ=              0.0000

 0605\MP4DQ=-33.8987764\MP4SDQ=-33.9008917\CCSD=-33.9018985\CCSD(T)=-33
 Normal termination of Gaussian 16 at Sun Dec 10 06:46:44 2023.
