 Gaussian 16, Revision A.03,
 Gaussian 16:  ES64L-G16RevA.03 25-Dec-2016

 ------------------
 #p CCSD(T)/CEP-31G
 ------------------

 ------------
 H2O_H2O_2777
 ------------
 Symbolic Z-matrix:
 Charge =  0 Multiplicity = 1

                         Standard orientation:
 ---------------------------------------------------------------------
 Center     Atomic      Atomic             Coordinates (Angstroms)
 Number     Number       Type             X           Y           Z
 ---------------------------------------------------------------------
      1          8           0        0.088232   -2.200019    0.000000
      2          1           0        0.088044   -1.217418    0.000000
      3          1           0       -0.841199   -2.518864    0.000000
      4          8           0        0.088232    2.055701    0.000000
      5          1           0        0.216301    3.029922    0.000000
      6          1           0       -0.874866    1.860900    0.000000
 ---------------------------------------------------------------------

 SCF Done:  E(RHF) =  -33.6530647336     A.U. after   11 cycles
 E2 =    -0.2284604074D+00 EUMP2 =    -0.33881525140985D+02
 CCSD(T)
 CCSD(T)= -0.33898507337D+02

 The electronic state is 1-A'.
 Alpha  occ. eigenvalues --   -1.36898  -1.34626  -0.72579  -0.70211  -0.56719
 Alpha  occ. eigenvalues --   -0.54366  -0.51479  -0.49201
 Alpha virt. eigenvalues --    0.17601   0.22290   0.29202   0.31891   0.79089
 Alpha virt. eigenvalues --    0.81351   0.82695   0.84341   0.85829   0.87828
 Alpha virt. eigenvalues --    1.15747   1.18847   1.20542   1.27685   2.56115

 Mulliken charges:
               1
     1  O   -0.746694
     2  H    0.382954
     3  H    0.363005
     4  O   -0.746689
     5  H    0.380188
     6  H    0.367235
 Sum of Mulliken charges =  -0.00000

 Dipole moment (field-independent basis, Debye):
    X=             -4.0289    Y=              3.4664    Z=              0.0000  Tot=              5.3149
 Quadrupole moment (field-independent basis, Debye-Ang):
   XX=            -10.9808   YY=             -8.8071   ZZ=            -14.9897
   XY=              2.8293   XZ=              0.0000   YZ=              0.0000

 0961\MP4DQ=-33.892838\MP4SDQ=-33.8948864\CCSD=-33.8959274\CCSD(T)=-33.
 Normal termination of Gaussian 16 at Sun Dec 10 06:22:59 2023.
