 Gaussian 16, Revision A.03,
 Gaussian 16:  ES64L-G16RevA.03 25-Dec-2016

 ------------------
 #p CCSD(T)/CEP-31G
 ------------------

 ------------
 H2O_H2O_2204
 ------------
 Symbolic Z-matrix:
 Charge =  0 Multiplicity = 1

                         Standard orientation:
 ---------------------------------------------------------------------
 Center     Atomic      Atomic             Coordinates (Angstroms)
 Number     Number       Type             X           Y           Z
 ---------------------------------------------------------------------
      1          8           0        0.082809   -1.976199    0.000000
      2          1           0        0.082356   -0.993598    0.000000
      3          1           0       -0.846536   -2.295294    0.000000
      4          8           0        0.082809    1.821694    0.000000
      5          1           0        0.336687    2.770931    0.000000
      6          1           0       -0.897458    1.754004    0.000000
 ---------------------------------------------------------------------

 SCF Done:  E(RHF) =  -33.6546111489     A.U. after   11 cycles
 E2 =    -0.2286199903D+00 EUMP2 =    -0.33883231139269D+02
 CCSD(T)
 CCSD(T)= -0.33900211597D+02

 The electronic state is 1-A'.
 Alpha  occ. eigenvalues --   -1.37276  -1.34065  -0.72984  -0.69635  -0.57209
 Alpha  occ. eigenvalues --   -0.53815  -0.51873  -0.48653
 Alpha virt. eigenvalues --    0.17379   0.23222   0.28907   0.33440   0.78547
 Alpha virt. eigenvalues --    0.82047   0.82912   0.84840   0.88221   0.89926
 Alpha virt. eigenvalues --    1.15509   1.19236   1.20481   1.33688   2.54186

 Mulliken charges:
               1
     1  O   -0.754082
     2  H    0.392661
     3  H    0.359563
     4  O   -0.752784
     5  H    0.385321
     6  H    0.369322
 Sum of Mulliken charges =   0.00000

 Dipole moment (field-independent basis, Debye):
    X=             -3.7593    Y=              3.7799    Z=              0.0000  Tot=              5.3311
 Quadrupole moment (field-independent basis, Debye-Ang):
   XX=            -10.6583   YY=             -8.3994   ZZ=            -14.9926
   XY=              3.2442   XZ=              0.0000   YZ=              0.0000

 7544\MP4DQ=-33.8944938\MP4SDQ=-33.8965744\CCSD=-33.8976042\CCSD(T)=-33
 Normal termination of Gaussian 16 at Sun Dec 10 07:00:51 2023.
