 Gaussian 16, Revision A.03,
 Gaussian 16:  ES64L-G16RevA.03 25-Dec-2016

 ------------------
 #p CCSD(T)/CEP-31G
 ------------------

 -----------
 H2O_H2O_695
 -----------
 Symbolic Z-matrix:
 Charge =  0 Multiplicity = 1

                         Standard orientation:
 ---------------------------------------------------------------------
 Center     Atomic      Atomic             Coordinates (Angstroms)
 Number     Number       Type             X           Y           Z
 ---------------------------------------------------------------------
      1          8           0        0.026822    1.378041    0.000000
      2          1           0        0.022465    0.395449    0.000000
      3          1           0       -0.901250    1.700825    0.000000
      4          8           0        0.026822   -1.204917    0.000000
      5          1           0        0.974806   -1.463439    0.000000
      6          1           0       -0.525166   -2.017823    0.000000
 ---------------------------------------------------------------------

 SCF Done:  E(RHF) =  -33.6594393709     A.U. after   11 cycles
 E2 =    -0.2286771966D+00 EUMP2 =    -0.33888116567547D+02
 CCSD(T)
 CCSD(T)= -0.33904160728D+02

 The electronic state is 1-A'.
 Alpha  occ. eigenvalues --   -1.40113  -1.30144  -0.75864  -0.69299  -0.59242
 Alpha  occ. eigenvalues --   -0.54755  -0.49306  -0.44733
 Alpha virt. eigenvalues --    0.17407   0.27145   0.27718   0.50865   0.74452
 Alpha virt. eigenvalues --    0.75808   0.86333   0.88163   0.94475   1.02819
 Alpha virt. eigenvalues --    1.16000   1.19657   1.24579   1.37466   2.61933

 Mulliken charges:
               1
     1  O   -0.779550
     2  H    0.418183
     3  H    0.346484
     4  O   -0.832152
     5  H    0.411316
     6  H    0.435719
 Sum of Mulliken charges =  -0.00000

 Dipole moment (field-independent basis, Debye):
    X=             -1.1862    Y=             -4.7797    Z=              0.0000  Tot=              4.9247
 Quadrupole moment (field-independent basis, Debye-Ang):
   XX=             -9.4565   YY=             -9.3087   ZZ=            -15.0165
   XY=             -4.3149   XZ=              0.0000   YZ=              0.0000

 24\MP4DQ=-33.8982423\MP4SDQ=-33.9003993\CCSD=-33.901268\CCSD(T)=-33.90
 Normal termination of Gaussian 16 at Sun Dec 10 06:31:35 2023.
