 Gaussian 16, Revision A.03,
 Gaussian 16:  ES64L-G16RevA.03 25-Dec-2016

 ------------------
 #p CCSD(T)/CEP-31G
 ------------------

 ------------
 H2O_H2O_1278
 ------------
 Symbolic Z-matrix:
 Charge =  0 Multiplicity = 1

                         Standard orientation:
 ---------------------------------------------------------------------
 Center     Atomic      Atomic             Coordinates (Angstroms)
 Number     Number       Type             X           Y           Z
 ---------------------------------------------------------------------
      1          8           0        0.085611   -1.604559    0.000000
      2          1           0        0.085203   -0.621958    0.000000
      3          1           0       -0.843750   -1.923611    0.000000
      4          8           0        0.085611    1.454986    0.000000
      5          1           0        0.276908    2.418786    0.000000
      6          1           0       -0.888136    1.323373    0.000000
 ---------------------------------------------------------------------

 SCF Done:  E(RHF) =  -33.6551813061     A.U. after   11 cycles
 E2 =    -0.2290627476D+00 EUMP2 =    -0.33884244053691D+02
 CCSD(T)
 CCSD(T)= -0.33901218172D+02

 The electronic state is 1-A'.
 Alpha  occ. eigenvalues --   -1.38508  -1.33207  -0.74520  -0.68832  -0.58545
 Alpha  occ. eigenvalues --   -0.53067  -0.52812  -0.47754
 Alpha virt. eigenvalues --    0.16914   0.25005   0.27931   0.39884   0.76240
 Alpha virt. eigenvalues --    0.80276   0.84355   0.84951   0.90570   1.10207
 Alpha virt. eigenvalues --    1.15972   1.17597   1.22031   1.39206   2.50344

 Mulliken charges:
               1
     1  O   -0.757305
     2  H    0.401579
     3  H    0.349221
     4  O   -0.773461
     5  H    0.409828
     6  H    0.370139
 Sum of Mulliken charges =   0.00000

 Dipole moment (field-independent basis, Debye):
    X=             -3.8175    Y=              3.8806    Z=              0.0000  Tot=              5.4436
 Quadrupole moment (field-independent basis, Debye-Ang):
   XX=            -10.8525   YY=             -9.0155   ZZ=            -14.9950
   XY=              2.8674   XZ=              0.0000   YZ=              0.0000

 6285\MP4DQ=-33.8953265\MP4SDQ=-33.8975025\CCSD=-33.8984971\CCSD(T)=-33
 Normal termination of Gaussian 16 at Sun Dec 10 06:42:40 2023.
