 Gaussian 16, Revision A.03,
 Gaussian 16:  ES64L-G16RevA.03 25-Dec-2016

 ------------------
 #p CCSD(T)/CEP-31G
 ------------------

 ------------
 H2O_H2O_2610
 ------------
 Symbolic Z-matrix:
 Charge =  0 Multiplicity = 1

                         Standard orientation:
 ---------------------------------------------------------------------
 Center     Atomic      Atomic             Coordinates (Angstroms)
 Number     Number       Type             X           Y           Z
 ---------------------------------------------------------------------
      1          8           0        0.063246    2.147152    0.000000
      2          1           0        0.062021    1.164551    0.000000
      3          1           0       -0.865849    2.466977    0.000000
      4          8           0        0.063246   -1.971659   -0.000000
      5          1           0        0.660444   -2.751954   -0.000000
      6          1           0       -0.868552   -2.283522   -0.000000
 ---------------------------------------------------------------------

 SCF Done:  E(RHF) =  -33.6555692549     A.U. after   11 cycles
 E2 =    -0.2284231443D+00 EUMP2 =    -0.33883992399198D+02
 CCSD(T)
 CCSD(T)= -0.33900907734D+02

 The electronic state is 1-A'.
 Alpha  occ. eigenvalues --   -1.36950  -1.33842  -0.72607  -0.69447  -0.56920
 Alpha  occ. eigenvalues --   -0.53652  -0.51572  -0.48459
 Alpha virt. eigenvalues --    0.18378   0.22724   0.29243   0.32903   0.78978
 Alpha virt. eigenvalues --    0.82052   0.83577   0.84917   0.85439   0.88310
 Alpha virt. eigenvalues --    1.16072   1.19571   1.20523   1.28416   2.54910

 Mulliken charges:
               1
     1  O   -0.756570
     2  H    0.392585
     3  H    0.362537
     4  O   -0.753491
     5  H    0.381413
     6  H    0.373526
 Sum of Mulliken charges =   0.00000

 Dipole moment (field-independent basis, Debye):
    X=             -2.8766    Y=             -4.2370    Z=             -0.0000  Tot=              5.1212
 Quadrupole moment (field-independent basis, Debye-Ang):
   XX=             -9.7777   YY=             -7.0787   ZZ=            -14.9959
   XY=             -4.7390   XZ=             -0.0000   YZ=              0.0000

 491\MP4DQ=-33.8952423\MP4SDQ=-33.8972947\CCSD=-33.8983284\CCSD(T)=-33.
 Normal termination of Gaussian 16 at Sun Dec 10 06:19:59 2023.
