 Gaussian 16, Revision A.03,
 Gaussian 16:  ES64L-G16RevA.03 25-Dec-2016

 ------------------
 #p CCSD(T)/CEP-31G
 ------------------

 ------------
 H2O_H2O_3316
 ------------
 Symbolic Z-matrix:
 Charge =  0 Multiplicity = 1

                         Standard orientation:
 ---------------------------------------------------------------------
 Center     Atomic      Atomic             Coordinates (Angstroms)
 Number     Number       Type             X           Y           Z
 ---------------------------------------------------------------------
      1          8           0        0.041135    2.428778   -0.000000
      2          1           0        0.039255    1.446178   -0.000000
      3          1           0       -0.887747    2.749223   -0.000000
      4          8           0        0.041135   -2.248848    0.000000
      5          1           0        0.891152   -2.741777    0.000000
      6          1           0       -0.700819   -2.893061    0.000000
 ---------------------------------------------------------------------

 SCF Done:  E(RHF) =  -33.6547818431     A.U. after   11 cycles
 E2 =    -0.2282961185D+00 EUMP2 =    -0.33883077961589D+02
 CCSD(T)
 CCSD(T)= -0.33899995029D+02

 The electronic state is 1-A'.
 Alpha  occ. eigenvalues --   -1.36579  -1.34181  -0.72222  -0.69807  -0.56488
 Alpha  occ. eigenvalues --   -0.54000  -0.51194  -0.48797
 Alpha virt. eigenvalues --    0.19099   0.21978   0.29602   0.32145   0.79372
 Alpha virt. eigenvalues --    0.81690   0.82260   0.84672   0.85405   0.87841
 Alpha virt. eigenvalues --    1.16448   1.19004   1.20872   1.24354   2.56354

 Mulliken charges:
               1
     1  O   -0.752798
     2  H    0.385693
     3  H    0.366668
     4  O   -0.751104
     5  H    0.377126
     6  H    0.374415
 Sum of Mulliken charges =  -0.00000

 Dipole moment (field-independent basis, Debye):
    X=             -1.8786    Y=             -4.2728    Z=              0.0000  Tot=              4.6676
 Quadrupole moment (field-independent basis, Debye-Ang):
   XX=             -9.4096   YY=             -6.2066   ZZ=            -14.9946
   XY=             -6.6686   XZ=              0.0000   YZ=             -0.0000

 83\MP4DQ=-33.8943614\MP4SDQ=-33.8963909\CCSD=-33.8974346\CCSD(T)=-33.8
 Normal termination of Gaussian 16 at Sun Dec 10 06:32:45 2023.
