 Gaussian 16, Revision A.03,
 Gaussian 16:  ES64L-G16RevA.03 25-Dec-2016

 ------------------
 #p CCSD(T)/CEP-31G
 ------------------

 ------------
 H2O_H2O_1540
 ------------
 Symbolic Z-matrix:
 Charge =  0 Multiplicity = 1

                         Standard orientation:
 ---------------------------------------------------------------------
 Center     Atomic      Atomic             Coordinates (Angstroms)
 Number     Number       Type             X           Y           Z
 ---------------------------------------------------------------------
      1          8           0        0.044922    1.720996   -0.000000
      2          1           0        0.042419    0.738398   -0.000000
      3          1           0       -0.883756    2.042029   -0.000000
      4          8           0        0.044922   -1.540660    0.000000
      5          1           0        0.860532   -2.088644    0.000000
      6          1           0       -0.737954   -2.134470    0.000000
 ---------------------------------------------------------------------

 SCF Done:  E(RHF) =  -33.6611255731     A.U. after   11 cycles
 E2 =    -0.2288286226D+00 EUMP2 =    -0.33889954195736D+02
 CCSD(T)
 CCSD(T)= -0.33906724010D+02

 The electronic state is 1-A'.
 Alpha  occ. eigenvalues --   -1.37897  -1.32356  -0.73534  -0.68204  -0.58385
 Alpha  occ. eigenvalues --   -0.52599  -0.52149  -0.47024
 Alpha virt. eigenvalues --    0.17958   0.25104   0.28640   0.38779   0.77247
 Alpha virt. eigenvalues --    0.80698   0.84226   0.86118   0.90994   0.96459
 Alpha virt. eigenvalues --    1.15247   1.19709   1.21148   1.33840   2.49705

 Mulliken charges:
               1
     1  O   -0.779917
     2  H    0.421899
     3  H    0.356393
     4  O   -0.779450
     5  H    0.393663
     6  H    0.387412
 Sum of Mulliken charges =  -0.00000

 Dipole moment (field-independent basis, Debye):
    X=             -2.0046    Y=             -4.5404    Z=              0.0000  Tot=              4.9632
 Quadrupole moment (field-independent basis, Debye-Ang):
   XX=             -9.4032   YY=             -8.0042   ZZ=            -15.0085
   XY=             -4.8110   XZ=              0.0000   YZ=             -0.0000

 2379\MP4DQ=-33.9009605\MP4SDQ=-33.9030471\CCSD=-33.9040509\CCSD(T)=-33
 Normal termination of Gaussian 16 at Sun Dec 10 06:47:53 2023.
