 Gaussian 16, Revision A.03,
 Gaussian 16:  ES64L-G16RevA.03 25-Dec-2016

 ------------------
 #p CCSD(T)/CEP-31G
 ------------------

 -----------
 H2O_H2O_785
 -----------
 Symbolic Z-matrix:
 Charge =  0 Multiplicity = 1

                         Standard orientation:
 ---------------------------------------------------------------------
 Center     Atomic      Atomic             Coordinates (Angstroms)
 Number     Number       Type             X           Y           Z
 ---------------------------------------------------------------------
      1          8           0        0.063306    1.419159    0.000000
      2          1           0        0.061412    0.436559    0.000000
      3          1           0       -0.865571    1.739617    0.000000
      4          8           0        0.063306   -1.243752   -0.000000
      5          1           0        0.659972   -2.024453   -0.000000
      6          1           0       -0.868705   -1.554980   -0.000000
 ---------------------------------------------------------------------

 SCF Done:  E(RHF) =  -33.6592203518     A.U. after   11 cycles
 E2 =    -0.2291039603D+00 EUMP2 =    -0.33888324312098D+02
 CCSD(T)
 CCSD(T)= -0.33904569270D+02

 The electronic state is 1-A'.
 Alpha  occ. eigenvalues --   -1.39783  -1.30714  -0.75441  -0.69051  -0.59145
 Alpha  occ. eigenvalues --   -0.54437  -0.49991  -0.45256
 Alpha virt. eigenvalues --    0.17195   0.26822   0.27536   0.48845   0.74705
 Alpha virt. eigenvalues --    0.76240   0.85210   0.87530   0.96043   1.04441
 Alpha virt. eigenvalues --    1.15622   1.18431   1.22717   1.36551   2.58701

 Mulliken charges:
               1
     1  O   -0.773227
     2  H    0.429763
     3  H    0.337338
     4  O   -0.822554
     5  H    0.433702
     6  H    0.394979
 Sum of Mulliken charges =   0.00000

 Dipole moment (field-independent basis, Debye):
    X=             -2.7186    Y=             -4.7616    Z=             -0.0000  Tot=              5.4830
 Quadrupole moment (field-independent basis, Debye-Ang):
   XX=             -9.7509   YY=             -9.1576   ZZ=            -15.0129
   XY=             -3.7325   XZ=             -0.0000   YZ=              0.0000

 804\MP4DQ=-33.8986362\MP4SDQ=-33.9008055\CCSD=-33.9016976\CCSD(T)=-33.
 Normal termination of Gaussian 16 at Sun Dec 10 06:33:17 2023.
