 Gaussian 16, Revision A.03,
 Gaussian 16:  ES64L-G16RevA.03 25-Dec-2016

 ------------------
 #p CCSD(T)/CEP-31G
 ------------------

 -----------
 H2O_H2O_774
 -----------
 Symbolic Z-matrix:
 Charge =  0 Multiplicity = 1

                         Standard orientation:
 ---------------------------------------------------------------------
 Center     Atomic      Atomic             Coordinates (Angstroms)
 Number     Number       Type             X           Y           Z
 ---------------------------------------------------------------------
      1          8           0        0.013691   -1.400398    0.000000
      2          1           0        0.008589   -0.417810    0.000000
      3          1           0       -0.914134   -1.723887    0.000000
      4          8           0        0.013691    1.241196    0.000000
      5          1           0        0.996280    1.246298    0.000000
      6          1           0       -0.309797    2.169021    0.000000
 ---------------------------------------------------------------------

 SCF Done:  E(RHF) =  -33.6581757166     A.U. after   11 cycles
 E2 =    -0.2284303290D+00 EUMP2 =    -0.33886606045645D+02
 CCSD(T)
 CCSD(T)= -0.33902973256D+02

 The electronic state is 1-A'.
 Alpha  occ. eigenvalues --   -1.39814  -1.30984  -0.76124  -0.68306  -0.59685
 Alpha  occ. eigenvalues --   -0.54371  -0.50296  -0.45619
 Alpha virt. eigenvalues --    0.17493   0.26792   0.27695   0.48567   0.74612
 Alpha virt. eigenvalues --    0.77342   0.86615   0.87390   0.91835   1.09283
 Alpha virt. eigenvalues --    1.15349   1.22177   1.27862   1.37433   2.59678

 Mulliken charges:
               1
     1  O   -0.772144
     2  H    0.395991
     3  H    0.357080
     4  O   -0.824143
     5  H    0.402761
     6  H    0.440454
 Sum of Mulliken charges =  -0.00000

 Dipole moment (field-independent basis, Debye):
    X=             -0.6142    Y=              4.3868    Z=              0.0000  Tot=              4.4296
 Quadrupole moment (field-independent basis, Debye-Ang):
   XX=             -9.8241   YY=             -9.2289   ZZ=            -15.0118
   XY=              4.8994   XZ=              0.0000   YZ=              0.0000

 07\MP4DQ=-33.8970408\MP4SDQ=-33.8992279\CCSD=-33.9001404\CCSD(T)=-33.9
 Normal termination of Gaussian 16 at Sun Dec 10 06:33:04 2023.
