 Gaussian 16, Revision A.03,
 Gaussian 16:  ES64L-G16RevA.03 25-Dec-2016

 ------------------
 #p CCSD(T)/CEP-31G
 ------------------

 -----------
 H2O_H2O_767
 -----------
 Symbolic Z-matrix:
 Charge =  0 Multiplicity = 1

                         Standard orientation:
 ---------------------------------------------------------------------
 Center     Atomic      Atomic             Coordinates (Angstroms)
 Number     Number       Type             X           Y           Z
 ---------------------------------------------------------------------
      1          8           0        0.037581    1.411065   -0.000000
      2          1           0        0.034017    0.428470   -0.000000
      3          1           0       -0.890750    1.733101    0.000000
      4          8           0        0.037581   -1.232214   -0.000000
      5          1           0        0.917268   -1.670001   -0.000000
      6          1           0       -0.661835   -1.922375    0.000000
 ---------------------------------------------------------------------

 SCF Done:  E(RHF) =  -33.6615510719     A.U. after   11 cycles
 E2 =    -0.2289786694D+00 EUMP2 =    -0.33890529741326D+02
 CCSD(T)
 CCSD(T)= -0.33906624659D+02

 The electronic state is 1-A'.
 Alpha  occ. eigenvalues --   -1.39785  -1.30271  -0.75271  -0.69188  -0.59215
 Alpha  occ. eigenvalues --   -0.54501  -0.49538  -0.44866
 Alpha virt. eigenvalues --    0.17426   0.27415   0.27478   0.49776   0.74692
 Alpha virt. eigenvalues --    0.75647   0.85744   0.87848   0.96138   0.99886
 Alpha virt. eigenvalues --    1.15450   1.18349   1.23797   1.37009   2.58979

 Mulliken charges:
               1
     1  O   -0.783998
     2  H    0.432095
     3  H    0.343492
     4  O   -0.825988
     5  H    0.414639
     6  H    0.419760
 Sum of Mulliken charges =   0.00000

 Dipole moment (field-independent basis, Debye):
    X=             -1.6400    Y=             -4.8517    Z=              0.0000  Tot=              5.1214
 Quadrupole moment (field-independent basis, Debye-Ang):
   XX=             -9.3447   YY=             -9.2076   ZZ=            -15.0194
   XY=             -4.1844   XZ=             -0.0000   YZ=              0.0000

 698\MP4DQ=-33.9007275\MP4SDQ=-33.9028655\CCSD=-33.9037419\CCSD(T)=-33.
 Normal termination of Gaussian 16 at Sun Dec 10 06:32:57 2023.
