 Gaussian 16, Revision A.03,
 Gaussian 16:  ES64L-G16RevA.03 25-Dec-2016

 ------------------
 #p CCSD(T)/CEP-31G
 ------------------

 ------------
 H2O_H2O_2496
 ------------
 Symbolic Z-matrix:
 Charge =  0 Multiplicity = 1

                         Standard orientation:
 ---------------------------------------------------------------------
 Center     Atomic      Atomic             Coordinates (Angstroms)
 Number     Number       Type             X           Y           Z
 ---------------------------------------------------------------------
      1          8           0       -0.023238    2.094518    0.000000
      2          1           0       -0.020292    1.111921    0.000000
      3          1           0        0.905296    2.415969    0.000000
      4          8           0       -0.023238   -1.924146    0.000000
      5          1           0       -0.986380   -2.118731    0.000000
      6          1           0        0.473186   -2.772127    0.000000
 ---------------------------------------------------------------------

 SCF Done:  E(RHF) =  -33.6567920267     A.U. after   11 cycles
 E2 =    -0.2283939572D+00 EUMP2 =    -0.33885185983912D+02
 CCSD(T)
 CCSD(T)= -0.33902079499D+02

 The electronic state is 1-A'.
 Alpha  occ. eigenvalues --   -1.36977  -1.33765  -0.72633  -0.69411  -0.57020
 Alpha  occ. eigenvalues --   -0.53628  -0.51617  -0.48413
 Alpha virt. eigenvalues --    0.18270   0.23006   0.29298   0.33179   0.78900
 Alpha virt. eigenvalues --    0.82110   0.83245   0.84946   0.86659   0.88055
 Alpha virt. eigenvalues --    1.16063   1.19776   1.20559   1.29820   2.54729

 Mulliken charges:
               1
     1  O   -0.761734
     2  H    0.393170
     3  H    0.366922
     4  O   -0.757546
     5  H    0.379508
     6  H    0.379679
 Sum of Mulliken charges =  -0.00000

 Dipole moment (field-independent basis, Debye):
    X=              1.0520    Y=             -4.1189    Z=              0.0000  Tot=              4.2511
 Quadrupole moment (field-independent basis, Debye-Ang):
   XX=             -9.5863   YY=             -7.4110   ZZ=            -14.9982
   XY=              6.8794   XZ=              0.0000   YZ=              0.0000

 1\MP4DQ=-33.8964113\MP4SDQ=-33.8984667\CCSD=-33.8994972\CCSD(T)=-33.90
 Normal termination of Gaussian 16 at Sun Dec 10 07:07:24 2023.
