 Gaussian 16, Revision A.03,
 Gaussian 16:  ES64L-G16RevA.03 25-Dec-2016

 ------------------
 #p CCSD(T)/CEP-31G
 ------------------

 ------------
 H2O_H2O_1329
 ------------
 Symbolic Z-matrix:
 Charge =  0 Multiplicity = 1

                         Standard orientation:
 ---------------------------------------------------------------------
 Center     Atomic      Atomic             Coordinates (Angstroms)
 Number     Number       Type             X           Y           Z
 ---------------------------------------------------------------------
      1          8           0        0.082817   -1.627173    0.000000
      2          1           0        0.082262   -0.644572    0.000000
      3          1           0       -0.846495   -1.946364    0.000000
      4          8           0        0.082817    1.472685    0.000000
      5          1           0        0.336597    2.421949    0.000000
      6          1           0       -0.897442    1.404893    0.000000
 ---------------------------------------------------------------------

 SCF Done:  E(RHF) =  -33.6561895547     A.U. after   11 cycles
 E2 =    -0.2290078912D+00 EUMP2 =    -0.33885197445917D+02
 CCSD(T)
 CCSD(T)= -0.33902149290D+02

 The electronic state is 1-A'.
 Alpha  occ. eigenvalues --   -1.38381  -1.33087  -0.74302  -0.68763  -0.58489
 Alpha  occ. eigenvalues --   -0.52966  -0.52718  -0.47653
 Alpha virt. eigenvalues --    0.17058   0.24994   0.28021   0.39515   0.76453
 Alpha virt. eigenvalues --    0.80359   0.84278   0.85062   0.90660   1.08683
 Alpha virt. eigenvalues --    1.15546   1.17431   1.21795   1.38845   2.50312

 Mulliken charges:
               1
     1  O   -0.761117
     2  H    0.406303
     3  H    0.349805
     4  O   -0.775289
     5  H    0.408351
     6  H    0.371948
 Sum of Mulliken charges =   0.00000

 Dipole moment (field-independent basis, Debye):
    X=             -3.6941    Y=              3.9851    Z=              0.0000  Tot=              5.4339
 Quadrupole moment (field-independent basis, Debye-Ang):
   XX=            -10.6795   YY=             -8.8397   ZZ=            -14.9971
   XY=              3.0712   XZ=              0.0000   YZ=              0.0000

 769\MP4DQ=-33.8962803\MP4SDQ=-33.8984405\CCSD=-33.8994401\CCSD(T)=-33.
 Normal termination of Gaussian 16 at Sun Dec 10 06:43:41 2023.
