 Gaussian 16, Revision A.03,
 Gaussian 16:  ES64L-G16RevA.03 25-Dec-2016

 --------------------
 #p ROCCSD(T)/cc-pVTZ
 --------------------

 --
 O2
 --
 Symbolic Z-matrix:
 Charge =  0 Multiplicity = 3

                         Standard orientation:
 ---------------------------------------------------------------------
 Center     Atomic      Atomic             Coordinates (Angstroms)
 Number     Number       Type             X           Y           Z
 ---------------------------------------------------------------------
      1          8           0        0.000000    0.000000    0.580000
      2          8           0        0.000000    0.000000   -0.580000
 ---------------------------------------------------------------------

 SCF Done:  E(ROHF) =  -149.658295419     A.U. after    8 cycles
 E2 =    -0.4611239837D+00 EUMP2 =    -0.15011941940266D+03
 CCSD(T)
 CCSD(T)= -0.15012481217D+03

 The electronic state is 3-SGG.
 Alpha  occ. eigenvalues --  -20.74051 -20.73975  -1.74550  -1.17095  -0.83830
 Alpha  occ. eigenvalues --   -0.83830  -0.78176  -0.51025  -0.51025
 Alpha virt. eigenvalues --    0.41398   0.67978   0.67978   0.72027   0.77977
 Alpha virt. eigenvalues --    0.79759   0.79759   0.87036   1.41909   1.43186
 Alpha virt. eigenvalues --    1.43186   1.56316   1.56316   1.88072   1.88072

 Mulliken charges and spin densities:
               1          2
     1  O   -0.000000   1.000000
     2  O   -0.000000   1.000000
 Sum of Mulliken charges =  -0.00000   2.00000

 Dipole moment (field-independent basis, Debye):
    X=             -0.0000    Y=             -0.0000    Z=              0.0000  Tot=              0.0000
 Quadrupole moment (field-independent basis, Debye-Ang):
   XX=             -9.8190   YY=             -9.8190   ZZ=            -10.4191
   XY=              0.0000   XZ=              0.0000   YZ=              0.0000

 150.1071823\CCSD(T)=-150.1248122\RMSD=5.125e-09\PG=D*H [C*(O1.O1)]\\@
 Normal termination of Gaussian 16 at Tue Feb 13 11:47:49 2024.
