 Gaussian 16, Revision A.03,
 Gaussian 16:  ES64L-G16RevA.03 25-Dec-2016

 ------------------
 #p CCSD(T)/cc-pVTZ
 ------------------

 ---------
 O2_O2_126
 ---------
 Symbolic Z-matrix:
 Charge =  0 Multiplicity = 1

                         Standard orientation:
 ---------------------------------------------------------------------
 Center     Atomic      Atomic             Coordinates (Angstroms)
 Number     Number       Type             X           Y           Z
 ---------------------------------------------------------------------
      1          8           0        0.000000    0.000000    2.500000
      2          8           0        0.000000    0.000000    1.340000
      3          8           0        0.000000    0.000000   -1.340000
      4          8           0        0.000000    0.000000   -2.500000
 ---------------------------------------------------------------------

 SCF Done:  E(RHF) =  -298.854771287     A.U. after   10 cycles
 E2 =    -0.1887677296D+01 EUMP2 =    -0.30074244858359D+03
 CCSD(T)
 CCSD(T)= -0.30024733915D+03

 The electronic state is 1-SGG.
 Alpha  occ. eigenvalues --  -20.78555 -20.78552 -20.75297 -20.75296  -1.72397
 Alpha  occ. eigenvalues --   -1.72267  -1.11322  -1.09672  -0.78385  -0.75990
 Alpha  occ. eigenvalues --   -0.75162  -0.75162  -0.74163  -0.74163  -0.28691
 Alpha  occ. eigenvalues --   -0.28691
 Alpha virt. eigenvalues --   -0.13035  -0.13035   0.40630   0.48939   0.66769
 Alpha virt. eigenvalues --    0.66769   0.67068   0.71256   0.71256   0.75921
 Alpha virt. eigenvalues --    0.78609   0.78609   0.80118   0.85474   0.86804

 Mulliken charges:
               1
     1  O   -0.035529
     2  O    0.035529
     3  O    0.035529
     4  O   -0.035529
 Sum of Mulliken charges =  -0.00000

 Dipole moment (field-independent basis, Debye):
    X=             -0.0000    Y=              0.0000    Z=             -0.0000  Tot=              0.0000
 Quadrupole moment (field-independent basis, Debye-Ang):
   XX=            -20.1713   YY=            -20.1713   ZZ=            -21.9046
   XY=              0.0000   XZ=              0.0000   YZ=              0.0000

 4SDQ=-300.8517286\CCSD=-300.0351375\CCSD(T)=-300.2473391\RMSD=2.395e-0
 Normal termination of Gaussian 16 at Fri Feb  9 19:27:07 2024.
