 Gaussian 16, Revision A.03,
 Gaussian 16:  ES64L-G16RevA.03 25-Dec-2016

 ------------------
 #p CCSD(T)/cc-pVTZ
 ------------------

 ---------
 O2_O2_152
 ---------
 Symbolic Z-matrix:
 Charge =  0 Multiplicity = 1

                         Standard orientation:
 ---------------------------------------------------------------------
 Center     Atomic      Atomic             Coordinates (Angstroms)
 Number     Number       Type             X           Y           Z
 ---------------------------------------------------------------------
      1          8           0       -0.870000   -1.790000    0.000000
      2          8           0        0.290000   -1.790000    0.000000
      3          8           0        0.290000    1.210000    0.000000
      4          8           0        0.290000    2.370000    0.000000
 ---------------------------------------------------------------------

 SCF Done:  E(RHF) =  -299.188716968     A.U. after   21 cycles
 E2 =    -0.9199133262D+00 EUMP2 =    -0.30010863029428D+03
 CCSD(T)
 CCSD(T)= -0.30015156223D+03

 The electronic state is 1-A'.
 Alpha  occ. eigenvalues --  -20.72921 -20.72804 -20.72741 -20.72620  -1.69854
 Alpha  occ. eigenvalues --   -1.69683  -1.08604  -1.08317  -0.78769  -0.78470
 Alpha  occ. eigenvalues --   -0.75325  -0.74677  -0.67371  -0.67218  -0.44797
 Alpha  occ. eigenvalues --   -0.44631
 Alpha virt. eigenvalues --    0.04980   0.05138   0.41828   0.44146   0.64089
 Alpha virt. eigenvalues --    0.68216   0.69159   0.72131   0.72756   0.76970
 Alpha virt. eigenvalues --    0.78915   0.80759   0.80983   0.82639   0.85638

 Mulliken charges:
               1
     1  O   -0.000989
     2  O    0.001447
     3  O    0.001387
     4  O   -0.001845
 Sum of Mulliken charges =  -0.00000

 Dipole moment (field-independent basis, Debye):
    X=              0.0101    Y=             -0.0247    Z=              0.0000  Tot=              0.0267
 Quadrupole moment (field-independent basis, Debye-Ang):
   XX=            -19.5623   YY=            -21.3017   ZZ=            -19.7615
   XY=             -0.0224   XZ=              0.0000   YZ=              0.0000

 Q=-300.1140025\CCSD=-300.1105851\CCSD(T)=-300.1515622\RMSD=1.830e-09\P
 Normal termination of Gaussian 16 at Fri Feb  9 19:46:30 2024.
