 Gaussian 16, Revision A.03,
 Gaussian 16:  ES64L-G16RevA.03 25-Dec-2016

 ------------------
 #p CCSD(T)/cc-pVTZ
 ------------------

 ---------
 O2_O2_274
 ---------
 Symbolic Z-matrix:
 Charge =  0 Multiplicity = 1

                         Standard orientation:
 ---------------------------------------------------------------------
 Center     Atomic      Atomic             Coordinates (Angstroms)
 Number     Number       Type             X           Y           Z
 ---------------------------------------------------------------------
      1          8           0        0.615183   -3.225183    0.000000
      2          8           0       -0.205061   -2.404939   -0.000000
      3          8           0       -0.205061    2.235061   -0.000000
      4          8           0       -0.205061    3.395061   -0.000000
 ---------------------------------------------------------------------

 SCF Done:  E(RHF) =  -299.188877313     A.U. after   16 cycles
 E2 =    -0.9189759113D+00 EUMP2 =    -0.30010785322454D+03
 CCSD(T)
 CCSD(T)= -0.30015086086D+03

 The electronic state is 1-A'.
 Alpha  occ. eigenvalues --  -20.72930 -20.72905 -20.72814 -20.72789  -1.69864
 Alpha  occ. eigenvalues --   -1.69841  -1.08551  -1.08524  -0.78640  -0.78617
 Alpha  occ. eigenvalues --   -0.75175  -0.75139  -0.67392  -0.67369  -0.44808
 Alpha  occ. eigenvalues --   -0.44784
 Alpha virt. eigenvalues --    0.04967   0.04992   0.42440   0.44135   0.70328
 Alpha virt. eigenvalues --    0.70430   0.70583   0.70599   0.72003   0.73151
 Alpha virt. eigenvalues --    0.79452   0.80391   0.82241   0.82485   0.84734

 Mulliken charges:
               1
     1  O   -0.000316
     2  O    0.000336
     3  O    0.000546
     4  O   -0.000566
 Sum of Mulliken charges =  -0.00000

 Dipole moment (field-independent basis, Debye):
    X=             -0.0008    Y=             -0.0036    Z=              0.0000  Tot=              0.0036
 Quadrupole moment (field-independent basis, Debye-Ang):
   XX=            -19.6562   YY=            -21.1147   ZZ=            -19.7591
   XY=             -0.0979   XZ=             -0.0000   YZ=             -0.0000

 P4DQ=-300.1007122\MP4SDQ=-300.1133972\CCSD=-300.1100002\CCSD(T)=-300.1
 Normal termination of Gaussian 16 at Fri Feb  9 21:18:41 2024.
