 Gaussian 16, Revision A.03,
 Gaussian 16:  ES64L-G16RevA.03 25-Dec-2016

 ------------------
 #p CCSD(T)/cc-pVTZ
 ------------------

 ---------
 O2_O2_299
 ---------
 Symbolic Z-matrix:
 Charge =  0 Multiplicity = 1

                         Standard orientation:
 ---------------------------------------------------------------------
 Center     Atomic      Atomic             Coordinates (Angstroms)
 Number     Number       Type             X           Y           Z
 ---------------------------------------------------------------------
      1          8           0       -0.870000   -2.770000    0.000000
      2          8           0        0.290000   -2.770000    0.000000
      3          8           0        0.290000    2.190000    0.000000
      4          8           0        0.290000    3.350000    0.000000
 ---------------------------------------------------------------------

 SCF Done:  E(RHF) =  -299.188872608     A.U. after   18 cycles
 E2 =    -0.9189529026D+00 EUMP2 =    -0.30010782551017D+03
 CCSD(T)
 CCSD(T)= -0.30015084234D+03

 The electronic state is 1-A'.
 Alpha  occ. eigenvalues --  -20.72931 -20.72903 -20.72815 -20.72787  -1.69864
 Alpha  occ. eigenvalues --   -1.69839  -1.08553  -1.08523  -0.78640  -0.78616
 Alpha  occ. eigenvalues --   -0.75175  -0.75143  -0.67393  -0.67367  -0.44810
 Alpha  occ. eigenvalues --   -0.44783
 Alpha virt. eigenvalues --    0.04965   0.04994   0.43260   0.43364   0.70352
 Alpha virt. eigenvalues --    0.70435   0.70579   0.70603   0.72553   0.72662
 Alpha virt. eigenvalues --    0.79924   0.79998   0.82232   0.82245   0.84726

 Mulliken charges:
               1
     1  O   -0.000170
     2  O    0.000173
     3  O    0.000558
     4  O   -0.000561
 Sum of Mulliken charges =  -0.00000

 Dipole moment (field-independent basis, Debye):
    X=              0.0010    Y=             -0.0040    Z=              0.0000  Tot=              0.0042
 Quadrupole moment (field-independent basis, Debye-Ang):
   XX=            -19.5526   YY=            -21.2106   ZZ=            -19.7590
   XY=             -0.0048   XZ=              0.0000   YZ=              0.0000

 4SDQ=-300.1133769\CCSD=-300.1099836\CCSD(T)=-300.1508423\RMSD=8.214e-0
 Normal termination of Gaussian 16 at Fri Feb  9 21:36:03 2024.
