 Gaussian 16, Revision A.03,
 Gaussian 16:  ES64L-G16RevA.03 25-Dec-2016

 ------------------
 #p CCSD(T)/cc-pVTZ
 ------------------

 ---------
 O2_O2_253
 ---------
 Symbolic Z-matrix:
 Charge =  0 Multiplicity = 1

                         Standard orientation:
 ---------------------------------------------------------------------
 Center     Atomic      Atomic             Coordinates (Angstroms)
 Number     Number       Type             X           Y           Z
 ---------------------------------------------------------------------
      1          8           0        0.615183   -3.085183    0.000000
      2          8           0       -0.205061   -2.264939   -0.000000
      3          8           0       -0.205061    2.095062   -0.000000
      4          8           0       -0.205061    3.255060   -0.000000
 ---------------------------------------------------------------------

 SCF Done:  E(RHF) =  -299.188895075     A.U. after   17 cycles
 E2 =    -0.9190118013D+00 EUMP2 =    -0.30010790687654D+03
 CCSD(T)
 CCSD(T)= -0.30015090655D+03

 The electronic state is 1-A'.
 Alpha  occ. eigenvalues --  -20.72929 -20.72894 -20.72813 -20.72778  -1.69862
 Alpha  occ. eigenvalues --   -1.69830  -1.08550  -1.08511  -0.78638  -0.78607
 Alpha  occ. eigenvalues --   -0.75180  -0.75120  -0.67390  -0.67359  -0.44806
 Alpha  occ. eigenvalues --   -0.44774
 Alpha virt. eigenvalues --    0.04970   0.05003   0.41740   0.44713   0.70030
 Alpha virt. eigenvalues --    0.70418   0.70604   0.70605   0.71568   0.73659
 Alpha virt. eigenvalues --    0.79093   0.80591   0.82238   0.83146   0.84752

 Mulliken charges:
               1
     1  O   -0.000325
     2  O    0.000390
     3  O    0.000600
     4  O   -0.000666
 Sum of Mulliken charges =  -0.00000

 Dipole moment (field-independent basis, Debye):
    X=             -0.0008    Y=             -0.0055    Z=             -0.0000  Tot=              0.0055
 Quadrupole moment (field-independent basis, Debye-Ang):
   XX=            -19.6565   YY=            -21.1186   ZZ=            -19.7592
   XY=             -0.0971   XZ=             -0.0000   YZ=              0.0000

 4DQ=-300.1007544\MP4SDQ=-300.113441\CCSD=-300.1100421\CCSD(T)=-300.150
 Normal termination of Gaussian 16 at Fri Feb  9 21:03:18 2024.
