 Gaussian 16, Revision A.03,
 Gaussian 16:  ES64L-G16RevA.03 25-Dec-2016

 ------------------
 #p CCSD(T)/cc-pVTZ
 ------------------

 ---------
 O2_O2_238
 ---------
 Symbolic Z-matrix:
 Charge =  0 Multiplicity = 1

                         Standard orientation:
 ---------------------------------------------------------------------
 Center     Atomic      Atomic             Coordinates (Angstroms)
 Number     Number       Type             X           Y           Z
 ---------------------------------------------------------------------
      1          8           0        0.615183   -2.985183    0.000000
      2          8           0       -0.205061   -2.164939    0.000000
      3          8           0       -0.205061    1.995061   -0.000000
      4          8           0       -0.205061    3.155061   -0.000000
 ---------------------------------------------------------------------

 SCF Done:  E(RHF) =  -299.188914900     A.U. after   17 cycles
 E2 =    -0.9190538737D+00 EUMP2 =    -0.30010796877420D+03
 CCSD(T)
 CCSD(T)= -0.30015095883D+03

 The electronic state is 1-A'.
 Alpha  occ. eigenvalues --  -20.72931 -20.72884 -20.72815 -20.72768  -1.69863
 Alpha  occ. eigenvalues --   -1.69821  -1.08551  -1.08499  -0.78638  -0.78598
 Alpha  occ. eigenvalues --   -0.75189  -0.75099  -0.67390  -0.67349  -0.44805
 Alpha  occ. eigenvalues --   -0.44764
 Alpha virt. eigenvalues --    0.04970   0.05013   0.41059   0.45218   0.69450
 Alpha virt. eigenvalues --    0.70385   0.70590   0.70644   0.71333   0.74140
 Alpha virt. eigenvalues --    0.78828   0.80670   0.82217   0.84137   0.84790

 Mulliken charges:
               1
     1  O   -0.000288
     2  O    0.000422
     3  O    0.000582
     4  O   -0.000717
 Sum of Mulliken charges =  -0.00000

 Dipole moment (field-independent basis, Debye):
    X=             -0.0008    Y=             -0.0077    Z=              0.0000  Tot=              0.0078
 Quadrupole moment (field-independent basis, Debye-Ang):
   XX=            -19.6567   YY=            -21.1209   ZZ=            -19.7594
   XY=             -0.0964   XZ=              0.0000   YZ=              0.0000

 4DQ=-300.100803\MP4SDQ=-300.1134918\CCSD=-300.1100904\CCSD(T)=-300.150
 Normal termination of Gaussian 16 at Fri Feb  9 20:51:02 2024.
