 Gaussian 16, Revision A.03,
 Gaussian 16:  ES64L-G16RevA.03 25-Dec-2016

 ------------------
 #p CCSD(T)/cc-pVTZ
 ------------------

 ---------
 O2_O2_149
 ---------
 Symbolic Z-matrix:
 Charge =  0 Multiplicity = 1

                         Standard orientation:
 ---------------------------------------------------------------------
 Center     Atomic      Atomic             Coordinates (Angstroms)
 Number     Number       Type             X           Y           Z
 ---------------------------------------------------------------------
      1          8           0       -0.870000   -1.770000    0.000000
      2          8           0        0.290000   -1.770000    0.000000
      3          8           0        0.290000    1.190000    0.000000
      4          8           0        0.290000    2.350000    0.000000
 ---------------------------------------------------------------------

 SCF Done:  E(RHF) =  -299.188632787     A.U. after   21 cycles
 E2 =    -0.9199853030D+00 EUMP2 =    -0.30010861809031D+03
 CCSD(T)
 CCSD(T)= -0.30015154340D+03

 The electronic state is 1-A'.
 Alpha  occ. eigenvalues --  -20.72920 -20.72802 -20.72732 -20.72609  -1.69856
 Alpha  occ. eigenvalues --   -1.69674  -1.08614  -1.08303  -0.78794  -0.78463
 Alpha  occ. eigenvalues --   -0.75336  -0.74633  -0.67370  -0.67211  -0.44797
 Alpha  occ. eigenvalues --   -0.44623
 Alpha virt. eigenvalues --    0.04981   0.05146   0.41927   0.44244   0.64197
 Alpha virt. eigenvalues --    0.68068   0.69068   0.72206   0.72764   0.76958
 Alpha virt. eigenvalues --    0.78895   0.80748   0.80870   0.82672   0.85740

 Mulliken charges:
               1
     1  O   -0.001076
     2  O    0.001567
     3  O    0.001625
     4  O   -0.002116
 Sum of Mulliken charges =  -0.00000

 Dipole moment (field-independent basis, Debye):
    X=              0.0111    Y=             -0.0254    Z=              0.0000  Tot=              0.0278
 Quadrupole moment (field-independent basis, Debye-Ang):
   XX=            -19.5630   YY=            -21.3096   ZZ=            -19.7617
   XY=             -0.0235   XZ=              0.0000   YZ=              0.0000

 4SDQ=-300.1139764\CCSD=-300.1105571\CCSD(T)=-300.1515434\RMSD=2.114e-0
 Normal termination of Gaussian 16 at Fri Feb  9 19:44:20 2024.
