 Gaussian 16, Revision A.03,
 Gaussian 16:  ES64L-G16RevA.03 25-Dec-2016

 ------------------
 #p CCSD(T)/cc-pVTZ
 ------------------

 ---------
 O2_O2_165
 ---------
 Symbolic Z-matrix:
 Charge =  0 Multiplicity = 1

                         Standard orientation:
 ---------------------------------------------------------------------
 Center     Atomic      Atomic             Coordinates (Angstroms)
 Number     Number       Type             X           Y           Z
 ---------------------------------------------------------------------
      1          8           0        0.000000    0.000000    2.760000
      2          8           0        0.000000    0.000000    1.600000
      3          8           0        0.000000    0.000000   -1.600000
      4          8           0        0.000000    0.000000   -2.760000
 ---------------------------------------------------------------------

 SCF Done:  E(RHF) =  -298.823306257     A.U. after   10 cycles
 E2 =    -0.2146005046D+01 EUMP2 =    -0.30096931130249D+03
 CCSD(T)
 CCSD(T)= -0.30027488998D+03

 The electronic state is 1-SGG.
 Alpha  occ. eigenvalues --  -20.77552 -20.77551 -20.75447 -20.75447  -1.72043
 Alpha  occ. eigenvalues --   -1.72001  -1.10533  -1.09967  -0.77382  -0.76580
 Alpha  occ. eigenvalues --   -0.74716  -0.74716  -0.74148  -0.74148  -0.27254
 Alpha  occ. eigenvalues --   -0.27254
 Alpha virt. eigenvalues --   -0.14197  -0.14197   0.36909   0.48593   0.65027
 Alpha virt. eigenvalues --    0.68524   0.68524   0.70604   0.70604   0.75882
 Alpha virt. eigenvalues --    0.78087   0.80174   0.80174   0.85993   0.85993

 Mulliken charges:
               1
     1  O   -0.021095
     2  O    0.021095
     3  O    0.021095
     4  O   -0.021095
 Sum of Mulliken charges =  -0.00000

 Dipole moment (field-independent basis, Debye):
    X=             -0.0000    Y=             -0.0000    Z=             -0.0000  Tot=              0.0000
 Quadrupole moment (field-independent basis, Debye-Ang):
   XX=            -20.1183   YY=            -20.1183   ZZ=            -21.9874
   XY=              0.0000   XZ=              0.0000   YZ=              0.0000

 4SDQ=-302.5811324\CCSD=-300.0292221\CCSD(T)=-300.27489\RMSD=2.108e-09\
 Normal termination of Gaussian 16 at Fri Feb  9 19:55:55 2024.
