 Gaussian 16, Revision A.03,
 Gaussian 16:  ES64L-G16RevA.03 25-Dec-2016

 ------------------
 #p CCSD(T)/cc-pVTZ
 ------------------

 ---------
 O2_O2_188
 ---------
 Symbolic Z-matrix:
 Charge =  0 Multiplicity = 1

                         Standard orientation:
 ---------------------------------------------------------------------
 Center     Atomic      Atomic             Coordinates (Angstroms)
 Number     Number       Type             X           Y           Z
 ---------------------------------------------------------------------
      1          8           0       -0.870000   -2.030000    0.000000
      2          8           0        0.290000   -2.030000    0.000000
      3          8           0        0.290000    1.450000    0.000000
      4          8           0        0.290000    2.610000    0.000000
 ---------------------------------------------------------------------

 SCF Done:  E(RHF) =  -299.188988295     A.U. after   18 cycles
 E2 =    -0.9193591372D+00 EUMP2 =    -0.30010834743264D+03
 CCSD(T)
 CCSD(T)= -0.30015132013D+03

 The electronic state is 1-A'.
 Alpha  occ. eigenvalues --  -20.72927 -20.72818 -20.72811 -20.72699  -1.69852
 Alpha  occ. eigenvalues --   -1.69756  -1.08552  -1.08424  -0.78645  -0.78534
 Alpha  occ. eigenvalues --   -0.75223  -0.74972  -0.67379  -0.67283  -0.44798
 Alpha  occ. eigenvalues --   -0.44698
 Alpha virt. eigenvalues --    0.04976   0.05077   0.41556   0.43655   0.64690
 Alpha virt. eigenvalues --    0.69604   0.70219   0.71316   0.72624   0.76645
 Alpha virt. eigenvalues --    0.79168   0.80383   0.82371   0.82929   0.84924

 Mulliken charges:
               1
     1  O   -0.000512
     2  O    0.000868
     3  O    0.000609
     4  O   -0.000965
 Sum of Mulliken charges =  -0.00000

 Dipole moment (field-independent basis, Debye):
    X=              0.0035    Y=             -0.0182    Z=              0.0000  Tot=              0.0186
 Quadrupole moment (field-independent basis, Debye-Ang):
   XX=            -19.5566   YY=            -21.2411   ZZ=            -19.7601
   XY=             -0.0131   XZ=              0.0000   YZ=              0.0000

 4SDQ=-300.1138181\CCSD=-300.1104137\CCSD(T)=-300.1513201\RMSD=3.884e-0
 Normal termination of Gaussian 16 at Fri Feb  9 20:14:15 2024.
