 Gaussian 16, Revision A.03,
 Gaussian 16:  ES64L-G16RevA.03 25-Dec-2016

 ------------------
 #p CCSD(T)/cc-pVTZ
 ------------------

 --------
 O2_O2_14
 --------
 Symbolic Z-matrix:
 Charge =  0 Multiplicity = 1

                         Standard orientation:
 ---------------------------------------------------------------------
 Center     Atomic      Atomic             Coordinates (Angstroms)
 Number     Number       Type             X           Y           Z
 ---------------------------------------------------------------------
      1          8           0       -0.870000   -0.870000    0.000000
      2          8           0        0.290000   -0.870000    0.000000
      3          8           0        0.290000    0.290000    0.000000
      4          8           0        0.290000    1.450000    0.000000
 ---------------------------------------------------------------------

 SCF Done:  E(RHF) =  -298.788329600     A.U. after   17 cycles
 E2 =    -0.9734372954D+00 EUMP2 =    -0.29976176689491D+03
 CCSD(T)
 CCSD(T)= -0.29979761454D+03

 The electronic state is 1-A'.
 Alpha  occ. eigenvalues --  -20.91575 -20.82030 -20.72261 -20.53932  -1.95959
 Alpha  occ. eigenvalues --   -1.68661  -1.35930  -1.08324  -0.93717  -0.90219
 Alpha  occ. eigenvalues --   -0.84079  -0.73774  -0.67481  -0.52574  -0.41440
 Alpha  occ. eigenvalues --   -0.38800
 Alpha virt. eigenvalues --   -0.00362   0.18880   0.40907   0.46874   0.59723
 Alpha virt. eigenvalues --    0.63291   0.66137   0.71026   0.74257   0.75155
 Alpha virt. eigenvalues --    0.82062   0.84028   0.87089   0.88309   0.91266

 Mulliken charges:
               1
     1  O   -0.483204
     2  O    0.302440
     3  O    0.343238
     4  O   -0.162474
 Sum of Mulliken charges =  -0.00000

 Dipole moment (field-independent basis, Debye):
    X=              2.6278    Y=              0.1858    Z=              0.0000  Tot=              2.6343
 Quadrupole moment (field-independent basis, Debye-Ang):
   XX=            -22.3324   YY=            -22.6454   ZZ=            -19.2351
   XY=             -2.7606   XZ=              0.0000   YZ=              0.0000

 DQ=-299.7445331\CCSD=-299.7429096\CCSD(T)=-299.7976145\RMSD=2.642e-09\
 Normal termination of Gaussian 16 at Fri Feb  9 17:53:41 2024.
