 Gaussian 16, Revision A.03,
 Gaussian 16:  ES64L-G16RevA.03 25-Dec-2016

 ------------------
 #p CCSD(T)/cc-pVTZ
 ------------------

 ---------
 O2_O2_261
 ---------
 Symbolic Z-matrix:
 Charge =  0 Multiplicity = 1

                         Standard orientation:
 ---------------------------------------------------------------------
 Center     Atomic      Atomic             Coordinates (Angstroms)
 Number     Number       Type             X           Y           Z
 ---------------------------------------------------------------------
      1          8           0        0.000000    0.000000    3.400000
      2          8           0        0.000000    0.000000    2.240000
      3          8           0        0.000000    0.000000   -2.240000
      4          8           0        0.000000    0.000000   -3.400000
 ---------------------------------------------------------------------

 SCF Done:  E(RHF) =  -298.785580936     A.U. after   10 cycles
 E2 =    -0.2732523412D+01 EUMP2 =    -0.30151810434725D+03
 CCSD(T)
 CCSD(T)= -0.30030885139D+03

 The electronic state is 1-SGG.
 Alpha  occ. eigenvalues --  -20.76680 -20.76679 -20.75643 -20.75643  -1.71782
 Alpha  occ. eigenvalues --   -1.71775  -1.10114  -1.10016  -0.76822  -0.76768
 Alpha  occ. eigenvalues --   -0.74354  -0.74354  -0.74129  -0.74129  -0.25423
 Alpha  occ. eigenvalues --   -0.25423
 Alpha virt. eigenvalues --   -0.15783  -0.15783   0.40818   0.44357   0.69787
 Alpha virt. eigenvalues --    0.69787   0.69884   0.69884   0.70650   0.73227
 Alpha virt. eigenvalues --    0.77583   0.79732   0.82624   0.82624   0.82925

 Mulliken charges:
               1
     1  O   -0.012793
     2  O    0.012793
     3  O    0.012793
     4  O   -0.012793
 Sum of Mulliken charges =   0.00000

 Dipole moment (field-independent basis, Debye):
    X=             -0.0000    Y=             -0.0000    Z=              0.0000  Tot=              0.0000
 Quadrupole moment (field-independent basis, Debye-Ang):
   XX=            -20.0750   YY=            -20.0750   ZZ=            -21.9927
   XY=              0.0000   XZ=              0.0000   YZ=              0.0000

 P4SDQ=-313.1074192\CCSD=-300.0246322\CCSD(T)=-300.3088514\RMSD=1.745e-
 Normal termination of Gaussian 16 at Fri Feb  9 21:09:08 2024.
