 Gaussian 16, Revision A.03,
 Gaussian 16:  ES64L-G16RevA.03 25-Dec-2016

 ------------------
 #p CCSD(T)/cc-pVTZ
 ------------------

 --------
 O2_O2_53
 --------
 Symbolic Z-matrix:
 Charge =  0 Multiplicity = 1

                         Standard orientation:
 ---------------------------------------------------------------------
 Center     Atomic      Atomic             Coordinates (Angstroms)
 Number     Number       Type             X           Y           Z
 ---------------------------------------------------------------------
      1          8           0       -0.870000   -1.130000    0.000000
      2          8           0        0.290000   -1.130000    0.000000
      3          8           0        0.290000    0.550000    0.000000
      4          8           0        0.290000    1.710000    0.000000
 ---------------------------------------------------------------------

 SCF Done:  E(RHF) =  -298.911593805     A.U. after   20 cycles
 E2 =    -0.1323504404D+01 EUMP2 =    -0.30023509820889D+03
 CCSD(T)
 CCSD(T)= -0.30011611254D+03

 The electronic state is 1-A'.
 Alpha  occ. eigenvalues --  -20.79686 -20.79550 -20.74089 -20.71260  -1.75179
 Alpha  occ. eigenvalues --   -1.70551  -1.17538  -1.08051  -0.84289  -0.78327
 Alpha  occ. eigenvalues --   -0.78076  -0.74095  -0.71931  -0.62844  -0.36142
 Alpha  occ. eigenvalues --   -0.34241
 Alpha virt. eigenvalues --   -0.07315  -0.04369   0.41624   0.48503   0.64510
 Alpha virt. eigenvalues --    0.66118   0.69989   0.70295   0.74865   0.76363
 Alpha virt. eigenvalues --    0.78286   0.81844   0.82736   0.87785   0.88181

 Mulliken charges:
               1
     1  O   -0.043760
     2  O    0.077700
     3  O    0.090030
     4  O   -0.123970
 Sum of Mulliken charges =  -0.00000

 Dipole moment (field-independent basis, Debye):
    X=              0.3770    Y=             -0.5740    Z=              0.0000  Tot=              0.6867
 Quadrupole moment (field-independent basis, Debye-Ang):
   XX=            -20.6716   YY=            -21.9758   ZZ=            -20.0022
   XY=             -0.4276   XZ=              0.0000   YZ=              0.0000

 DQ=-299.979366\CCSD=-300.0023442\CCSD(T)=-300.1161125\RMSD=6.926e-09\P
 Normal termination of Gaussian 16 at Fri Feb  9 18:28:55 2024.
