 Gaussian 16, Revision A.03,
 Gaussian 16:  ES64L-G16RevA.03 25-Dec-2016

 ------------------
 #p CCSD(T)/cc-pVTZ
 ------------------

 ---------
 O2_O2_267
 ---------
 Symbolic Z-matrix:
 Charge =  0 Multiplicity = 1

                         Standard orientation:
 ---------------------------------------------------------------------
 Center     Atomic      Atomic             Coordinates (Angstroms)
 Number     Number       Type             X           Y           Z
 ---------------------------------------------------------------------
      1          8           0        0.000000    0.000000    3.440000
      2          8           0        0.000000    0.000000    2.280000
      3          8           0        0.000000    0.000000   -2.280000
      4          8           0        0.000000    0.000000   -3.440000
 ---------------------------------------------------------------------

 SCF Done:  E(RHF) =  -298.784092780     A.U. after   10 cycles
 E2 =    -0.2767676738D+01 EUMP2 =    -0.30155176951709D+03
 CCSD(T)
 CCSD(T)= -0.30031016303D+03

 The electronic state is 1-SGG.
 Alpha  occ. eigenvalues --  -20.76660 -20.76659 -20.75655 -20.75655  -1.71779
 Alpha  occ. eigenvalues --   -1.71772  -1.10109  -1.10017  -0.76816  -0.76770
 Alpha  occ. eigenvalues --   -0.74347  -0.74347  -0.74132  -0.74132  -0.25349
 Alpha  occ. eigenvalues --   -0.25349
 Alpha virt. eigenvalues --   -0.15855  -0.15855   0.41114   0.44119   0.69798
 Alpha virt. eigenvalues --    0.69798   0.69875   0.69875   0.70915   0.73045
 Alpha virt. eigenvalues --    0.77675   0.79482   0.82656   0.82656   0.82893

 Mulliken charges:
               1
     1  O   -0.012438
     2  O    0.012438
     3  O    0.012438
     4  O   -0.012438
 Sum of Mulliken charges =   0.00000

 Dipole moment (field-independent basis, Debye):
    X=             -0.0000    Y=             -0.0000    Z=             -0.0000  Tot=              0.0000
 Quadrupole moment (field-independent basis, Debye-Ang):
   XX=            -20.0745   YY=            -20.0745   ZZ=            -21.9856
   XY=              0.0000   XZ=              0.0000   YZ=              0.0000

 P4SDQ=-314.1232397\CCSD=-300.0245069\CCSD(T)=-300.310163\RMSD=1.737e-0
 Normal termination of Gaussian 16 at Fri Feb  9 21:13:33 2024.
