 Gaussian 16, Revision A.03,
 Gaussian 16:  ES64L-G16RevA.03 25-Dec-2016

 ------------------
 #p CCSD(T)/cc-pVTZ
 ------------------

 ---------
 O2_O2_109
 ---------
 Symbolic Z-matrix:
 Charge =  0 Multiplicity = 1

                         Standard orientation:
 ---------------------------------------------------------------------
 Center     Atomic      Atomic             Coordinates (Angstroms)
 Number     Number       Type             X           Y           Z
 ---------------------------------------------------------------------
      1          8           0        0.615183   -2.125183    0.000000
      2          8           0       -0.205061   -1.304939    0.000000
      3          8           0       -0.205061    1.135062   -0.000000
      4          8           0       -0.205061    2.295060   -0.000000
 ---------------------------------------------------------------------

 SCF Done:  E(RHF) =  -299.185272850     A.U. after   19 cycles
 E2 =    -0.9218338285D+00 EUMP2 =    -0.30010710667889D+03
 CCSD(T)
 CCSD(T)= -0.30014949447D+03

 The electronic state is 1-A'.
 Alpha  occ. eigenvalues --  -20.73049 -20.72927 -20.72719 -20.72548  -1.70054
 Alpha  occ. eigenvalues --   -1.69654  -1.09756  -1.07562  -0.78806  -0.78457
 Alpha  occ. eigenvalues --   -0.76902  -0.73590  -0.67548  -0.67017  -0.44972
 Alpha  occ. eigenvalues --   -0.44613
 Alpha virt. eigenvalues --    0.04802   0.05315   0.43129   0.48414   0.66305
 Alpha virt. eigenvalues --    0.66941   0.70147   0.72512   0.73185   0.77316
 Alpha virt. eigenvalues --    0.79445   0.80191   0.81339   0.86784   0.88441

 Mulliken charges:
               1
     1  O   -0.003135
     2  O    0.002312
     3  O    0.008104
     4  O   -0.007281
 Sum of Mulliken charges =   0.00000

 Dipole moment (field-independent basis, Debye):
    X=             -0.0275    Y=              0.0522    Z=              0.0000  Tot=              0.0590
 Quadrupole moment (field-independent basis, Debye-Ang):
   XX=            -20.4804   YY=            -20.3709   ZZ=            -19.7618
   XY=              0.7227   XZ=             -0.0000   YZ=             -0.0000

 4DQ=-300.0991277\MP4SDQ=-300.111926\CCSD=-300.1083569\CCSD(T)=-300.149
 Normal termination of Gaussian 16 at Fri Feb  9 19:14:29 2024.
