 Gaussian 16, Revision A.03,
 Gaussian 16:  ES64L-G16RevA.03 25-Dec-2016

 ------------------
 #p CCSD(T)/cc-pVTZ
 ------------------

 ---------
 O2_O2_147
 ---------
 Symbolic Z-matrix:
 Charge =  0 Multiplicity = 1

                         Standard orientation:
 ---------------------------------------------------------------------
 Center     Atomic      Atomic             Coordinates (Angstroms)
 Number     Number       Type             X           Y           Z
 ---------------------------------------------------------------------
      1          8           0        0.000000    0.000000    2.640000
      2          8           0        0.000000    0.000000    1.480000
      3          8           0        0.000000    0.000000   -1.480000
      4          8           0        0.000000    0.000000   -2.640000
 ---------------------------------------------------------------------

 SCF Done:  E(RHF) =  -298.835925741     A.U. after   10 cycles
 E2 =    -0.2028273142D+01 EUMP2 =    -0.30086419888340D+03
 CCSD(T)
 CCSD(T)= -0.30026359846D+03

 The electronic state is 1-SGG.
 Alpha  occ. eigenvalues --  -20.77946 -20.77943 -20.75399 -20.75398  -1.72181
 Alpha  occ. eigenvalues --   -1.72112  -1.10800  -1.09889  -0.77737  -0.76403
 Alpha  occ. eigenvalues --   -0.74887  -0.74887  -0.74164  -0.74164  -0.27838
 Alpha  occ. eigenvalues --   -0.27838
 Alpha virt. eigenvalues --   -0.13729  -0.13729   0.38332   0.48833   0.65422
 Alpha virt. eigenvalues --    0.67790   0.67790   0.70895   0.70895   0.75924
 Alpha virt. eigenvalues --    0.78800   0.79353   0.79353   0.85945   0.86972

 Mulliken charges:
               1
     1  O   -0.026043
     2  O    0.026043
     3  O    0.026043
     4  O   -0.026043
 Sum of Mulliken charges =  -0.00000

 Dipole moment (field-independent basis, Debye):
    X=             -0.0000    Y=              0.0000    Z=              0.0000  Tot=              0.0000
 Quadrupole moment (field-independent basis, Debye-Ang):
   XX=            -20.1397   YY=            -20.1397   ZZ=            -21.9449
   XY=              0.0000   XZ=              0.0000   YZ=              0.0000

 P4SDQ=-301.6304241\CCSD=-300.0313921\CCSD(T)=-300.2635985\RMSD=2.231e-
 Normal termination of Gaussian 16 at Fri Feb  9 19:42:40 2024.
