 Gaussian 16, Revision A.03,
 Gaussian 16:  ES64L-G16RevA.03 25-Dec-2016

 ------------------
 #p CCSD(T)/cc-pVTZ
 ------------------

 --------
 O2_O2_68
 --------
 Symbolic Z-matrix:
 Charge =  0 Multiplicity = 1

                         Standard orientation:
 ---------------------------------------------------------------------
 Center     Atomic      Atomic             Coordinates (Angstroms)
 Number     Number       Type             X           Y           Z
 ---------------------------------------------------------------------
      1          8           0       -0.870000   -1.230000    0.000000
      2          8           0        0.290000   -1.230000    0.000000
      3          8           0        0.290000    0.650000    0.000000
      4          8           0        0.290000    1.810000    0.000000
 ---------------------------------------------------------------------

 SCF Done:  E(RHF) =  -299.135302170     A.U. after   24 cycles
 E2 =    -0.9364866614D+00 EUMP2 =    -0.30007178883145D+03
 CCSD(T)
 CCSD(T)= -0.30011230507D+03

 The electronic state is 1-A'.
 Alpha  occ. eigenvalues --  -20.74063 -20.73465 -20.72112 -20.70427  -1.71690
 Alpha  occ. eigenvalues --   -1.68774  -1.12759  -1.06631  -0.80758  -0.79733
 Alpha  occ. eigenvalues --   -0.77951  -0.73640  -0.68469  -0.61639  -0.45970
 Alpha  occ. eigenvalues --   -0.43698
 Alpha virt. eigenvalues --    0.03660   0.06234   0.43611   0.47601   0.66361
 Alpha virt. eigenvalues --    0.68700   0.69607   0.72043   0.74468   0.75761
 Alpha virt. eigenvalues --    0.79340   0.81529   0.82353   0.87468   0.89200

 Mulliken charges:
               1
     1  O   -0.025994
     2  O    0.004139
     3  O    0.025359
     4  O   -0.003505
 Sum of Mulliken charges =   0.00000

 Dipole moment (field-independent basis, Debye):
    X=              0.2074    Y=              0.3907    Z=              0.0000  Tot=              0.4423
 Quadrupole moment (field-independent basis, Debye-Ang):
   XX=            -21.2646   YY=            -19.9295   ZZ=            -19.7192
   XY=             -0.1823   XZ=              0.0000   YZ=              0.0000

 DQ=-300.0725664\CCSD=-300.0688796\CCSD(T)=-300.1123051\RMSD=3.455e-09\
 Normal termination of Gaussian 16 at Fri Feb  9 18:40:53 2024.
