 Gaussian 16, Revision A.03,
 Gaussian 16:  ES64L-G16RevA.03 25-Dec-2016

 ------------------
 #p CCSD(T)/cc-pVTZ
 ------------------

 ---------
 O2_O2_294
 ---------
 Symbolic Z-matrix:
 Charge =  0 Multiplicity = 1

                         Standard orientation:
 ---------------------------------------------------------------------
 Center     Atomic      Atomic             Coordinates (Angstroms)
 Number     Number       Type             X           Y           Z
 ---------------------------------------------------------------------
      1          8           0        0.000000    0.000000    3.620000
      2          8           0        0.000000    0.000000    2.460000
      3          8           0        0.000000    0.000000   -2.460000
      4          8           0        0.000000    0.000000   -3.620000
 ---------------------------------------------------------------------

 SCF Done:  E(RHF) =  -298.778031034     A.U. after   10 cycles
 E2 =    -0.2924926567D+01 EUMP2 =    -0.30170295760119D+03
 CCSD(T)
 CCSD(T)= -0.30031549346D+03

 The electronic state is 1-SGG.
 Alpha  occ. eigenvalues --  -20.76589 -20.76588 -20.75708 -20.75708  -1.71771
 Alpha  occ. eigenvalues --   -1.71767  -1.10093  -1.10023  -0.76799  -0.76778
 Alpha  occ. eigenvalues --   -0.74323  -0.74323  -0.74146  -0.74146  -0.25048
 Alpha  occ. eigenvalues --   -0.25048
 Alpha virt. eigenvalues --   -0.16151  -0.16151   0.42029   0.43329   0.69825
 Alpha virt. eigenvalues --    0.69825   0.69852   0.69852   0.71659   0.72472
 Alpha virt. eigenvalues --    0.78044   0.78811   0.82736   0.82736   0.82812

 Mulliken charges:
               1
     1  O   -0.010975
     2  O    0.010975
     3  O    0.010975
     4  O   -0.010975
 Sum of Mulliken charges =  -0.00000

 Dipole moment (field-independent basis, Debye):
    X=             -0.0000    Y=              0.0000    Z=              0.0000  Tot=              0.0000
 Quadrupole moment (field-independent basis, Debye-Ang):
   XX=            -20.0731   YY=            -20.0731   ZZ=            -21.9519
   XY=              0.0000   XZ=              0.0000   YZ=              0.0000

 4SDQ=-319.310852\CCSD=-300.0240302\CCSD(T)=-300.3154935\RMSD=1.712e-09
 Normal termination of Gaussian 16 at Fri Feb  9 21:32:29 2024.
