 Gaussian 16, Revision A.03,
 Gaussian 16:  ES64L-G16RevA.03 25-Dec-2016

 ------------------
 #p CCSD(T)/cc-pVTZ
 ------------------

 -------
 O2_O2_7
 -------
 Symbolic Z-matrix:
 Charge =  0 Multiplicity = 1

                         Standard orientation:
 ---------------------------------------------------------------------
 Center     Atomic      Atomic             Coordinates (Angstroms)
 Number     Number       Type             X           Y           Z
 ---------------------------------------------------------------------
      1          8           0        0.615183   -1.445183    0.000000
      2          8           0       -0.205061   -0.624939    0.000000
      3          8           0       -0.205061    0.455061   -0.000000
      4          8           0       -0.205061    1.615061   -0.000000
 ---------------------------------------------------------------------

 SCF Done:  E(RHF) =  -298.859625339     A.U. after   16 cycles
 E2 =    -0.9633824153D+00 EUMP2 =    -0.29982300775444D+03
 CCSD(T)
 CCSD(T)= -0.29985126463D+03

 The electronic state is 1-A'.
 Alpha  occ. eigenvalues --  -20.92237 -20.85004 -20.66352 -20.62527  -1.98409
 Alpha  occ. eigenvalues --   -1.68917  -1.50077  -1.02979  -0.97273  -0.92820
 Alpha  occ. eigenvalues --   -0.85768  -0.73216  -0.68073  -0.52082  -0.43731
 Alpha  occ. eigenvalues --   -0.42482
 Alpha virt. eigenvalues --    0.04172   0.24359   0.46871   0.53238   0.61424
 Alpha virt. eigenvalues --    0.61811   0.63598   0.66162   0.75943   0.78782
 Alpha virt. eigenvalues --    0.80381   0.84114   0.84237   0.87200   0.92323

 Mulliken charges:
               1
     1  O   -0.347943
     2  O    0.317480
     3  O    0.305103
     4  O   -0.274640
 Sum of Mulliken charges =  -0.00000

 Dipole moment (field-independent basis, Debye):
    X=             -0.9957    Y=              0.1142    Z=             -0.0000  Tot=              1.0022
 Quadrupole moment (field-independent basis, Debye-Ang):
   XX=            -21.1685   YY=            -26.7325   ZZ=            -19.1070
   XY=              1.7716   XZ=             -0.0000   YZ=              0.0000

 Q=-299.7871422\MP4SDQ=-299.8056098\CCSD=-299.8020555\CCSD(T)=-299.8512
 Normal termination of Gaussian 16 at Fri Feb  9 17:48:02 2024.
