 Gaussian 16, Revision A.03,
 Gaussian 16:  ES64L-G16RevA.03 25-Dec-2016

 ------------------
 #p CCSD(T)/cc-pVTZ
 ------------------

 ---------
 O2_O2_214
 ---------
 Symbolic Z-matrix:
 Charge =  0 Multiplicity = 1

                         Standard orientation:
 ---------------------------------------------------------------------
 Center     Atomic      Atomic             Coordinates (Angstroms)
 Number     Number       Type             X           Y           Z
 ---------------------------------------------------------------------
      1          8           0        0.615183   -2.825183    0.000000
      2          8           0       -0.205061   -2.004939    0.000000
      3          8           0       -0.205061    1.835061   -0.000000
      4          8           0       -0.205061    2.995061   -0.000000
 ---------------------------------------------------------------------

 SCF Done:  E(RHF) =  -299.188946420     A.U. after   17 cycles
 E2 =    -0.9191607874D+00 EUMP2 =    -0.30010810720761D+03
 CCSD(T)
 CCSD(T)= -0.30015107619D+03

 The electronic state is 1-A'.
 Alpha  occ. eigenvalues --  -20.72936 -20.72863 -20.72819 -20.72746  -1.69865
 Alpha  occ. eigenvalues --   -1.69801  -1.08560  -1.08467  -0.78639  -0.78577
 Alpha  occ. eigenvalues --   -0.75218  -0.75045  -0.67391  -0.67329  -0.44803
 Alpha  occ. eigenvalues --   -0.44743
 Alpha virt. eigenvalues --    0.04970   0.05033   0.39808   0.46070   0.67850
 Alpha virt. eigenvalues --    0.70249   0.70473   0.70776   0.71289   0.74972
 Alpha virt. eigenvalues --    0.78575   0.80652   0.82075   0.84924   0.84989

 Mulliken charges:
               1
     1  O   -0.000117
     2  O    0.000458
     3  O    0.000359
     4  O   -0.000700
 Sum of Mulliken charges =  -0.00000

 Dipole moment (field-independent basis, Debye):
    X=             -0.0008    Y=             -0.0132    Z=              0.0000  Tot=              0.0132
 Quadrupole moment (field-independent basis, Debye-Ang):
   XX=            -19.6569   YY=            -21.1254   ZZ=            -19.7597
   XY=             -0.0949   XZ=              0.0000   YZ=             -0.0000

 DQ=-300.1009087\MP4SDQ=-300.1136041\CCSD=-300.1101964\CCSD(T)=-300.151
 Normal termination of Gaussian 16 at Fri Feb  9 20:33:26 2024.
