 Gaussian 16, Revision A.03,
 Gaussian 16:  ES64L-G16RevA.03 25-Dec-2016

 ------------------
 #p CCSD(T)/cc-pVTZ
 ------------------

 --------
 O2_O2_40
 --------
 Symbolic Z-matrix:
 Charge =  0 Multiplicity = 1

                         Standard orientation:
 ---------------------------------------------------------------------
 Center     Atomic      Atomic             Coordinates (Angstroms)
 Number     Number       Type             X           Y           Z
 ---------------------------------------------------------------------
      1          8           0        0.615183   -1.665183    0.000000
      2          8           0       -0.205061   -0.844939    0.000000
      3          8           0       -0.205061    0.675061   -0.000000
      4          8           0       -0.205061    1.835061   -0.000000
 ---------------------------------------------------------------------

 SCF Done:  E(RHF) =  -299.044373870     A.U. after   17 cycles
 E2 =    -0.9561421247D+00 EUMP2 =    -0.30000051599502D+03
 CCSD(T)
 CCSD(T)= -0.30004884534D+03

 The electronic state is 1-A'.
 Alpha  occ. eigenvalues --  -20.74824 -20.74596 -20.73208 -20.67869  -1.73149
 Alpha  occ. eigenvalues --   -1.68690  -1.23878  -1.01852  -0.83301  -0.81378
 Alpha  occ. eigenvalues --   -0.79153  -0.70508  -0.68802  -0.56817  -0.46265
 Alpha  occ. eigenvalues --   -0.43242
 Alpha virt. eigenvalues --    0.03636   0.08036   0.46982   0.50371   0.65866
 Alpha virt. eigenvalues --    0.67131   0.70616   0.73896   0.74361   0.76038
 Alpha virt. eigenvalues --    0.79706   0.81252   0.83826   0.86016   0.95642

 Mulliken charges:
               1
     1  O   -0.106528
     2  O    0.070780
     3  O    0.071888
     4  O   -0.036139
 Sum of Mulliken charges =  -0.00000

 Dipole moment (field-independent basis, Debye):
    X=             -0.3552    Y=              0.6872    Z=             -0.0000  Tot=              0.7736
 Quadrupole moment (field-independent basis, Debye-Ang):
   XX=            -20.7808   YY=            -22.0181   ZZ=            -19.6490
   XY=              1.1982   XZ=             -0.0000   YZ=              0.0000

 DQ=-299.979274\MP4SDQ=-299.9967296\CCSD=-299.9951568\CCSD(T)=-300.0488
 Normal termination of Gaussian 16 at Fri Feb  9 18:17:58 2024.
