 Gaussian 16, Revision A.03,
 Gaussian 16:  ES64L-G16RevA.03 25-Dec-2016

 ------------------
 #p CCSD(T)/cc-pVTZ
 ------------------

 ---------
 O2_O2_159
 ---------
 Symbolic Z-matrix:
 Charge =  0 Multiplicity = 1

                         Standard orientation:
 ---------------------------------------------------------------------
 Center     Atomic      Atomic             Coordinates (Angstroms)
 Number     Number       Type             X           Y           Z
 ---------------------------------------------------------------------
      1          8           0        0.000000    0.000000    2.720000
      2          8           0        0.000000    0.000000    1.560000
      3          8           0        0.000000    0.000000   -1.560000
      4          8           0        0.000000    0.000000   -2.720000
 ---------------------------------------------------------------------

 SCF Done:  E(RHF) =  -298.827200879     A.U. after   10 cycles
 E2 =    -0.2107075492D+01 EUMP2 =    -0.30093427637098D+03
 CCSD(T)
 CCSD(T)= -0.30027137987D+03

 The electronic state is 1-SGG.
 Alpha  occ. eigenvalues --  -20.77671 -20.77669 -20.75433 -20.75433  -1.72085
 Alpha  occ. eigenvalues --   -1.72035  -1.10608  -1.09948  -0.77484  -0.76533
 Alpha  occ. eigenvalues --   -0.74767  -0.74767  -0.74154  -0.74154  -0.27436
 Alpha  occ. eigenvalues --   -0.27436
 Alpha virt. eigenvalues --   -0.14051  -0.14051   0.37296   0.48695   0.65065
 Alpha virt. eigenvalues --    0.68302   0.68302   0.70697   0.70697   0.75909
 Alpha virt. eigenvalues --    0.78295   0.79894   0.79894   0.86142   0.86486

 Mulliken charges:
               1
     1  O   -0.022470
     2  O    0.022470
     3  O    0.022470
     4  O   -0.022470
 Sum of Mulliken charges =  -0.00000

 Dipole moment (field-independent basis, Debye):
    X=             -0.0000    Y=             -0.0000    Z=              0.0000  Tot=              0.0000
 Quadrupole moment (field-independent basis, Debye-Ang):
   XX=            -20.1248   YY=            -20.1248   ZZ=            -21.9741
   XY=              0.0000   XZ=              0.0000   YZ=              0.0000

 P4SDQ=-302.2332968\CCSD=-300.0298591\CCSD(T)=-300.2713799\RMSD=2.147e-
 Normal termination of Gaussian 16 at Fri Feb  9 19:51:32 2024.
