 Gaussian 16, Revision A.03,
 Gaussian 16:  ES64L-G16RevA.03 25-Dec-2016

 ------------------
 #p CCSD(T)/cc-pVTZ
 ------------------

 ---------
 O2_O2_243
 ---------
 Symbolic Z-matrix:
 Charge =  0 Multiplicity = 1

                         Standard orientation:
 ---------------------------------------------------------------------
 Center     Atomic      Atomic             Coordinates (Angstroms)
 Number     Number       Type             X           Y           Z
 ---------------------------------------------------------------------
      1          8           0        0.000000    0.000000    3.280000
      2          8           0        0.000000    0.000000    2.120000
      3          8           0        0.000000    0.000000   -2.120000
      4          8           0        0.000000    0.000000   -3.280000
 ---------------------------------------------------------------------

 SCF Done:  E(RHF) =  -298.790431567     A.U. after   10 cycles
 E2 =    -0.2626408041D+01 EUMP2 =    -0.30141683960735D+03
 CCSD(T)
 CCSD(T)= -0.30030456310D+03

 The electronic state is 1-SGG.
 Alpha  occ. eigenvalues --  -20.76752 -20.76752 -20.75605 -20.75605  -1.71795
 Alpha  occ. eigenvalues --   -1.71787  -1.10136  -1.10013  -0.76849  -0.76760
 Alpha  occ. eigenvalues --   -0.74382  -0.74382  -0.74122  -0.74122  -0.25663
 Alpha  occ. eigenvalues --   -0.25663
 Alpha virt. eigenvalues --   -0.15555  -0.15555   0.39715   0.45198   0.69594
 Alpha virt. eigenvalues --    0.69735   0.69735   0.69924   0.69924   0.73875
 Alpha virt. eigenvalues --    0.77342   0.80860   0.82477   0.82477   0.83072

 Mulliken charges:
               1
     1  O   -0.013906
     2  O    0.013906
     3  O    0.013906
     4  O   -0.013906
 Sum of Mulliken charges =   0.00000

 Dipole moment (field-independent basis, Debye):
    X=             -0.0000    Y=              0.0000    Z=             -0.0000  Tot=              0.0000
 Quadrupole moment (field-independent basis, Debye-Ang):
   XX=            -20.0774   YY=            -20.0774   ZZ=            -22.0119
   XY=              0.0000   XZ=              0.0000   YZ=              0.0000

 4SDQ=-310.3392016\CCSD=-300.0250675\CCSD(T)=-300.3045631\RMSD=1.729e-0
 Normal termination of Gaussian 16 at Fri Feb  9 20:54:37 2024.
