 Gaussian 16, Revision A.03,
 Gaussian 16:  ES64L-G16RevA.03 25-Dec-2016

 ------------------
 #p CCSD(T)/cc-pVTZ
 ------------------

 --------
 O2_O2_23
 --------
 Symbolic Z-matrix:
 Charge =  0 Multiplicity = 1

                         Standard orientation:
 ---------------------------------------------------------------------
 Center     Atomic      Atomic             Coordinates (Angstroms)
 Number     Number       Type             X           Y           Z
 ---------------------------------------------------------------------
      1          8           0       -0.870000   -0.930000    0.000000
      2          8           0        0.290000   -0.930000    0.000000
      3          8           0        0.290000    0.350000    0.000000
      4          8           0        0.290000    1.510000    0.000000
 ---------------------------------------------------------------------

 SCF Done:  E(RHF) =  -298.846621183     A.U. after   18 cycles
 E2 =    -0.9744127072D+00 EUMP2 =    -0.29982103388986D+03
 CCSD(T)
 CCSD(T)= -0.29988569041D+03

 The electronic state is 1-A'.
 Alpha  occ. eigenvalues --  -20.85344 -20.80977 -20.76748 -20.53742  -1.85841
 Alpha  occ. eigenvalues --   -1.69743  -1.29566  -1.05927  -0.89955  -0.87229
 Alpha  occ. eigenvalues --   -0.83945  -0.72427  -0.68781  -0.52298  -0.42597
 Alpha  occ. eigenvalues --   -0.38606
 Alpha virt. eigenvalues --   -0.01163   0.11825   0.42857   0.46775   0.60326
 Alpha virt. eigenvalues --    0.64884   0.68065   0.70568   0.74239   0.74418
 Alpha virt. eigenvalues --    0.82735   0.84737   0.86914   0.88156   0.90079

 Mulliken charges:
               1
     1  O   -0.438207
     2  O    0.233915
     3  O    0.260887
     4  O   -0.056595
 Sum of Mulliken charges =  -0.00000

 Dipole moment (field-independent basis, Debye):
    X=              2.4960    Y=              1.2743    Z=              0.0000  Tot=              2.8025
 Quadrupole moment (field-independent basis, Debye-Ang):
   XX=            -22.3666   YY=            -21.6640   ZZ=            -19.4329
   XY=             -2.3007   XZ=              0.0000   YZ=              0.0000

 DQ=-299.8164746\CCSD=-299.8180766\CCSD(T)=-299.8856904\RMSD=8.853e-09\
 Normal termination of Gaussian 16 at Fri Feb  9 18:03:25 2024.
