 Gaussian 16, Revision A.03,
 Gaussian 16:  ES64L-G16RevA.03 25-Dec-2016

 ------------------
 #p CCSD(T)/cc-pVTZ
 ------------------

 ---------
 O2_O2_270
 ---------
 Symbolic Z-matrix:
 Charge =  0 Multiplicity = 1

                         Standard orientation:
 ---------------------------------------------------------------------
 Center     Atomic      Atomic             Coordinates (Angstroms)
 Number     Number       Type             X           Y           Z
 ---------------------------------------------------------------------
      1          8           0        0.000000    0.000000    3.460000
      2          8           0        0.000000    0.000000    2.300000
      3          8           0        0.000000    0.000000   -2.300000
      4          8           0        0.000000    0.000000   -3.460000
 ---------------------------------------------------------------------

 SCF Done:  E(RHF) =  -298.783369963     A.U. after   10 cycles
 E2 =    -0.2785219584D+01 EUMP2 =    -0.30156858954670D+03
 CCSD(T)
 CCSD(T)= -0.30031080137D+03

 The electronic state is 1-SGG.
 Alpha  occ. eigenvalues --  -20.76650 -20.76650 -20.75661 -20.75661  -1.71777
 Alpha  occ. eigenvalues --   -1.71771  -1.10106  -1.10018  -0.76813  -0.76772
 Alpha  occ. eigenvalues --   -0.74344  -0.74344  -0.74134  -0.74134  -0.25313
 Alpha  occ. eigenvalues --   -0.25313
 Alpha virt. eigenvalues --   -0.15889  -0.15889   0.41248   0.44008   0.69803
 Alpha virt. eigenvalues --    0.69803   0.69871   0.69871   0.71032   0.72961
 Alpha virt. eigenvalues --    0.77721   0.79374   0.82669   0.82669   0.82879

 Mulliken charges:
               1
     1  O   -0.012264
     2  O    0.012264
     3  O    0.012264
     4  O   -0.012264
 Sum of Mulliken charges =  -0.00000

 Dipole moment (field-independent basis, Debye):
    X=             -0.0000    Y=              0.0000    Z=              0.0000  Tot=              0.0000
 Quadrupole moment (field-independent basis, Debye-Ang):
   XX=            -20.0743   YY=            -20.0743   ZZ=            -21.9819
   XY=              0.0000   XZ=              0.0000   YZ=              0.0000

 DQ=-314.6492408\CCSD=-300.0244483\CCSD(T)=-300.3108014\RMSD=1.733e-09\
 Normal termination of Gaussian 16 at Fri Feb  9 21:15:47 2024.
