 Gaussian 16, Revision A.03,
 Gaussian 16:  ES64L-G16RevA.03 25-Dec-2016

 ------------------
 #p CCSD(T)/cc-pVTZ
 ------------------

 ---------
 O2_O2_167
 ---------
 Symbolic Z-matrix:
 Charge =  0 Multiplicity = 1

                         Standard orientation:
 ---------------------------------------------------------------------
 Center     Atomic      Atomic             Coordinates (Angstroms)
 Number     Number       Type             X           Y           Z
 ---------------------------------------------------------------------
      1          8           0       -0.870000   -1.890000    0.000000
      2          8           0        0.290000   -1.890000    0.000000
      3          8           0        0.290000    1.310000    0.000000
      4          8           0        0.290000    2.470000    0.000000
 ---------------------------------------------------------------------

 SCF Done:  E(RHF) =  -299.188940078     A.U. after   19 cycles
 E2 =    -0.9196239873D+00 EUMP2 =    -0.30010856406489D+03
 CCSD(T)
 CCSD(T)= -0.30015151939D+03

 The electronic state is 1-A'.
 Alpha  occ. eigenvalues --  -20.72925 -20.72809 -20.72781 -20.72661  -1.69851
 Alpha  occ. eigenvalues --   -1.69720  -1.08570  -1.08374  -0.78689  -0.78502
 Alpha  occ. eigenvalues --   -0.75274  -0.74840  -0.67374  -0.67250  -0.44797
 Alpha  occ. eigenvalues --   -0.44664
 Alpha virt. eigenvalues --    0.04978   0.05107   0.41462   0.43836   0.63946
 Alpha virt. eigenvalues --    0.68894   0.69656   0.71767   0.72700   0.76992
 Alpha virt. eigenvalues --    0.78931   0.80495   0.81994   0.82497   0.85236

 Mulliken charges:
               1
     1  O   -0.000695
     2  O    0.001091
     3  O    0.000704
     4  O   -0.001100
 Sum of Mulliken charges =   0.00000

 Dipole moment (field-independent basis, Debye):
    X=              0.0064    Y=             -0.0218    Z=              0.0000  Tot=              0.0227
 Quadrupole moment (field-independent basis, Debye-Ang):
   XX=            -19.5593   YY=            -21.2695   ZZ=            -19.7608
   XY=             -0.0177   XZ=              0.0000   YZ=              0.0000

 DQ=-300.1139893\CCSD=-300.110579\CCSD(T)=-300.1515194\RMSD=8.195e-09\P
 Normal termination of Gaussian 16 at Fri Feb  9 19:57:32 2024.
