 Gaussian 16, Revision A.03,
 Gaussian 16:  ES64L-G16RevA.03 25-Dec-2016

 ------------------
 #p CCSD(T)/cc-pVTZ
 ------------------

 --------
 O2_O2_10
 --------
 Symbolic Z-matrix:
 Charge =  0 Multiplicity = 1

                         Standard orientation:
 ---------------------------------------------------------------------
 Center     Atomic      Atomic             Coordinates (Angstroms)
 Number     Number       Type             X           Y           Z
 ---------------------------------------------------------------------
      1          8           0        0.615183   -1.465183    0.000000
      2          8           0       -0.205061   -0.644939    0.000000
      3          8           0       -0.205061    0.475062    0.000000
      4          8           0       -0.205061    1.635060    0.000000
 ---------------------------------------------------------------------

 SCF Done:  E(RHF) =  -298.877971797     A.U. after   16 cycles
 E2 =    -0.9775612234D+00 EUMP2 =    -0.29985553302017D+03
 CCSD(T)
 CCSD(T)= -0.29988149737D+03

 The electronic state is 1-A'.
 Alpha  occ. eigenvalues --  -20.91826 -20.84619 -20.67087 -20.62882  -1.94295
 Alpha  occ. eigenvalues --   -1.69147  -1.48108  -1.01338  -0.94848  -0.92648
 Alpha  occ. eigenvalues --   -0.85499  -0.73737  -0.68597  -0.51909  -0.44507
 Alpha  occ. eigenvalues --   -0.41807
 Alpha virt. eigenvalues --    0.02775   0.21484   0.46853   0.53380   0.61957
 Alpha virt. eigenvalues --    0.62457   0.64331   0.65419   0.75753   0.78402
 Alpha virt. eigenvalues --    0.80362   0.83956   0.84369   0.86482   0.92474

 Mulliken charges:
               1
     1  O   -0.333647
     2  O    0.298806
     3  O    0.291656
     4  O   -0.256815
 Sum of Mulliken charges =   0.00000

 Dipole moment (field-independent basis, Debye):
    X=             -0.9258    Y=              0.1793    Z=              0.0000  Tot=              0.9430
 Quadrupole moment (field-independent basis, Debye-Ang):
   XX=            -21.2105   YY=            -26.4725   ZZ=            -19.1893
   XY=              1.7341   XZ=             -0.0000   YZ=              0.0000

 =-299.8128709\MP4SDQ=-299.8334116\CCSD=-299.8291898\CCSD(T)=-299.88149
 Normal termination of Gaussian 16 at Fri Feb  9 17:50:18 2024.
