 Gaussian 16, Revision A.03,
 Gaussian 16:  ES64L-G16RevA.03 25-Dec-2016

 ------------------
 #p CCSD(T)/cc-pVTZ
 ------------------

 --------
 O2_O2_34
 --------
 Symbolic Z-matrix:
 Charge =  0 Multiplicity = 1

                         Standard orientation:
 ---------------------------------------------------------------------
 Center     Atomic      Atomic             Coordinates (Angstroms)
 Number     Number       Type             X           Y           Z
 ---------------------------------------------------------------------
      1          8           0        0.615183   -1.625183   -0.000000
      2          8           0       -0.205061   -0.804939   -0.000000
      3          8           0       -0.205061    0.635061    0.000000
      4          8           0       -0.205061    1.795061    0.000000
 ---------------------------------------------------------------------

 SCF Done:  E(RHF) =  -299.003288550     A.U. after   18 cycles
 E2 =    -0.9676864754D+00 EUMP2 =    -0.29997097502523D+03
 CCSD(T)
 CCSD(T)= -0.30002499043D+03

 The electronic state is 1-A'.
 Alpha  occ. eigenvalues --  -20.76545 -20.76180 -20.73523 -20.66062  -1.74802
 Alpha  occ. eigenvalues --   -1.68722  -1.27847  -1.01017  -0.83908  -0.82850
 Alpha  occ. eigenvalues --   -0.80201  -0.70888  -0.69229  -0.53923  -0.46969
 Alpha  occ. eigenvalues --   -0.42661
 Alpha virt. eigenvalues --    0.02891   0.08789   0.47071   0.50832   0.65607
 Alpha virt. eigenvalues --    0.66737   0.69281   0.72904   0.74589   0.75886
 Alpha virt. eigenvalues --    0.80393   0.80939   0.84397   0.86218   0.95250

 Mulliken charges:
               1
     1  O   -0.153860
     2  O    0.098907
     3  O    0.100719
     4  O   -0.045766
 Sum of Mulliken charges =   0.00000

 Dipole moment (field-independent basis, Debye):
    X=             -0.4808    Y=              0.9568    Z=              0.0000  Tot=              1.0708
 Quadrupole moment (field-independent basis, Debye-Ang):
   XX=            -20.9214   YY=            -22.5673   ZZ=            -19.6066
   XY=              1.3612   XZ=             -0.0000   YZ=             -0.0000

 DQ=-299.9439519\MP4SDQ=-299.9650747\CCSD=-299.9649419\CCSD(T)=-300.024
 Normal termination of Gaussian 16 at Fri Feb  9 18:12:53 2024.
