 Gaussian 16, Revision A.03,
 Gaussian 16:  ES64L-G16RevA.03 25-Dec-2016

 ------------------
 #p CCSD(T)/cc-pVTZ
 ------------------

 ---------
 O2_O2_139
 ---------
 Symbolic Z-matrix:
 Charge =  0 Multiplicity = 1

                         Standard orientation:
 ---------------------------------------------------------------------
 Center     Atomic      Atomic             Coordinates (Angstroms)
 Number     Number       Type             X           Y           Z
 ---------------------------------------------------------------------
      1          8           0        0.615183   -2.325183   -0.000000
      2          8           0       -0.205061   -1.504939   -0.000000
      3          8           0       -0.205061    1.335061    0.000000
      4          8           0       -0.205061    2.495061    0.000000
 ---------------------------------------------------------------------

 SCF Done:  E(RHF) =  -299.188423686     A.U. after   29 cycles
 E2 =    -0.9202100249D+00 EUMP2 =    -0.30010863371108D+03
 CCSD(T)
 CCSD(T)= -0.30015138795D+03

 The electronic state is 1-A'.
 Alpha  occ. eigenvalues --  -20.73053 -20.72937 -20.72827 -20.72704  -1.69993
 Alpha  occ. eigenvalues --   -1.69761  -1.09003  -1.08174  -0.78766  -0.78544
 Alpha  occ. eigenvalues --   -0.75935  -0.74483  -0.67513  -0.67258  -0.44937
 Alpha  occ. eigenvalues --   -0.44710
 Alpha virt. eigenvalues --    0.04837   0.05079   0.40702   0.47747   0.66251
 Alpha virt. eigenvalues --    0.68122   0.68185   0.71862   0.72505   0.76906
 Alpha virt. eigenvalues --    0.79829   0.79843   0.80044   0.86659   0.86680

 Mulliken charges:
               1
     1  O   -0.001018
     2  O    0.000651
     3  O    0.000197
     4  O    0.000170
 Sum of Mulliken charges =  -0.00000

 Dipole moment (field-independent basis, Debye):
    X=             -0.0137    Y=              0.0269    Z=             -0.0000  Tot=              0.0302
 Quadrupole moment (field-independent basis, Debye-Ang):
   XX=            -20.4720   YY=            -20.2876   ZZ=            -19.7601
   XY=              0.7111   XZ=             -0.0000   YZ=             -0.0000

 P4DQ=-300.1011476\MP4SDQ=-300.1138731\CCSD=-300.1104053\CCSD(T)=-300.1
 Normal termination of Gaussian 16 at Fri Feb  9 19:36:44 2024.
