 Gaussian 16, Revision A.03,
 Gaussian 16:  ES64L-G16RevA.03 25-Dec-2016

 ------------------
 #p CCSD(T)/cc-pVTZ
 ------------------

 ---------
 O2_O2_212
 ---------
 Symbolic Z-matrix:
 Charge =  0 Multiplicity = 1

                         Standard orientation:
 ---------------------------------------------------------------------
 Center     Atomic      Atomic             Coordinates (Angstroms)
 Number     Number       Type             X           Y           Z
 ---------------------------------------------------------------------
      1          8           0       -0.870000   -2.190000    0.000000
      2          8           0        0.290000   -2.190000    0.000000
      3          8           0        0.290000    1.610000    0.000000
      4          8           0        0.290000    2.770000    0.000000
 ---------------------------------------------------------------------

 SCF Done:  E(RHF) =  -299.188952692     A.U. after   19 cycles
 E2 =    -0.9191748436D+00 EUMP2 =    -0.30010812753573D+03
 CCSD(T)
 CCSD(T)= -0.30015111380D+03

 The electronic state is 1-A'.
 Alpha  occ. eigenvalues --  -20.72926 -20.72847 -20.72810 -20.72730  -1.69854
 Alpha  occ. eigenvalues --   -1.69784  -1.08547  -1.08460  -0.78632  -0.78561
 Alpha  occ. eigenvalues --   -0.75190  -0.75053  -0.67382  -0.67311  -0.44799
 Alpha  occ. eigenvalues --   -0.44727
 Alpha virt. eigenvalues --    0.04974   0.05051   0.42217   0.43563   0.66433
 Alpha virt. eigenvalues --    0.70086   0.70526   0.70941   0.72576   0.75651
 Alpha virt. eigenvalues --    0.79563   0.80361   0.82306   0.83109   0.84785

 Mulliken charges:
               1
     1  O   -0.000388
     2  O    0.000618
     3  O    0.000795
     4  O   -0.001025
 Sum of Mulliken charges =  -0.00000

 Dipole moment (field-independent basis, Debye):
    X=              0.0021    Y=             -0.0137    Z=              0.0000  Tot=              0.0138
 Quadrupole moment (field-independent basis, Debye-Ang):
   XX=            -19.5548   YY=            -21.2265   ZZ=            -19.7596
   XY=             -0.0097   XZ=              0.0000   YZ=              0.0000

 SDQ=-300.1136304\CCSD=-300.1102306\CCSD(T)=-300.1511138\RMSD=1.929e-09
 Normal termination of Gaussian 16 at Fri Feb  9 20:32:07 2024.
