 Gaussian 16, Revision A.03,
 Gaussian 16:  ES64L-G16RevA.03 25-Dec-2016

 ------------------
 #p CCSD(T)/cc-pVTZ
 ------------------

 --------
 O2_O2_89
 --------
 Symbolic Z-matrix:
 Charge =  0 Multiplicity = 1

                         Standard orientation:
 ---------------------------------------------------------------------
 Center     Atomic      Atomic             Coordinates (Angstroms)
 Number     Number       Type             X           Y           Z
 ---------------------------------------------------------------------
      1          8           0       -0.870000   -1.370000    0.000000
      2          8           0        0.290000   -1.370000    0.000000
      3          8           0        0.290000    0.790000    0.000000
      4          8           0        0.290000    1.950000    0.000000
 ---------------------------------------------------------------------

 SCF Done:  E(RHF) =  -298.911570372     A.U. after   17 cycles
 E2 =    -0.1524559618D+01 EUMP2 =    -0.30043612998958D+03
 CCSD(T)
 CCSD(T)= -0.30019870722D+03

 The electronic state is 1-A'.
 Alpha  occ. eigenvalues --  -20.79533 -20.77954 -20.76301 -20.73992  -1.72979
 Alpha  occ. eigenvalues --   -1.71928  -1.12236  -1.09647  -0.80464  -0.77410
 Alpha  occ. eigenvalues --   -0.75828  -0.74611  -0.73791  -0.71021  -0.32468
 Alpha  occ. eigenvalues --   -0.31173
 Alpha virt. eigenvalues --   -0.10810  -0.09037   0.42024   0.46802   0.64892
 Alpha virt. eigenvalues --    0.67897   0.70485   0.71421   0.73248   0.73817
 Alpha virt. eigenvalues --    0.77243   0.78217   0.81675   0.86291   0.87019

 Mulliken charges:
               1
     1  O   -0.009166
     2  O    0.021394
     3  O    0.058908
     4  O   -0.071136
 Sum of Mulliken charges =   0.00000

 Dipole moment (field-independent basis, Debye):
    X=              0.0653    Y=             -0.3194    Z=              0.0000  Tot=              0.3260
 Quadrupole moment (field-independent basis, Debye-Ang):
   XX=            -20.8100   YY=            -21.0675   ZZ=            -20.1230
   XY=             -0.0203   XZ=              0.0000   YZ=              0.0000

 Q=-300.0242666\CCSD=-300.0430628\CCSD(T)=-300.1987072\RMSD=6.066e-09\P
 Normal termination of Gaussian 16 at Fri Feb  9 18:57:35 2024.
