 Gaussian 16, Revision A.03,
 Gaussian 16:  ES64L-G16RevA.03 25-Dec-2016

 ------------------
 #p CCSD(T)/cc-pVTZ
 ------------------

 --------
 O2_O2_30
 --------
 Symbolic Z-matrix:
 Charge =  0 Multiplicity = 1

                         Standard orientation:
 ---------------------------------------------------------------------
 Center     Atomic      Atomic             Coordinates (Angstroms)
 Number     Number       Type             X           Y           Z
 ---------------------------------------------------------------------
      1          8           0        0.000000    0.000000    1.860000
      2          8           0        0.000000    0.000000    0.700000
      3          8           0        0.000000    0.000000   -0.700000
      4          8           0        0.000000    0.000000   -1.860000
 ---------------------------------------------------------------------

 SCF Done:  E(RHF) =  -298.849061592     A.U. after   11 cycles
 E2 =    -0.1292348645D+01 EUMP2 =    -0.30014141023729D+03
 CCSD(T)
 CCSD(T)= -0.30003209097D+03

 The electronic state is 1-SGG.
 Alpha  occ. eigenvalues --  -20.82997 -20.82968 -20.69660 -20.69660  -1.76783
 Alpha  occ. eigenvalues --   -1.71112  -1.33549  -1.00586  -0.85782  -0.81517
 Alpha  occ. eigenvalues --   -0.81517  -0.71047  -0.71047  -0.53972  -0.37785
 Alpha  occ. eigenvalues --   -0.37785
 Alpha virt. eigenvalues --   -0.03008  -0.03008   0.45963   0.50194   0.66090
 Alpha virt. eigenvalues --    0.66204   0.66204   0.71176   0.73886   0.73886
 Alpha virt. eigenvalues --    0.83325   0.83675   0.83675   0.91153   0.99809

 Mulliken charges:
               1
     1  O   -0.172555
     2  O    0.172555
     3  O    0.172555
     4  O   -0.172555
 Sum of Mulliken charges =  -0.00000

 Dipole moment (field-independent basis, Debye):
    X=             -0.0000    Y=              0.0000    Z=             -0.0000  Tot=              0.0000
 Quadrupole moment (field-independent basis, Debye-Ang):
   XX=            -19.9547   YY=            -19.9547   ZZ=            -25.2848
   XY=              0.0000   XZ=              0.0000   YZ=              0.0000

 SDQ=-299.9540182\CCSD=-299.9311227\CCSD(T)=-300.032091\RMSD=3.879e-09\
 Normal termination of Gaussian 16 at Fri Feb  9 18:09:26 2024.
