 Gaussian 16, Revision A.03,
 Gaussian 16:  ES64L-G16RevA.03 25-Dec-2016

 ------------------
 #p CCSD(T)/cc-pVTZ
 ------------------

 --------
 O2_O2_51
 --------
 Symbolic Z-matrix:
 Charge =  0 Multiplicity = 1

                         Standard orientation:
 ---------------------------------------------------------------------
 Center     Atomic      Atomic             Coordinates (Angstroms)
 Number     Number       Type             X           Y           Z
 ---------------------------------------------------------------------
      1          8           0        0.000000    0.000000    2.000000
      2          8           0        0.000000    0.000000    0.840000
      3          8           0        0.000000    0.000000   -0.840000
      4          8           0        0.000000    0.000000   -2.000000
 ---------------------------------------------------------------------

 SCF Done:  E(RHF) =  -298.929062850     A.U. after   10 cycles
 E2 =    -0.1393073342D+01 EUMP2 =    -0.30032213619206D+03
 CCSD(T)
 CCSD(T)= -0.30014937659D+03

 The electronic state is 1-SGG.
 Alpha  occ. eigenvalues --  -20.81656 -20.81644 -20.72567 -20.72567  -1.74122
 Alpha  occ. eigenvalues --   -1.72053  -1.21713  -1.04581  -0.84178  -0.77974
 Alpha  occ. eigenvalues --   -0.77974  -0.72698  -0.72698  -0.66081  -0.34593
 Alpha  occ. eigenvalues --   -0.34593
 Alpha virt. eigenvalues --   -0.07004  -0.07004   0.46037   0.49229   0.66323
 Alpha virt. eigenvalues --    0.66323   0.71040   0.72904   0.72904   0.75341
 Alpha virt. eigenvalues --    0.81227   0.81227   0.84303   0.85160   0.98418

 Mulliken charges:
               1
     1  O   -0.123227
     2  O    0.123227
     3  O    0.123227
     4  O   -0.123227
 Sum of Mulliken charges =  -0.00000

 Dipole moment (field-independent basis, Debye):
    X=             -0.0000    Y=             -0.0000    Z=             -0.0000  Tot=              0.0000
 Quadrupole moment (field-independent basis, Debye-Ang):
   XX=            -20.1608   YY=            -20.1608   ZZ=            -23.4263
   XY=              0.0000   XZ=              0.0000   YZ=              0.0000

 4SDQ=-300.0333729\CCSD=-300.0301974\CCSD(T)=-300.1493766\RMSD=6.354e-0
 Normal termination of Gaussian 16 at Fri Feb  9 18:27:03 2024.
