 Gaussian 16, Revision A.03,
 Gaussian 16:  ES64L-G16RevA.03 25-Dec-2016

 ------------------
 #p CCSD(T)/cc-pVTZ
 ------------------

 ---------
 O2_O2_242
 ---------
 Symbolic Z-matrix:
 Charge =  0 Multiplicity = 1

                         Standard orientation:
 ---------------------------------------------------------------------
 Center     Atomic      Atomic             Coordinates (Angstroms)
 Number     Number       Type             X           Y           Z
 ---------------------------------------------------------------------
      1          8           0       -0.870000   -2.390000    0.000000
      2          8           0        0.290000   -2.390000    0.000000
      3          8           0        0.290000    1.810000    0.000000
      4          8           0        0.290000    2.970000    0.000000
 ---------------------------------------------------------------------

 SCF Done:  E(RHF) =  -299.188907191     A.U. after   20 cycles
 E2 =    -0.9190442934D+00 EUMP2 =    -0.30010795148449D+03
 CCSD(T)
 CCSD(T)= -0.30015095329D+03

 The electronic state is 1-A'.
 Alpha  occ. eigenvalues --  -20.72925 -20.72873 -20.72809 -20.72756  -1.69856
 Alpha  occ. eigenvalues --   -1.69809  -1.08547  -1.08490  -0.78632  -0.78586
 Alpha  occ. eigenvalues --   -0.75174  -0.75103  -0.67385  -0.67337  -0.44802
 Alpha  occ. eigenvalues --   -0.44752
 Alpha virt. eigenvalues --    0.04972   0.05026   0.42905   0.43489   0.68728
 Alpha virt. eigenvalues --    0.70356   0.70619   0.70687   0.72559   0.74033
 Alpha virt. eigenvalues --    0.79795   0.80222   0.82273   0.82583   0.84741

 Mulliken charges:
               1
     1  O   -0.000290
     2  O    0.000370
     3  O    0.000825
     4  O   -0.000905
 Sum of Mulliken charges =  -0.00000

 Dipole moment (field-independent basis, Debye):
    X=              0.0015    Y=             -0.0086    Z=              0.0000  Tot=              0.0087
 Quadrupole moment (field-independent basis, Debye-Ang):
   XX=            -19.5537   YY=            -21.2202   ZZ=            -19.7593
   XY=             -0.0073   XZ=              0.0000   YZ=              0.0000

 SDQ=-300.1134808\CCSD=-300.1100851\CCSD(T)=-300.1509533\RMSD=3.342e-09
 Normal termination of Gaussian 16 at Fri Feb  9 20:53:57 2024.
