 Gaussian 16, Revision A.03,
 Gaussian 16:  ES64L-G16RevA.03 25-Dec-2016

 ------------------
 #p CCSD(T)/cc-pVTZ
 ------------------

 ---------
 O2_O2_133
 ---------
 Symbolic Z-matrix:
 Charge =  0 Multiplicity = 1

                         Standard orientation:
 ---------------------------------------------------------------------
 Center     Atomic      Atomic             Coordinates (Angstroms)
 Number     Number       Type             X           Y           Z
 ---------------------------------------------------------------------
      1          8           0        0.615183   -2.285183    0.000000
      2          8           0       -0.205061   -1.464939    0.000000
      3          8           0       -0.205061    1.295061    0.000000
      4          8           0       -0.205061    2.455061    0.000000
 ---------------------------------------------------------------------

 SCF Done:  E(RHF) =  -299.188153562     A.U. after   22 cycles
 E2 =    -0.9204236503D+00 EUMP2 =    -0.30010857721223D+03
 CCSD(T)
 CCSD(T)= -0.30015128641D+03

 The electronic state is 1-A'.
 Alpha  occ. eigenvalues --  -20.73055 -20.72939 -20.72811 -20.72685  -1.70001
 Alpha  occ. eigenvalues --   -1.69747  -1.09097  -1.08092  -0.78772  -0.78531
 Alpha  occ. eigenvalues --   -0.76071  -0.74355  -0.67518  -0.67231  -0.44943
 Alpha  occ. eigenvalues --   -0.44696
 Alpha virt. eigenvalues --    0.04831   0.05112   0.41206   0.47862   0.66611
 Alpha virt. eigenvalues --    0.67910   0.67967   0.71990   0.72637   0.76987
 Alpha virt. eigenvalues --    0.79687   0.79875   0.80287   0.86578   0.87131

 Mulliken charges:
               1
     1  O   -0.001270
     2  O    0.000842
     3  O    0.001148
     4  O   -0.000721
 Sum of Mulliken charges =  -0.00000

 Dipole moment (field-independent basis, Debye):
    X=             -0.0155    Y=              0.0305    Z=             -0.0000  Tot=              0.0342
 Quadrupole moment (field-independent basis, Debye-Ang):
   XX=            -20.4729   YY=            -20.2972   ZZ=            -19.7604
   XY=              0.7121   XZ=              0.0000   YZ=              0.0000

 P4DQ=-300.1010299\MP4SDQ=-300.1137641\CCSD=-300.1102833\CCSD(T)=-300.1
 Normal termination of Gaussian 16 at Fri Feb  9 19:32:17 2024.
