 Gaussian 16, Revision A.03,
 Gaussian 16:  ES64L-G16RevA.03 25-Dec-2016

 ------------------
 #p CCSD(T)/cc-pVTZ
 ------------------

 ---------
 O2_O2_208
 ---------
 Symbolic Z-matrix:
 Charge =  0 Multiplicity = 1

                         Standard orientation:
 ---------------------------------------------------------------------
 Center     Atomic      Atomic             Coordinates (Angstroms)
 Number     Number       Type             X           Y           Z
 ---------------------------------------------------------------------
      1          8           0        0.615183   -2.785183    0.000000
      2          8           0       -0.205061   -1.964939    0.000000
      3          8           0       -0.205061    1.795061   -0.000000
      4          8           0       -0.205061    2.955061   -0.000000
 ---------------------------------------------------------------------

 SCF Done:  E(RHF) =  -299.188949680     A.U. after   17 cycles
 E2 =    -0.9191967471D+00 EUMP2 =    -0.30010814642668D+03
 CCSD(T)
 CCSD(T)= -0.30015110944D+03

 The electronic state is 1-A'.
 Alpha  occ. eigenvalues --  -20.72937 -20.72856 -20.72820 -20.72739  -1.69865
 Alpha  occ. eigenvalues --   -1.69794  -1.08564  -1.08456  -0.78639  -0.78571
 Alpha  occ. eigenvalues --   -0.75230  -0.75025  -0.67391  -0.67323  -0.44803
 Alpha  occ. eigenvalues --   -0.44736
 Alpha virt. eigenvalues --    0.04970   0.05039   0.39519   0.46269   0.67404
 Alpha virt. eigenvalues --    0.70192   0.70414   0.70825   0.71329   0.75166
 Alpha virt. eigenvalues --    0.78565   0.80621   0.82001   0.84987   0.85090

 Mulliken charges:
               1
     1  O   -0.000061
     2  O    0.000471
     3  O    0.000262
     4  O   -0.000672
 Sum of Mulliken charges =  -0.00000

 Dipole moment (field-independent basis, Debye):
    X=             -0.0008    Y=             -0.0148    Z=             -0.0000  Tot=              0.0149
 Quadrupole moment (field-independent basis, Debye-Ang):
   XX=            -19.6569   YY=            -21.1274   ZZ=            -19.7598
   XY=             -0.0943   XZ=             -0.0000   YZ=              0.0000

 P4DQ=-300.1009373\MP4SDQ=-300.1136352\CCSD=-300.1102255\CCSD(T)=-300.1
 Normal termination of Gaussian 16 at Fri Feb  9 20:29:04 2024.
