 Gaussian 16, Revision A.03,
 Gaussian 16:  ES64L-G16RevA.03 25-Dec-2016

 ------------------
 #p CCSD(T)/cc-pVTZ
 ------------------

 --------
 O2_O2_73
 --------
 Symbolic Z-matrix:
 Charge =  0 Multiplicity = 1

                         Standard orientation:
 ---------------------------------------------------------------------
 Center     Atomic      Atomic             Coordinates (Angstroms)
 Number     Number       Type             X           Y           Z
 ---------------------------------------------------------------------
      1          8           0        0.615183   -1.885183    0.000000
      2          8           0       -0.205061   -1.064939   -0.000000
      3          8           0       -0.205061    0.895061   -0.000000
      4          8           0       -0.205061    2.055061   -0.000000
 ---------------------------------------------------------------------

 SCF Done:  E(RHF) =  -299.160674459     A.U. after   18 cycles
 E2 =    -0.9286571797D+00 EUMP2 =    -0.30008933163828D+03
 CCSD(T)
 CCSD(T)= -0.30013032585D+03

 The electronic state is 1-A'.
 Alpha  occ. eigenvalues --  -20.72975 -20.72818 -20.72602 -20.71743  -1.70411
 Alpha  occ. eigenvalues --   -1.69291  -1.12887  -1.05646  -0.79541  -0.79009
 Alpha  occ. eigenvalues --   -0.78282  -0.71458  -0.67702  -0.65385  -0.45100
 Alpha  occ. eigenvalues --   -0.44314
 Alpha virt. eigenvalues --    0.04708   0.06030   0.45364   0.49243   0.65745
 Alpha virt. eigenvalues --    0.66839   0.73340   0.73343   0.74119   0.77737
 Alpha virt. eigenvalues --    0.79415   0.80737   0.81401   0.86477   0.95157

 Mulliken charges:
               1
     1  O   -0.016813
     2  O    0.010630
     3  O    0.024955
     4  O   -0.018772
 Sum of Mulliken charges =  -0.00000

 Dipole moment (field-independent basis, Debye):
    X=             -0.0889    Y=              0.1513    Z=              0.0000  Tot=              0.1755
 Quadrupole moment (field-independent basis, Debye-Ang):
   XX=            -20.5224   YY=            -20.7434   ZZ=            -19.7491
   XY=              0.8078   XZ=             -0.0000   YZ=             -0.0000

 4DQ=-300.0790197\MP4SDQ=-300.0922454\CCSD=-300.0883189\CCSD(T)=-300.13
 Normal termination of Gaussian 16 at Fri Feb  9 18:44:43 2024.
