 Gaussian 16, Revision A.03,
 Gaussian 16:  ES64L-G16RevA.03 25-Dec-2016

 ------------------
 #p CCSD(T)/cc-pVTZ
 ------------------

 ---------
 O2_O2_283
 ---------
 Symbolic Z-matrix:
 Charge =  0 Multiplicity = 1

                         Standard orientation:
 ---------------------------------------------------------------------
 Center     Atomic      Atomic             Coordinates (Angstroms)
 Number     Number       Type             X           Y           Z
 ---------------------------------------------------------------------
      1          8           0        0.615183   -3.285183    0.000000
      2          8           0       -0.205061   -2.464939    0.000000
      3          8           0       -0.205061    2.295061   -0.000000
      4          8           0       -0.205061    3.455061   -0.000000
 ---------------------------------------------------------------------

 SCF Done:  E(RHF) =  -299.188873114     A.U. after   17 cycles
 E2 =    -0.9189656879D+00 EUMP2 =    -0.30010783880221D+03
 CCSD(T)
 CCSD(T)= -0.30015084921D+03

 The electronic state is 1-A'.
 Alpha  occ. eigenvalues --  -20.72931 -20.72909 -20.72815 -20.72793  -1.69865
 Alpha  occ. eigenvalues --   -1.69844  -1.08552  -1.08528  -0.78641  -0.78621
 Alpha  occ. eigenvalues --   -0.75175  -0.75145  -0.67393  -0.67373  -0.44809
 Alpha  occ. eigenvalues --   -0.44788
 Alpha virt. eigenvalues --    0.04966   0.04988   0.42653   0.43945   0.70370
 Alpha virt. eigenvalues --    0.70429   0.70579   0.70596   0.72153   0.72998
 Alpha virt. eigenvalues --    0.79573   0.80300   0.82239   0.82365   0.84730

 Mulliken charges:
               1
     1  O   -0.000301
     2  O    0.000312
     3  O    0.000513
     4  O   -0.000524
 Sum of Mulliken charges =   0.00000

 Dipole moment (field-independent basis, Debye):
    X=             -0.0008    Y=             -0.0030    Z=              0.0000  Tot=              0.0031
 Quadrupole moment (field-independent basis, Debye-Ang):
   XX=            -19.6561   YY=            -21.1129   ZZ=            -19.7590
   XY=             -0.0982   XZ=             -0.0000   YZ=              0.0000

 P4DQ=-300.100701\MP4SDQ=-300.1133856\CCSD=-300.1099894\CCSD(T)=-300.15
 Normal termination of Gaussian 16 at Fri Feb  9 21:25:02 2024.
