 Gaussian 16, Revision A.03,
 Gaussian 16:  ES64L-G16RevA.03 25-Dec-2016

 ------------------
 #p CCSD(T)/cc-pVTZ
 ------------------

 --------
 O2_O2_11
 --------
 Symbolic Z-matrix:
 Charge =  0 Multiplicity = 1

                         Standard orientation:
 ---------------------------------------------------------------------
 Center     Atomic      Atomic             Coordinates (Angstroms)
 Number     Number       Type             X           Y           Z
 ---------------------------------------------------------------------
      1          8           0       -0.870000   -0.850000    0.000000
      2          8           0        0.290000   -0.850000    0.000000
      3          8           0        0.290000    0.270000    0.000000
      4          8           0        0.290000    1.430000    0.000000
 ---------------------------------------------------------------------

 SCF Done:  E(RHF) =  -298.765857595     A.U. after   17 cycles
 E2 =    -0.9644232448D+00 EUMP2 =    -0.29973028084027D+03
 CCSD(T)
 CCSD(T)= -0.29976475342D+03

 The electronic state is 1-A'.
 Alpha  occ. eigenvalues --  -20.92209 -20.82365 -20.71214 -20.53966  -1.99925
 Alpha  occ. eigenvalues --   -1.68264  -1.38053  -1.09168  -0.95957  -0.90359
 Alpha  occ. eigenvalues --   -0.84361  -0.73726  -0.66843  -0.52598  -0.40893
 Alpha  occ. eigenvalues --   -0.39484
 Alpha virt. eigenvalues --    0.00614   0.21830   0.40556   0.46566   0.59937
 Alpha virt. eigenvalues --    0.62625   0.65429   0.71200   0.74344   0.75149
 Alpha virt. eigenvalues --    0.81862   0.83804   0.87145   0.88441   0.91659

 Mulliken charges:
               1
     1  O   -0.495796
     2  O    0.311935
     3  O    0.367896
     4  O   -0.184034
 Sum of Mulliken charges =  -0.00000

 Dipole moment (field-independent basis, Debye):
    X=              2.6546    Y=             -0.0256    Z=              0.0000  Tot=              2.6547
 Quadrupole moment (field-independent basis, Debye-Ang):
   XX=            -22.3079   YY=            -22.8307   ZZ=            -19.1604
   XY=             -2.8187   XZ=              0.0000   YZ=              0.0000

 SDQ=-299.7148137\CCSD=-299.7135177\CCSD(T)=-299.7647534\RMSD=2.133e-09
 Normal termination of Gaussian 16 at Fri Feb  9 17:51:13 2024.
