 Gaussian 16, Revision A.03,
 Gaussian 16:  ES64L-G16RevA.03 25-Dec-2016

 ------------------
 #p CCSD(T)/cc-pVTZ
 ------------------

 ---------
 O2_O2_137
 ---------
 Symbolic Z-matrix:
 Charge =  0 Multiplicity = 1

                         Standard orientation:
 ---------------------------------------------------------------------
 Center     Atomic      Atomic             Coordinates (Angstroms)
 Number     Number       Type             X           Y           Z
 ---------------------------------------------------------------------
      1          8           0       -0.870000   -1.690000    0.000000
      2          8           0        0.290000   -1.690000    0.000000
      3          8           0        0.290000    1.110000    0.000000
      4          8           0        0.290000    2.270000    0.000000
 ---------------------------------------------------------------------

 SCF Done:  E(RHF) =  -299.188061982     A.U. after   22 cycles
 E2 =    -0.9203368154D+00 EUMP2 =    -0.30010839879777D+03
 CCSD(T)
 CCSD(T)= -0.30015128768D+03

 The electronic state is 1-A'.
 Alpha  occ. eigenvalues --  -20.72913 -20.72789 -20.72682 -20.72559  -1.69866
 Alpha  occ. eigenvalues --   -1.69627  -1.08674  -1.08230  -0.78937  -0.78428
 Alpha  occ. eigenvalues --   -0.75381  -0.74409  -0.67368  -0.67176  -0.44796
 Alpha  occ. eigenvalues --   -0.44585
 Alpha virt. eigenvalues --    0.04982   0.05183   0.42313   0.44813   0.64915
 Alpha virt. eigenvalues --    0.67457   0.68814   0.72504   0.72780   0.76915
 Alpha virt. eigenvalues --    0.78556   0.80053   0.81390   0.82813   0.86211

 Mulliken charges:
               1
     1  O   -0.001539
     2  O    0.002294
     3  O    0.003034
     4  O   -0.003789
 Sum of Mulliken charges =  -0.00000

 Dipole moment (field-independent basis, Debye):
    X=              0.0159    Y=             -0.0291    Z=              0.0000  Tot=              0.0332
 Quadrupole moment (field-independent basis, Debye-Ang):
   XX=            -19.5664   YY=            -21.3469   ZZ=            -19.7624
   XY=             -0.0291   XZ=              0.0000   YZ=              0.0000

 DQ=-300.1136862\CCSD=-300.1102571\CCSD(T)=-300.1512877\RMSD=4.425e-09\
 Normal termination of Gaussian 16 at Fri Feb  9 19:35:19 2024.
