 Gaussian 16, Revision A.03,
 Gaussian 16:  ES64L-G16RevA.03 25-Dec-2016

 ------------------
 #p CCSD(T)/cc-pVTZ
 ------------------

 ---------
 O2_O2_136
 ---------
 Symbolic Z-matrix:
 Charge =  0 Multiplicity = 1

                         Standard orientation:
 ---------------------------------------------------------------------
 Center     Atomic      Atomic             Coordinates (Angstroms)
 Number     Number       Type             X           Y           Z
 ---------------------------------------------------------------------
      1          8           0        0.615183   -2.305183    0.000000
      2          8           0       -0.205061   -1.484939    0.000000
      3          8           0       -0.205061    1.315061    0.000000
      4          8           0       -0.205061    2.475061    0.000000
 ---------------------------------------------------------------------

 SCF Done:  E(RHF) =  -299.188301156     A.U. after   27 cycles
 E2 =    -0.9203121331D+00 EUMP2 =    -0.30010861328914D+03
 CCSD(T)
 CCSD(T)= -0.30015134618D+03

 The electronic state is 1-A'.
 Alpha  occ. eigenvalues --  -20.73055 -20.72938 -20.72819 -20.72695  -1.69997
 Alpha  occ. eigenvalues --   -1.69754  -1.09047  -1.08135  -0.78769  -0.78538
 Alpha  occ. eigenvalues --   -0.76001  -0.74421  -0.67515  -0.67246  -0.44940
 Alpha  occ. eigenvalues --   -0.44703
 Alpha virt. eigenvalues --    0.04834   0.05095   0.40952   0.47804   0.66437
 Alpha virt. eigenvalues --    0.68024   0.68048   0.71926   0.72571   0.76947
 Alpha virt. eigenvalues --    0.79761   0.79854   0.80156   0.86617   0.86912

 Mulliken charges:
               1
     1  O   -0.001137
     2  O    0.000740
     3  O    0.000641
     4  O   -0.000243
 Sum of Mulliken charges =  -0.00000

 Dipole moment (field-independent basis, Debye):
    X=             -0.0145    Y=              0.0286    Z=              0.0000  Tot=              0.0321
 Quadrupole moment (field-independent basis, Debye-Ang):
   XX=            -20.4725   YY=            -20.2921   ZZ=            -19.7603
   XY=              0.7115   XZ=              0.0000   YZ=              0.0000

 P4DQ=-300.1010981\MP4SDQ=-300.1138278\CCSD=-300.1103537\CCSD(T)=-300.1
 Normal termination of Gaussian 16 at Fri Feb  9 19:34:32 2024.
