 Gaussian 16, Revision A.03,
 Gaussian 16:  ES64L-G16RevA.03 25-Dec-2016

 ------------------
 #p CCSD(T)/cc-pVTZ
 ------------------

 ---------
 O2_O2_255
 ---------
 Symbolic Z-matrix:
 Charge =  0 Multiplicity = 1

                         Standard orientation:
 ---------------------------------------------------------------------
 Center     Atomic      Atomic             Coordinates (Angstroms)
 Number     Number       Type             X           Y           Z
 ---------------------------------------------------------------------
      1          8           0        0.000000    0.000000    3.360000
      2          8           0        0.000000    0.000000    2.200000
      3          8           0        0.000000    0.000000   -2.200000
      4          8           0        0.000000    0.000000   -3.360000
 ---------------------------------------------------------------------

 SCF Done:  E(RHF) =  -298.787129809     A.U. after   10 cycles
 E2 =    -0.2697269716D+01 EUMP2 =    -0.30148439952520D+03
 CCSD(T)
 CCSD(T)= -0.30030748492D+03

 The electronic state is 1-SGG.
 Alpha  occ. eigenvalues --  -20.76702 -20.76701 -20.75630 -20.75630  -1.71785
 Alpha  occ. eigenvalues --   -1.71778  -1.10120  -1.10015  -0.76829  -0.76766
 Alpha  occ. eigenvalues --   -0.74363  -0.74363  -0.74127  -0.74127  -0.25499
 Alpha  occ. eigenvalues --   -0.25499
 Alpha virt. eigenvalues --   -0.15710  -0.15710   0.40485   0.44618   0.69774
 Alpha virt. eigenvalues --    0.69774   0.69895   0.69895   0.70341   0.73428
 Alpha virt. eigenvalues --    0.77495   0.80038   0.82584   0.82584   0.82965

 Mulliken charges:
               1
     1  O   -0.013158
     2  O    0.013158
     3  O    0.013158
     4  O   -0.013158
 Sum of Mulliken charges =  -0.00000

 Dipole moment (field-independent basis, Debye):
    X=             -0.0000    Y=             -0.0000    Z=             -0.0000  Tot=              0.0000
 Quadrupole moment (field-independent basis, Debye-Ang):
   XX=            -20.0757   YY=            -20.0757   ZZ=            -21.9995
   XY=              0.0000   XZ=              0.0000   YZ=              0.0000

 4SDQ=-312.1388861\CCSD=-300.0247668\CCSD(T)=-300.3074849\RMSD=1.754e-0
 Normal termination of Gaussian 16 at Fri Feb  9 21:04:45 2024.
