 Gaussian 16, Revision A.03,
 Gaussian 16:  ES64L-G16RevA.03 25-Dec-2016

 ------------------
 #p CCSD(T)/cc-pVTZ
 ------------------

 --------
 O2_O2_69
 --------
 Symbolic Z-matrix:
 Charge =  0 Multiplicity = 1

                         Standard orientation:
 ---------------------------------------------------------------------
 Center     Atomic      Atomic             Coordinates (Angstroms)
 Number     Number       Type             X           Y           Z
 ---------------------------------------------------------------------
      1          8           0        0.000000    0.000000    2.120000
      2          8           0        0.000000    0.000000    0.960000
      3          8           0        0.000000    0.000000   -0.960000
      4          8           0        0.000000    0.000000   -2.120000
 ---------------------------------------------------------------------

 SCF Done:  E(RHF) =  -298.925095938     A.U. after   10 cycles
 E2 =    -0.1503671411D+01 EUMP2 =    -0.30042876734881D+03
 CCSD(T)
 CCSD(T)= -0.30018695144D+03

 The electronic state is 1-SGG.
 Alpha  occ. eigenvalues --  -20.80890 -20.80882 -20.73929 -20.73929  -1.73397
 Alpha  occ. eigenvalues --   -1.72407  -1.16489  -1.06915  -0.82352  -0.76716
 Alpha  occ. eigenvalues --   -0.76716  -0.73492  -0.73492  -0.71095  -0.32547
 Alpha  occ. eigenvalues --   -0.32547
 Alpha virt. eigenvalues --   -0.09334  -0.09334   0.45340   0.48973   0.65884
 Alpha virt. eigenvalues --    0.65884   0.72348   0.72348   0.72372   0.76406
 Alpha virt. eigenvalues --    0.79578   0.79578   0.83992   0.85220   0.92491

 Mulliken charges:
               1
     1  O   -0.091635
     2  O    0.091635
     3  O    0.091635
     4  O   -0.091635
 Sum of Mulliken charges =   0.00000

 Dipole moment (field-independent basis, Debye):
    X=             -0.0000    Y=             -0.0000    Z=             -0.0000  Tot=              0.0000
 Quadrupole moment (field-independent basis, Debye-Ang):
   XX=            -20.2246   YY=            -20.2246   ZZ=            -22.5639
   XY=              0.0000   XZ=              0.0000   YZ=              0.0000

 4SDQ=-300.0702513\CCSD=-300.0471427\CCSD(T)=-300.1869514\RMSD=4.241e-0
 Normal termination of Gaussian 16 at Fri Feb  9 18:41:31 2024.
