 Gaussian 16, Revision A.03,
 Gaussian 16:  ES64L-G16RevA.03 25-Dec-2016

 ------------------
 #p CCSD(T)/cc-pVTZ
 ------------------

 ---------
 O2_O2_176
 ---------
 Symbolic Z-matrix:
 Charge =  0 Multiplicity = 1

                         Standard orientation:
 ---------------------------------------------------------------------
 Center     Atomic      Atomic             Coordinates (Angstroms)
 Number     Number       Type             X           Y           Z
 ---------------------------------------------------------------------
      1          8           0       -0.870000   -1.950000    0.000000
      2          8           0        0.290000   -1.950000    0.000000
      3          8           0        0.290000    1.370000    0.000000
      4          8           0        0.290000    2.530000    0.000000
 ---------------------------------------------------------------------

 SCF Done:  E(RHF) =  -299.188981021     A.U. after   18 cycles
 E2 =    -0.9194945105D+00 EUMP2 =    -0.30010847553195D+03
 CCSD(T)
 CCSD(T)= -0.30015143963D+03

 The electronic state is 1-A'.
 Alpha  occ. eigenvalues --  -20.72926 -20.72810 -20.72799 -20.72679  -1.69851
 Alpha  occ. eigenvalues --   -1.69737  -1.08560  -1.08399  -0.78664  -0.78517
 Alpha  occ. eigenvalues --   -0.75249  -0.74907  -0.67376  -0.67265  -0.44797
 Alpha  occ. eigenvalues --   -0.44680
 Alpha virt. eigenvalues --    0.04977   0.05093   0.41414   0.43738   0.64145
 Alpha virt. eigenvalues --    0.69234   0.69930   0.71562   0.72665   0.76910
 Alpha virt. eigenvalues --    0.78991   0.80424   0.82433   0.82479   0.85071

 Mulliken charges:
               1
     1  O   -0.000598
     2  O    0.000984
     3  O    0.000587
     4  O   -0.000972
 Sum of Mulliken charges =  -0.00000

 Dipole moment (field-independent basis, Debye):
    X=              0.0049    Y=             -0.0203    Z=              0.0000  Tot=              0.0209
 Quadrupole moment (field-independent basis, Debye-Ang):
   XX=            -19.5579   YY=            -21.2552   ZZ=            -19.7605
   XY=             -0.0155   XZ=              0.0000   YZ=              0.0000

 SDQ=-300.1139232\CCSD=-300.1105158\CCSD(T)=-300.1514396\RMSD=4.899e-09
 Normal termination of Gaussian 16 at Fri Feb  9 20:05:21 2024.
