 Gaussian 16, Revision A.03,
 Gaussian 16:  ES64L-G16RevA.03 25-Dec-2016

 ------------------
 #p CCSD(T)/cc-pVTZ
 ------------------

 ---------
 O2_O2_269
 ---------
 Symbolic Z-matrix:
 Charge =  0 Multiplicity = 1

                         Standard orientation:
 ---------------------------------------------------------------------
 Center     Atomic      Atomic             Coordinates (Angstroms)
 Number     Number       Type             X           Y           Z
 ---------------------------------------------------------------------
      1          8           0       -0.870000   -2.570000    0.000000
      2          8           0        0.290000   -2.570000    0.000000
      3          8           0        0.290000    1.990000    0.000000
      4          8           0        0.290000    3.150000    0.000000
 ---------------------------------------------------------------------

 SCF Done:  E(RHF) =  -299.188883381     A.U. after   18 cycles
 E2 =    -0.9189848612D+00 EUMP2 =    -0.30010786824239D+03
 CCSD(T)
 CCSD(T)= -0.30015087978D+03

 The electronic state is 1-A'.
 Alpha  occ. eigenvalues --  -20.72927 -20.72889 -20.72811 -20.72773  -1.69859
 Alpha  occ. eigenvalues --   -1.69825  -1.08549  -1.08508  -0.78635  -0.78602
 Alpha  occ. eigenvalues --   -0.75172  -0.75126  -0.67388  -0.67353  -0.44805
 Alpha  occ. eigenvalues --   -0.44769
 Alpha virt. eigenvalues --    0.04969   0.05008   0.43166   0.43424   0.69936
 Alpha virt. eigenvalues --    0.70429   0.70601   0.70619   0.72555   0.73037
 Alpha virt. eigenvalues --    0.79882   0.80077   0.82257   0.82310   0.84731

 Mulliken charges:
               1
     1  O   -0.000230
     2  O    0.000250
     3  O    0.000707
     4  O   -0.000728
 Sum of Mulliken charges =  -0.00000

 Dipole moment (field-independent basis, Debye):
    X=              0.0013    Y=             -0.0058    Z=              0.0000  Tot=              0.0059
 Quadrupole moment (field-independent basis, Debye-Ang):
   XX=            -19.5531   YY=            -21.2159   ZZ=            -19.7591
   XY=             -0.0060   XZ=              0.0000   YZ=              0.0000

 SDQ=-300.1134115\CCSD=-300.1100177\CCSD(T)=-300.1508798\RMSD=6.016e-09
 Normal termination of Gaussian 16 at Fri Feb  9 21:15:05 2024.
