 Gaussian 16, Revision A.03,
 Gaussian 16:  ES64L-G16RevA.03 25-Dec-2016

 ------------------
 #p CCSD(T)/cc-pVTZ
 ------------------

 --------
 O2_O2_19
 --------
 Symbolic Z-matrix:
 Charge =  0 Multiplicity = 1

                         Standard orientation:
 ---------------------------------------------------------------------
 Center     Atomic      Atomic             Coordinates (Angstroms)
 Number     Number       Type             X           Y           Z
 ---------------------------------------------------------------------
      1          8           0        0.615183   -1.525183    0.000000
      2          8           0       -0.205061   -0.704939    0.000000
      3          8           0       -0.205061    0.535061   -0.000000
      4          8           0       -0.205061    1.695061   -0.000000
 ---------------------------------------------------------------------

 SCF Done:  E(RHF) =  -298.907491885     A.U. after   17 cycles
 E2 =    -0.1011688945D+01 EUMP2 =    -0.29991918082968D+03
 CCSD(T)
 CCSD(T)= -0.29994622651D+03

 The electronic state is 1-A'.
 Alpha  occ. eigenvalues --  -20.88050 -20.83411 -20.71311 -20.62127  -1.84507
 Alpha  occ. eigenvalues --   -1.69885  -1.41117  -0.99400  -0.90219  -0.88383
 Alpha  occ. eigenvalues --   -0.84778  -0.74062  -0.69787  -0.50184  -0.47229
 Alpha  occ. eigenvalues --   -0.40468
 Alpha virt. eigenvalues --    0.00155   0.12966   0.47003   0.52520   0.64150
 Alpha virt. eigenvalues --    0.64153   0.64452   0.67689   0.75067   0.76889
 Alpha virt. eigenvalues --    0.80494   0.82270   0.84919   0.86459   0.93109

 Mulliken charges:
               1
     1  O   -0.314777
     2  O    0.240339
     3  O    0.236926
     4  O   -0.162487
 Sum of Mulliken charges =  -0.00000

 Dipole moment (field-independent basis, Debye):
    X=             -0.8528    Y=              0.9618    Z=             -0.0000  Tot=              1.2854
 Quadrupole moment (field-independent basis, Debye-Ang):
   XX=            -21.3397   YY=            -25.2745   ZZ=            -19.4237
   XY=              1.7485   XZ=             -0.0000   YZ=              0.0000

 4DQ=-299.8589465\MP4SDQ=-299.8937636\CCSD=-299.8831132\CCSD(T)=-299.94
 Normal termination of Gaussian 16 at Fri Feb  9 17:57:51 2024.
