 Gaussian 16, Revision A.03,
 Gaussian 16:  ES64L-G16RevA.03 25-Dec-2016

 ------------------
 #p CCSD(T)/cc-pVTZ
 ------------------

 ---------
 O2_O2_117
 ---------
 Symbolic Z-matrix:
 Charge =  0 Multiplicity = 1

                         Standard orientation:
 ---------------------------------------------------------------------
 Center     Atomic      Atomic             Coordinates (Angstroms)
 Number     Number       Type             X           Y           Z
 ---------------------------------------------------------------------
      1          8           0        0.000000    0.000000    2.440000
      2          8           0        0.000000    0.000000    1.280000
      3          8           0        0.000000    0.000000   -1.280000
      4          8           0        0.000000    0.000000   -2.440000
 ---------------------------------------------------------------------

 SCF Done:  E(RHF) =  -298.864440557     A.U. after   10 cycles
 E2 =    -0.1826638594D+01 EUMP2 =    -0.30069107915105D+03
 CCSD(T)
 CCSD(T)= -0.30023934020D+03

 The electronic state is 1-SGG.
 Alpha  occ. eigenvalues --  -20.78868 -20.78865 -20.75223 -20.75222  -1.72509
 Alpha  occ. eigenvalues --   -1.72336  -1.11657  -1.09507  -0.78768  -0.75699
 Alpha  occ. eigenvalues --   -0.75311  -0.75311  -0.74146  -0.74146  -0.29127
 Alpha  occ. eigenvalues --   -0.29127
 Alpha virt. eigenvalues --   -0.12667  -0.12667   0.41629   0.48958   0.66354
 Alpha virt. eigenvalues --    0.66354   0.68162   0.71411   0.71411   0.75957
 Alpha virt. eigenvalues --    0.78424   0.78424   0.80975   0.85231   0.86715

 Mulliken charges:
               1
     1  O   -0.041270
     2  O    0.041270
     3  O    0.041270
     4  O   -0.041270
 Sum of Mulliken charges =  -0.00000

 Dipole moment (field-independent basis, Debye):
    X=             -0.0000    Y=             -0.0000    Z=              0.0000  Tot=              0.0000
 Quadrupole moment (field-independent basis, Debye-Ang):
   XX=            -20.1865   YY=            -20.1865   ZZ=            -21.9042
   XY=              0.0000   XZ=              0.0000   YZ=              0.0000

 P4SDQ=-300.6151264\CCSD=-300.0372364\CCSD(T)=-300.2393402\RMSD=2.478e-
 Normal termination of Gaussian 16 at Fri Feb  9 19:20:28 2024.
