 Gaussian 16, Revision A.03,
 Gaussian 16:  ES64L-G16RevA.03 25-Dec-2016

 ------------------
 #p CCSD(T)/cc-pVTZ
 ------------------

 ---------
 O2_O2_171
 ---------
 Symbolic Z-matrix:
 Charge =  0 Multiplicity = 1

                         Standard orientation:
 ---------------------------------------------------------------------
 Center     Atomic      Atomic             Coordinates (Angstroms)
 Number     Number       Type             X           Y           Z
 ---------------------------------------------------------------------
      1          8           0        0.000000    0.000000    2.800000
      2          8           0        0.000000    0.000000    1.640000
      3          8           0        0.000000    0.000000   -1.640000
      4          8           0        0.000000    0.000000   -2.800000
 ---------------------------------------------------------------------

 SCF Done:  E(RHF) =  -298.819687555     A.U. after   10 cycles
 E2 =    -0.2184613994D+01 EUMP2 =    -0.30100430154980D+03
 CCSD(T)
 CCSD(T)= -0.30027816539D+03

 The electronic state is 1-SGG.
 Alpha  occ. eigenvalues --  -20.77445 -20.77443 -20.75460 -20.75460  -1.72006
 Alpha  occ. eigenvalues --   -1.71970  -1.10468  -1.09980  -0.77294  -0.76617
 Alpha  occ. eigenvalues --   -0.74670  -0.74670  -0.74142  -0.74142  -0.27084
 Alpha  occ. eigenvalues --   -0.27084
 Alpha virt. eigenvalues --   -0.14334  -0.14334   0.36624   0.48464   0.65075
 Alpha virt. eigenvalues --    0.68722   0.68722   0.70515   0.70515   0.75839
 Alpha virt. eigenvalues --    0.77904   0.80451   0.80451   0.85548   0.85548

 Mulliken charges:
               1
     1  O   -0.019958
     2  O    0.019958
     3  O    0.019958
     4  O   -0.019958
 Sum of Mulliken charges =  -0.00000

 Dipole moment (field-independent basis, Debye):
    X=             -0.0000    Y=              0.0000    Z=              0.0000  Tot=              0.0000
 Quadrupole moment (field-independent basis, Debye-Ang):
   XX=            -20.1124   YY=            -20.1124   ZZ=            -21.9993
   XY=              0.0000   XZ=              0.0000   YZ=              0.0000

 P4SDQ=-302.9611086\CCSD=-300.0286573\CCSD(T)=-300.2781654\RMSD=2.070e-
 Normal termination of Gaussian 16 at Fri Feb  9 20:00:19 2024.
