 Gaussian 16, Revision A.03,
 Gaussian 16:  ES64L-G16RevA.03 25-Dec-2016

 ------------------
 #p CCSD(T)/cc-pVTZ
 ------------------

 ---------
 O2_O2_239
 ---------
 Symbolic Z-matrix:
 Charge =  0 Multiplicity = 1

                         Standard orientation:
 ---------------------------------------------------------------------
 Center     Atomic      Atomic             Coordinates (Angstroms)
 Number     Number       Type             X           Y           Z
 ---------------------------------------------------------------------
      1          8           0       -0.870000   -2.370000    0.000000
      2          8           0        0.290000   -2.370000    0.000000
      3          8           0        0.290000    1.790000    0.000000
      4          8           0        0.290000    2.950000    0.000000
 ---------------------------------------------------------------------

 SCF Done:  E(RHF) =  -299.188910896     A.U. after   17 cycles
 E2 =    -0.9190539368D+00 EUMP2 =    -0.30010796483250D+03
 CCSD(T)
 CCSD(T)= -0.30015096540D+03

 The electronic state is 1-A'.
 Alpha  occ. eigenvalues --  -20.72925 -20.72871 -20.72809 -20.72754  -1.69856
 Alpha  occ. eigenvalues --   -1.69807  -1.08547  -1.08488  -0.78632  -0.78584
 Alpha  occ. eigenvalues --   -0.75174  -0.75099  -0.67384  -0.67334  -0.44801
 Alpha  occ. eigenvalues --   -0.44750
 Alpha virt. eigenvalues --    0.04972   0.05028   0.42857   0.43497   0.68534
 Alpha virt. eigenvalues --    0.70341   0.70617   0.70703   0.72560   0.74184
 Alpha virt. eigenvalues --    0.79781   0.80241   0.82275   0.82633   0.84742

 Mulliken charges:
               1
     1  O   -0.000297
     2  O    0.000389
     3  O    0.000833
     4  O   -0.000924
 Sum of Mulliken charges =  -0.00000

 Dipole moment (field-independent basis, Debye):
    X=              0.0016    Y=             -0.0090    Z=              0.0000  Tot=              0.0091
 Quadrupole moment (field-independent basis, Debye-Ang):
   XX=            -19.5538   YY=            -21.2206   ZZ=            -19.7593
   XY=             -0.0075   XZ=              0.0000   YZ=              0.0000

 DQ=-300.1134921\CCSD=-300.1100961\CCSD(T)=-300.1509654\RMSD=9.926e-09\
 Normal termination of Gaussian 16 at Fri Feb  9 20:51:49 2024.
