 Gaussian 16, Revision A.03,
 Gaussian 16:  ES64L-G16RevA.03 25-Dec-2016

 ------------------
 #p CCSD(T)/cc-pVTZ
 ------------------

 ---------
 O2_O2_219
 ---------
 Symbolic Z-matrix:
 Charge =  0 Multiplicity = 1

                         Standard orientation:
 ---------------------------------------------------------------------
 Center     Atomic      Atomic             Coordinates (Angstroms)
 Number     Number       Type             X           Y           Z
 ---------------------------------------------------------------------
      1          8           0        0.000000    0.000000    3.120000
      2          8           0        0.000000    0.000000    1.960000
      3          8           0        0.000000    0.000000   -1.960000
      4          8           0        0.000000    0.000000   -3.120000
 ---------------------------------------------------------------------

 SCF Done:  E(RHF) =  -298.798042713     A.U. after   10 cycles
 E2 =    -0.2482845875D+01 EUMP2 =    -0.30128088858730D+03
 CCSD(T)
 CCSD(T)= -0.30029777382D+03

 The electronic state is 1-SGG.
 Alpha  occ. eigenvalues --  -20.76893 -20.76892 -20.75555 -20.75555  -1.71830
 Alpha  occ. eigenvalues --   -1.71817  -1.10188  -1.10010  -0.76917  -0.76742
 Alpha  occ. eigenvalues --   -0.74438  -0.74438  -0.74118  -0.74118  -0.26038
 Alpha  occ. eigenvalues --   -0.26038
 Alpha virt. eigenvalues --   -0.15213  -0.15213   0.37937   0.46483   0.67738
 Alpha virt. eigenvalues --    0.69591   0.69591   0.70028   0.70028   0.74790
 Alpha virt. eigenvalues --    0.77213   0.82103   0.82103   0.83460   0.83460

 Mulliken charges:
               1
     1  O   -0.015429
     2  O    0.015429
     3  O    0.015429
     4  O   -0.015429
 Sum of Mulliken charges =  -0.00000

 Dipole moment (field-independent basis, Debye):
    X=             -0.0000    Y=              0.0000    Z=              0.0000  Tot=              0.0000
 Quadrupole moment (field-independent basis, Debye-Ang):
   XX=            -20.0834   YY=            -20.0834   ZZ=            -22.0288
   XY=              0.0000   XZ=              0.0000   YZ=              0.0000

 P4SDQ=-307.2594208\CCSD=-300.0258381\CCSD(T)=-300.2977738\RMSD=1.810e-
 Normal termination of Gaussian 16 at Fri Feb  9 20:37:06 2024.
