 Gaussian 16, Revision A.03,
 Gaussian 16:  ES64L-G16RevA.03 25-Dec-2016

 ------------------
 #p CCSD(T)/cc-pVTZ
 ------------------

 -------
 O2_O2_3
 -------
 Symbolic Z-matrix:
 Charge =  0 Multiplicity = 1

                         Standard orientation:
 ---------------------------------------------------------------------
 Center     Atomic      Atomic             Coordinates (Angstroms)
 Number     Number       Type             X           Y           Z
 ---------------------------------------------------------------------
      1          8           0        0.000000    0.000000    1.680000
      2          8           0        0.000000    0.000000    0.520000
      3          8           0        0.000000    0.000000   -0.520000
      4          8           0        0.000000    0.000000   -1.680000
 ---------------------------------------------------------------------

 SCF Done:  E(RHF) =  -298.669066784     A.U. after   11 cycles
 E2 =    -0.9287512543D+00 EUMP2 =    -0.29959781803819D+03
 CCSD(T)
 CCSD(T)= -0.29963661774D+03

 Unable to determine electronic state:  an orbital has unidentified symmetry.
 Alpha  occ. eigenvalues --  -20.84704 -20.84529 -20.64282 -20.64281  -1.98442
 Alpha  occ. eigenvalues --   -1.67238  -1.52195  -1.03056  -0.97367  -0.91719
 Alpha  occ. eigenvalues --   -0.83754  -0.74000  -0.66765  -0.52608  -0.43603
 Alpha  occ. eigenvalues --   -0.34306
 Alpha virt. eigenvalues --    0.08420   0.20165   0.44265   0.52013   0.55863
 Alpha virt. eigenvalues --    0.61606   0.61639   0.67273   0.75516   0.75685
 Alpha virt. eigenvalues --    0.84967   0.85237   0.85387   0.99332   1.00969

 Mulliken charges:
               1
     1  O   -0.293386
     2  O    0.293386
     3  O    0.293386
     4  O   -0.293386
 Sum of Mulliken charges =  -0.00000

 Dipole moment (field-independent basis, Debye):
    X=             -0.0000    Y=              0.0000    Z=              0.0000  Tot=              0.0000
 Quadrupole moment (field-independent basis, Debye-Ang):
   XX=            -18.9523   YY=            -20.1092   ZZ=            -28.4732
   XY=              0.0000   XZ=              0.0000   YZ=              0.0000

 08\CCSD=-299.5924709\CCSD(T)=-299.6366177\RMSD=5.145e-09\PG=D*H [C*(O1
 Normal termination of Gaussian 16 at Fri Feb  9 17:45:02 2024.
