 Gaussian 16, Revision A.03,
 Gaussian 16:  ES64L-G16RevA.03 25-Dec-2016

 ------------------
 #p CCSD(T)/cc-pVTZ
 ------------------

 ---------
 O2_O2_166
 ---------
 Symbolic Z-matrix:
 Charge =  0 Multiplicity = 1

                         Standard orientation:
 ---------------------------------------------------------------------
 Center     Atomic      Atomic             Coordinates (Angstroms)
 Number     Number       Type             X           Y           Z
 ---------------------------------------------------------------------
      1          8           0        0.615183   -2.505183    0.000000
      2          8           0       -0.205061   -1.684939    0.000000
      3          8           0       -0.205061    1.515061   -0.000000
      4          8           0       -0.205061    2.675061   -0.000000
 ---------------------------------------------------------------------

 SCF Done:  E(RHF) =  -299.188736012     A.U. after   19 cycles
 E2 =    -0.9195878597D+00 EUMP2 =    -0.30010832387118D+03
 CCSD(T)
 CCSD(T)= -0.30015123960D+03

 The electronic state is 1-A'.
 Alpha  occ. eigenvalues --  -20.72913 -20.72796 -20.72788 -20.72670  -1.69847
 Alpha  occ. eigenvalues --   -1.69734  -1.08641  -1.08299  -0.78638  -0.78510
 Alpha  occ. eigenvalues --   -0.75409  -0.74741  -0.67372  -0.67263  -0.44779
 Alpha  occ. eigenvalues --   -0.44672
 Alpha virt. eigenvalues --    0.04987   0.05093   0.39141   0.47289   0.65458
 Alpha virt. eigenvalues --    0.69362   0.69475   0.71395   0.72016   0.76177
 Alpha virt. eigenvalues --    0.79149   0.80148   0.80900   0.86094   0.86854

 Mulliken charges:
               1
     1  O   -0.000180
     2  O    0.001043
     3  O    0.000055
     4  O   -0.000918
 Sum of Mulliken charges =  -0.00000

 Dipole moment (field-independent basis, Debye):
    X=             -0.0020    Y=             -0.0234    Z=             -0.0000  Tot=              0.0235
 Quadrupole moment (field-independent basis, Debye-Ang):
   XX=            -19.6586   YY=            -21.1708   ZZ=            -19.7606
   XY=             -0.0867   XZ=             -0.0000   YZ=              0.0000

 4DQ=-300.101011\MP4SDQ=-300.1137349\CCSD=-300.1103052\CCSD(T)=-300.151
 Normal termination of Gaussian 16 at Fri Feb  9 19:56:45 2024.
