 Gaussian 16, Revision A.03,
 Gaussian 16:  ES64L-G16RevA.03 25-Dec-2016

 ------------------
 #p CCSD(T)/cc-pVTZ
 ------------------

 ---------
 O2_O2_190
 ---------
 Symbolic Z-matrix:
 Charge =  0 Multiplicity = 1

                         Standard orientation:
 ---------------------------------------------------------------------
 Center     Atomic      Atomic             Coordinates (Angstroms)
 Number     Number       Type             X           Y           Z
 ---------------------------------------------------------------------
      1          8           0        0.615183   -2.665183    0.000000
      2          8           0       -0.205061   -1.844939    0.000000
      3          8           0       -0.205061    1.675061   -0.000000
      4          8           0       -0.205061    2.835061   -0.000000
 ---------------------------------------------------------------------

 SCF Done:  E(RHF) =  -299.188928440     A.U. after   16 cycles
 E2 =    -0.9193303547D+00 EUMP2 =    -0.30010825879439D+03
 CCSD(T)
 CCSD(T)= -0.30015120258D+03

 The electronic state is 1-A'.
 Alpha  occ. eigenvalues --  -20.72935 -20.72832 -20.72818 -20.72715  -1.69863
 Alpha  occ. eigenvalues --   -1.69772  -1.08582  -1.08411  -0.78639  -0.78549
 Alpha  occ. eigenvalues --   -0.75281  -0.74941  -0.67389  -0.67300  -0.44798
 Alpha  occ. eigenvalues --   -0.44713
 Alpha virt. eigenvalues --    0.04972   0.05060   0.38913   0.46790   0.66216
 Alpha virt. eigenvalues --    0.69943   0.70138   0.71022   0.71542   0.75673
 Alpha virt. eigenvalues --    0.78676   0.80460   0.81649   0.85302   0.85592

 Mulliken charges:
               1
     1  O    0.000065
     2  O    0.000568
     3  O   -0.000047
     4  O   -0.000586
 Sum of Mulliken charges =  -0.00000

 Dipole moment (field-independent basis, Debye):
    X=             -0.0010    Y=             -0.0196    Z=             -0.0000  Tot=              0.0196
 Quadrupole moment (field-independent basis, Debye-Ang):
   XX=            -19.6572   YY=            -21.1380   ZZ=            -19.7601
   XY=             -0.0920   XZ=             -0.0000   YZ=              0.0000

 DQ=-300.1010122\MP4SDQ=-300.1137193\CCSD=-300.1103025\CCSD(T)=-300.151
 Normal termination of Gaussian 16 at Fri Feb  9 20:15:39 2024.
