 Gaussian 16, Revision A.03,
 Gaussian 16:  ES64L-G16RevA.03 25-Dec-2016

 ------------------
 #p CCSD(T)/cc-pVTZ
 ------------------

 ---------
 O2_O2_229
 ---------
 Symbolic Z-matrix:
 Charge =  0 Multiplicity = 1

                         Standard orientation:
 ---------------------------------------------------------------------
 Center     Atomic      Atomic             Coordinates (Angstroms)
 Number     Number       Type             X           Y           Z
 ---------------------------------------------------------------------
      1          8           0        0.615183   -2.925183   -0.000000
      2          8           0       -0.205061   -2.104939   -0.000000
      3          8           0       -0.205061    1.935061    0.000000
      4          8           0       -0.205061    3.095061    0.000000
 ---------------------------------------------------------------------

 SCF Done:  E(RHF) =  -299.188928198     A.U. after   17 cycles
 E2 =    -0.9190874979D+00 EUMP2 =    -0.30010801569562D+03
 CCSD(T)
 CCSD(T)= -0.30015099860D+03

 The electronic state is 1-A'.
 Alpha  occ. eigenvalues --  -20.72932 -20.72877 -20.72816 -20.72761  -1.69863
 Alpha  occ. eigenvalues --   -1.69814  -1.08554  -1.08489  -0.78638  -0.78591
 Alpha  occ. eigenvalues --   -0.75197  -0.75083  -0.67390  -0.67342  -0.44804
 Alpha  occ. eigenvalues --   -0.44757
 Alpha virt. eigenvalues --    0.04970   0.05020   0.40596   0.45540   0.68920
 Alpha virt. eigenvalues --    0.70348   0.70564   0.70682   0.71273   0.74454
 Alpha virt. eigenvalues --    0.78699   0.80684   0.82185   0.84791   0.84836

 Mulliken charges:
               1
     1  O   -0.000239
     2  O    0.000437
     3  O    0.000531
     4  O   -0.000728
 Sum of Mulliken charges =  -0.00000

 Dipole moment (field-independent basis, Debye):
    X=             -0.0008    Y=             -0.0096    Z=              0.0000  Tot=              0.0096
 Quadrupole moment (field-independent basis, Debye-Ang):
   XX=            -19.6567   YY=            -21.1223   ZZ=            -19.7595
   XY=             -0.0959   XZ=              0.0000   YZ=             -0.0000

 P4DQ=-300.1008394\MP4SDQ=-300.1135302\CCSD=-300.1101267\CCSD(T)=-300.1
 Normal termination of Gaussian 16 at Fri Feb  9 20:44:30 2024.
