 Gaussian 16, Revision A.03,
 Gaussian 16:  ES64L-G16RevA.03 25-Dec-2016

 ------------------
 #p CCSD(T)/cc-pVTZ
 ------------------

 --------
 O2_O2_24
 --------
 Symbolic Z-matrix:
 Charge =  0 Multiplicity = 1

                         Standard orientation:
 ---------------------------------------------------------------------
 Center     Atomic      Atomic             Coordinates (Angstroms)
 Number     Number       Type             X           Y           Z
 ---------------------------------------------------------------------
      1          8           0        0.000000    0.000000    1.820000
      2          8           0        0.000000    0.000000    0.660000
      3          8           0        0.000000    0.000000   -0.660000
      4          8           0        0.000000    0.000000   -1.820000
 ---------------------------------------------------------------------

 SCF Done:  E(RHF) =  -298.790765428     A.U. after   11 cycles
 E2 =    -0.1274922213D+01 EUMP2 =    -0.30006568764111D+03
 CCSD(T)
 CCSD(T)= -0.29996796351D+03

 The electronic state is 1-SGG.
 Alpha  occ. eigenvalues --  -20.83833 -20.83793 -20.68445 -20.68444  -1.78742
 Alpha  occ. eigenvalues --   -1.70745  -1.38330  -0.99261  -0.86027  -0.83509
 Alpha  occ. eigenvalues --   -0.83509  -0.70407  -0.70407  -0.48490  -0.38830
 Alpha  occ. eigenvalues --   -0.38830
 Alpha virt. eigenvalues --   -0.01585  -0.01585   0.45522   0.50607   0.63860
 Alpha virt. eigenvalues --    0.65826   0.65826   0.69510   0.74248   0.74248
 Alpha virt. eigenvalues --    0.83134   0.84287   0.84287   0.94481   1.00044

 Mulliken charges:
               1
     1  O   -0.184299
     2  O    0.184299
     3  O    0.184299
     4  O   -0.184299
 Sum of Mulliken charges =   0.00000

 Dipole moment (field-independent basis, Debye):
    X=             -0.0000    Y=             -0.0000    Z=             -0.0000  Tot=              0.0000
 Quadrupole moment (field-independent basis, Debye-Ang):
   XX=            -19.8628   YY=            -19.8628   ZZ=            -26.0710
   XY=              0.0000   XZ=              0.0000   YZ=              0.0000

 4SDQ=-299.9032545\CCSD=-299.8704923\CCSD(T)=-299.9679635\RMSD=7.616e-0
 Normal termination of Gaussian 16 at Fri Feb  9 18:04:02 2024.
