 Gaussian 16, Revision A.03,
 Gaussian 16:  ES64L-G16RevA.03 25-Dec-2016

 ------------------
 #p CCSD(T)/cc-pVTZ
 ------------------

 --------
 O2_O2_61
 --------
 Symbolic Z-matrix:
 Charge =  0 Multiplicity = 1

                         Standard orientation:
 ---------------------------------------------------------------------
 Center     Atomic      Atomic             Coordinates (Angstroms)
 Number     Number       Type             X           Y           Z
 ---------------------------------------------------------------------
      1          8           0        0.615183   -1.805183    0.000000
      2          8           0       -0.205061   -0.984939    0.000000
      3          8           0       -0.205061    0.815061    0.000000
      4          8           0       -0.205061    1.975061    0.000000
 ---------------------------------------------------------------------

 SCF Done:  E(RHF) =  -299.136104552     A.U. after   17 cycles
 E2 =    -0.9343712905D+00 EUMP2 =    -0.30007047584290D+03
 CCSD(T)
 CCSD(T)= -0.30011109726D+03

 The electronic state is 1-A'.
 Alpha  occ. eigenvalues --  -20.72979 -20.72862 -20.72783 -20.71009  -1.70826
 Alpha  occ. eigenvalues --   -1.69073  -1.15363  -1.04516  -0.80851  -0.79328
 Alpha  occ. eigenvalues --   -0.78280  -0.70752  -0.67887  -0.63584  -0.45259
 Alpha  occ. eigenvalues --   -0.44107
 Alpha virt. eigenvalues --    0.04582   0.06501   0.46045   0.49548   0.65862
 Alpha virt. eigenvalues --    0.67124   0.73477   0.73663   0.73993   0.77665
 Alpha virt. eigenvalues --    0.78732   0.81555   0.81714   0.86169   0.95690

 Mulliken charges:
               1
     1  O   -0.032110
     2  O    0.021378
     3  O    0.032025
     4  O   -0.021292
 Sum of Mulliken charges =  -0.00000

 Dipole moment (field-independent basis, Debye):
    X=             -0.1410    Y=              0.2429    Z=             -0.0000  Tot=              0.2809
 Quadrupole moment (field-independent basis, Debye-Ang):
   XX=            -20.5644   YY=            -21.0213   ZZ=            -19.7303
   XY=              0.8869   XZ=              0.0000   YZ=              0.0000

 4DQ=-300.0580919\MP4SDQ=-300.0718242\CCSD=-300.067824\CCSD(T)=-300.111
 Normal termination of Gaussian 16 at Fri Feb  9 18:35:14 2024.
