 Gaussian 16, Revision A.03,
 Gaussian 16:  ES64L-G16RevA.03 25-Dec-2016

 ------------------
 #p CCSD(T)/cc-pVTZ
 ------------------

 ---------
 O2_O2_289
 ---------
 Symbolic Z-matrix:
 Charge =  0 Multiplicity = 1

                         Standard orientation:
 ---------------------------------------------------------------------
 Center     Atomic      Atomic             Coordinates (Angstroms)
 Number     Number       Type             X           Y           Z
 ---------------------------------------------------------------------
      1          8           0        0.615183   -3.325183    0.000000
      2          8           0       -0.205061   -2.504939    0.000000
      3          8           0       -0.205061    2.335061   -0.000000
      4          8           0       -0.205061    3.495061   -0.000000
 ---------------------------------------------------------------------

 SCF Done:  E(RHF) =  -299.188871157     A.U. after   16 cycles
 E2 =    -0.9189600223D+00 EUMP2 =    -0.30010783117963D+03
 CCSD(T)
 CCSD(T)= -0.30015084311D+03

 The electronic state is 1-A'.
 Alpha  occ. eigenvalues --  -20.72932 -20.72911 -20.72816 -20.72795  -1.69866
 Alpha  occ. eigenvalues --   -1.69846  -1.08553  -1.08531  -0.78642  -0.78623
 Alpha  occ. eigenvalues --   -0.75175  -0.75149  -0.67394  -0.67375  -0.44810
 Alpha  occ. eigenvalues --   -0.44791
 Alpha virt. eigenvalues --    0.04965   0.04986   0.42769   0.43837   0.70386
 Alpha virt. eigenvalues --    0.70428   0.70577   0.70593   0.72235   0.72915
 Alpha virt. eigenvalues --    0.79641   0.80243   0.82237   0.82314   0.84729

 Mulliken charges:
               1
     1  O   -0.000289
     2  O    0.000297
     3  O    0.000490
     4  O   -0.000497
 Sum of Mulliken charges =  -0.00000

 Dipole moment (field-independent basis, Debye):
    X=             -0.0008    Y=             -0.0028    Z=             -0.0000  Tot=              0.0029
 Quadrupole moment (field-independent basis, Debye-Ang):
   XX=            -19.6560   YY=            -21.1116   ZZ=            -19.7590
   XY=             -0.0984   XZ=             -0.0000   YZ=              0.0000

 P4DQ=-300.1006952\MP4SDQ=-300.1133796\CCSD=-300.1099838\CCSD(T)=-300.1
 Normal termination of Gaussian 16 at Fri Feb  9 21:29:00 2024.
