 Gaussian 16, Revision A.03,
 Gaussian 16:  ES64L-G16RevA.03 25-Dec-2016

 ------------------
 #p CCSD(T)/cc-pVTZ
 ------------------

 ---------
 O2_O2_223
 ---------
 Symbolic Z-matrix:
 Charge =  0 Multiplicity = 1

                         Standard orientation:
 ---------------------------------------------------------------------
 Center     Atomic      Atomic             Coordinates (Angstroms)
 Number     Number       Type             X           Y           Z
 ---------------------------------------------------------------------
      1          8           0        0.615183   -2.885183   -0.000000
      2          8           0       -0.205061   -2.064939   -0.000000
      3          8           0       -0.205061    1.895061    0.000000
      4          8           0       -0.205061    3.055061    0.000000
 ---------------------------------------------------------------------

 SCF Done:  E(RHF) =  -299.188936575     A.U. after   17 cycles
 E2 =    -0.9191141055D+00 EUMP2 =    -0.30010805068005D+03
 CCSD(T)
 CCSD(T)= -0.30015102829D+03

 The electronic state is 1-A'.
 Alpha  occ. eigenvalues --  -20.72934 -20.72872 -20.72817 -20.72755  -1.69864
 Alpha  occ. eigenvalues --   -1.69809  -1.08556  -1.08481  -0.78638  -0.78586
 Alpha  occ. eigenvalues --   -0.75204  -0.75069  -0.67391  -0.67337  -0.44804
 Alpha  occ. eigenvalues --   -0.44751
 Alpha virt. eigenvalues --    0.04970   0.05025   0.40278   0.45755   0.68510
 Alpha virt. eigenvalues --    0.70315   0.70536   0.70714   0.71264   0.74665
 Alpha virt. eigenvalues --    0.78634   0.80679   0.82152   0.84852   0.84883

 Mulliken charges:
               1
     1  O   -0.000196
     2  O    0.000445
     3  O    0.000475
     4  O   -0.000724
 Sum of Mulliken charges =  -0.00000

 Dipole moment (field-independent basis, Debye):
    X=             -0.0008    Y=             -0.0109    Z=              0.0000  Tot=              0.0110
 Quadrupole moment (field-independent basis, Debye-Ang):
   XX=            -19.6568   YY=            -21.1234   ZZ=            -19.7596
   XY=             -0.0955   XZ=              0.0000   YZ=             -0.0000

 P4DQ=-300.1008662\MP4SDQ=-300.1135587\CCSD=-300.1101536\CCSD(T)=-300.1
 Normal termination of Gaussian 16 at Fri Feb  9 20:40:05 2024.
