 Gaussian 16, Revision A.03,
 Gaussian 16:  ES64L-G16RevA.03 25-Dec-2016

 ------------------
 #p CCSD(T)/cc-pVTZ
 ------------------

 ---------
 O2_O2_107
 ---------
 Symbolic Z-matrix:
 Charge =  0 Multiplicity = 1

                         Standard orientation:
 ---------------------------------------------------------------------
 Center     Atomic      Atomic             Coordinates (Angstroms)
 Number     Number       Type             X           Y           Z
 ---------------------------------------------------------------------
      1          8           0       -0.870000   -1.490000    0.000000
      2          8           0        0.290000   -1.490000    0.000000
      3          8           0        0.290000    0.910000    0.000000
      4          8           0        0.290000    2.070000    0.000000
 ---------------------------------------------------------------------

 SCF Done:  E(RHF) =  -299.182404989     A.U. after   29 cycles
 E2 =    -0.9220389730D+00 EUMP2 =    -0.30010444396244D+03
 CCSD(T)
 CCSD(T)= -0.30014711098D+03

 The electronic state is 1-A'.
 Alpha  occ. eigenvalues --  -20.72905 -20.72655 -20.72427 -20.72308  -1.69981
 Alpha  occ. eigenvalues --   -1.69391  -1.09089  -1.07895  -0.79844  -0.78286
 Alpha  occ. eigenvalues --   -0.75480  -0.73227  -0.67379  -0.67035  -0.44777
 Alpha  occ. eigenvalues --   -0.44422
 Alpha virt. eigenvalues --    0.04973   0.05359   0.42789   0.47002   0.66218
 Alpha virt. eigenvalues --    0.67679   0.70652   0.72620   0.73240   0.75356
 Alpha virt. eigenvalues --    0.77791   0.79574   0.83190   0.84500   0.87559

 Mulliken charges:
               1
     1  O   -0.004121
     2  O    0.006928
     3  O    0.011437
     4  O   -0.014245
 Sum of Mulliken charges =  -0.00000

 Dipole moment (field-independent basis, Debye):
    X=              0.0394    Y=             -0.0518    Z=              0.0000  Tot=              0.0650
 Quadrupole moment (field-independent basis, Debye-Ang):
   XX=            -19.5780   YY=            -21.5060   ZZ=            -19.7625
   XY=             -0.0542   XZ=              0.0000   YZ=              0.0000

 =-300.1093401\CCSD=-300.1058609\CCSD(T)=-300.147111\RMSD=3.229e-09\PG=
 Normal termination of Gaussian 16 at Fri Feb  9 19:13:03 2024.
