 Gaussian 16, Revision A.03,
 Gaussian 16:  ES64L-G16RevA.03 25-Dec-2016

 ------------------
 #p CCSD(T)/cc-pVTZ
 ------------------

 --------
 O2_O2_85
 --------
 Symbolic Z-matrix:
 Charge =  0 Multiplicity = 1

                         Standard orientation:
 ---------------------------------------------------------------------
 Center     Atomic      Atomic             Coordinates (Angstroms)
 Number     Number       Type             X           Y           Z
 ---------------------------------------------------------------------
      1          8           0        0.615183   -1.965183    0.000000
      2          8           0       -0.205061   -1.144939    0.000000
      3          8           0       -0.205061    0.975061   -0.000000
      4          8           0       -0.205061    2.135061   -0.000000
 ---------------------------------------------------------------------

 SCF Done:  E(RHF) =  -299.174209562     A.U. after   18 cycles
 E2 =    -0.9252393139D+00 EUMP2 =    -0.30009944887607D+03
 CCSD(T)
 CCSD(T)= -0.30014105815D+03

 The electronic state is 1-A'.
 Alpha  occ. eigenvalues --  -20.73008 -20.72856 -20.72604 -20.72161  -1.70211
 Alpha  occ. eigenvalues --   -1.69457  -1.11346  -1.06497  -0.78906  -0.78412
 Alpha  occ. eigenvalues --   -0.78341  -0.72273  -0.67616  -0.66306  -0.45030
 Alpha  occ. eigenvalues --   -0.44452
 Alpha virt. eigenvalues --    0.04759   0.05707   0.44660   0.48968   0.65758
 Alpha virt. eigenvalues --    0.66655   0.72739   0.73050   0.73878   0.77633
 Alpha virt. eigenvalues --    0.80041   0.80154   0.81267   0.86742   0.93754

 Mulliken charges:
               1
     1  O   -0.009080
     2  O    0.005787
     3  O    0.019427
     4  O   -0.016134
 Sum of Mulliken charges =  -0.00000

 Dipole moment (field-independent basis, Debye):
    X=             -0.0580    Y=              0.1010    Z=             -0.0000  Tot=              0.1164
 Quadrupole moment (field-independent basis, Debye-Ang):
   XX=            -20.5004   YY=            -20.5629   ZZ=            -19.7581
   XY=              0.7623   XZ=             -0.0000   YZ=              0.0000

 Q=-300.0903332\MP4SDQ=-300.1033221\CCSD=-300.099551\CCSD(T)=-300.14105
 Normal termination of Gaussian 16 at Fri Feb  9 18:54:03 2024.
