 Gaussian 16, Revision A.03,
 Gaussian 16:  ES64L-G16RevA.03 25-Dec-2016

 ------------------
 #p CCSD(T)/cc-pVTZ
 ------------------

 ---------
 O2_O2_262
 ---------
 Symbolic Z-matrix:
 Charge =  0 Multiplicity = 1

                         Standard orientation:
 ---------------------------------------------------------------------
 Center     Atomic      Atomic             Coordinates (Angstroms)
 Number     Number       Type             X           Y           Z
 ---------------------------------------------------------------------
      1          8           0        0.615183   -3.145183    0.000000
      2          8           0       -0.205061   -2.324939    0.000000
      3          8           0       -0.205061    2.155061    0.000000
      4          8           0       -0.205061    3.315061    0.000000
 ---------------------------------------------------------------------

 SCF Done:  E(RHF) =  -299.188885932     A.U. after   17 cycles
 E2 =    -0.9189940832D+00 EUMP2 =    -0.30010788001517D+03
 CCSD(T)
 CCSD(T)= -0.30015088319D+03

 The electronic state is 1-A'.
 Alpha  occ. eigenvalues --  -20.72929 -20.72899 -20.72813 -20.72783  -1.69863
 Alpha  occ. eigenvalues --   -1.69835  -1.08550  -1.08517  -0.78639  -0.78612
 Alpha  occ. eigenvalues --   -0.75177  -0.75130  -0.67391  -0.67363  -0.44807
 Alpha  occ. eigenvalues --   -0.44779
 Alpha virt. eigenvalues --    0.04969   0.04998   0.42077   0.44444   0.70209
 Alpha virt. eigenvalues --    0.70426   0.70593   0.70603   0.71759   0.73415
 Alpha virt. eigenvalues --    0.79256   0.80514   0.82241   0.82779   0.84742

 Mulliken charges:
               1
     1  O   -0.000327
     2  O    0.000368
     3  O    0.000584
     4  O   -0.000624
 Sum of Mulliken charges =  -0.00000

 Dipole moment (field-independent basis, Debye):
    X=             -0.0008    Y=             -0.0045    Z=             -0.0000  Tot=              0.0046
 Quadrupole moment (field-independent basis, Debye-Ang):
   XX=            -19.6564   YY=            -21.1170   ZZ=            -19.7592
   XY=             -0.0974   XZ=             -0.0000   YZ=              0.0000

 DQ=-300.1007332\MP4SDQ=-300.113419\CCSD=-300.1100209\CCSD(T)=-300.1508
 Normal termination of Gaussian 16 at Fri Feb  9 21:09:49 2024.
