 Gaussian 16, Revision A.03,
 Gaussian 16:  ES64L-G16RevA.03 25-Dec-2016

 ------------------
 #p CCSD(T)/cc-pVTZ
 ------------------

 -------
 O2_O2_1
 -------
 Symbolic Z-matrix:
 Charge =  0 Multiplicity = 1

                         Standard orientation:
 ---------------------------------------------------------------------
 Center     Atomic      Atomic             Coordinates (Angstroms)
 Number     Number       Type             X           Y           Z
 ---------------------------------------------------------------------
      1          8           0        0.615183   -1.405183    0.000000
      2          8           0       -0.205061   -0.584939    0.000000
      3          8           0       -0.205061    0.415061   -0.000000
      4          8           0       -0.205061    1.575061   -0.000000
 ---------------------------------------------------------------------

 SCF Done:  E(RHF) =  -298.790951288     A.U. after   15 cycles
 E2 =    -0.9379536698D+00 EUMP2 =    -0.29972890495757D+03
 CCSD(T)
 CCSD(T)= -0.29976100391D+03

 The electronic state is 1-A'.
 Alpha  occ. eigenvalues --  -20.92891 -20.85988 -20.65420 -20.61253  -2.08313
 Alpha  occ. eigenvalues --   -1.68578  -1.53570  -1.07589  -1.03009  -0.92585
 Alpha  occ. eigenvalues --   -0.86416  -0.71917  -0.66966  -0.52098  -0.43910
 Alpha  occ. eigenvalues --   -0.42144
 Alpha virt. eigenvalues --    0.07487   0.29045   0.46919   0.52432   0.60059
 Alpha virt. eigenvalues --    0.60284   0.62351   0.68532   0.76262   0.79226
 Alpha virt. eigenvalues --    0.80674   0.83989   0.84176   0.89284   0.92023

 Mulliken charges:
               1
     1  O   -0.386616
     2  O    0.365943
     3  O    0.323187
     4  O   -0.302514
 Sum of Mulliken charges =  -0.00000

 Dipole moment (field-independent basis, Debye):
    X=             -1.1799    Y=              0.1364    Z=             -0.0000  Tot=              1.1878
 Quadrupole moment (field-independent basis, Debye-Ang):
   XX=            -21.0988   YY=            -27.1638   ZZ=            -18.9442
   XY=              1.8819   XZ=             -0.0000   YZ=              0.0000

 Q=-299.7040232\MP4SDQ=-299.7198609\CCSD=-299.7170564\CCSD(T)=-299.7610
 Normal termination of Gaussian 16 at Fri Feb  9 17:43:42 2024.
