 Gaussian 16, Revision A.03,
 Gaussian 16:  ES64L-G16RevA.03 25-Dec-2016

 ------------------
 #p CCSD(T)/cc-pVTZ
 ------------------

 --------
 O2_O2_37
 --------
 Symbolic Z-matrix:
 Charge =  0 Multiplicity = 1

                         Standard orientation:
 ---------------------------------------------------------------------
 Center     Atomic      Atomic             Coordinates (Angstroms)
 Number     Number       Type             X           Y           Z
 ---------------------------------------------------------------------
      1          8           0        0.615183   -1.645183    0.000000
      2          8           0       -0.205061   -0.824939    0.000000
      3          8           0       -0.205061    0.655061   -0.000000
      4          8           0       -0.205061    1.815061   -0.000000
 ---------------------------------------------------------------------

 SCF Done:  E(RHF) =  -299.024574900     A.U. after   18 cycles
 E2 =    -0.9614610862D+00 EUMP2 =    -0.29998603598619D+03
 CCSD(T)
 CCSD(T)= -0.30003727451D+03

 The electronic state is 1-A'.
 Alpha  occ. eigenvalues --  -20.75569 -20.75280 -20.73349 -20.67037  -1.73879
 Alpha  occ. eigenvalues --   -1.68684  -1.25757  -1.01430  -0.83608  -0.82040
 Alpha  occ. eigenvalues --   -0.79584  -0.70656  -0.69013  -0.55411  -0.46582
 Alpha  occ. eigenvalues --   -0.42984
 Alpha virt. eigenvalues --    0.03309   0.08388   0.47042   0.50581   0.65762
 Alpha virt. eigenvalues --    0.66972   0.69979   0.73499   0.74476   0.75911
 Alpha virt. eigenvalues --    0.80039   0.81102   0.84119   0.86096   0.95477

 Mulliken charges:
               1
     1  O   -0.127890
     2  O    0.083610
     3  O    0.084623
     4  O   -0.040343
 Sum of Mulliken charges =  -0.00000

 Dipole moment (field-independent basis, Debye):
    X=             -0.4124    Y=              0.8117    Z=             -0.0000  Tot=              0.9105
 Quadrupole moment (field-independent basis, Debye-Ang):
   XX=            -20.8443   YY=            -22.2681   ZZ=            -19.6291
   XY=              1.2742   XZ=              0.0000   YZ=              0.0000

 DQ=-299.9622597\MP4SDQ=-299.9812283\CCSD=-299.9804827\CCSD(T)=-300.037
 Normal termination of Gaussian 16 at Fri Feb  9 18:15:26 2024.
