 Gaussian 16, Revision A.03,
 Gaussian 16:  ES64L-G16RevA.03 25-Dec-2016

 ------------------
 #p CCSD(T)/cc-pVTZ
 ------------------

 ---------
 O2_O2_265
 ---------
 Symbolic Z-matrix:
 Charge =  0 Multiplicity = 1

                         Standard orientation:
 ---------------------------------------------------------------------
 Center     Atomic      Atomic             Coordinates (Angstroms)
 Number     Number       Type             X           Y           Z
 ---------------------------------------------------------------------
      1          8           0        0.615183   -3.165183    0.000000
      2          8           0       -0.205061   -2.344939    0.000000
      3          8           0       -0.205061    2.175061   -0.000000
      4          8           0       -0.205061    3.335061   -0.000000
 ---------------------------------------------------------------------

 SCF Done:  E(RHF) =  -299.188883413     A.U. after   17 cycles
 E2 =    -0.9189889870D+00 EUMP2 =    -0.30010787239970D+03
 CCSD(T)
 CCSD(T)= -0.30015087687D+03

 The electronic state is 1-A'.
 Alpha  occ. eigenvalues --  -20.72929 -20.72901 -20.72813 -20.72784  -1.69863
 Alpha  occ. eigenvalues --   -1.69836  -1.08550  -1.08519  -0.78639  -0.78613
 Alpha  occ. eigenvalues --   -0.75176  -0.75132  -0.67391  -0.67365  -0.44807
 Alpha  occ. eigenvalues --   -0.44780
 Alpha virt. eigenvalues --    0.04968   0.04996   0.42177   0.44361   0.70248
 Alpha virt. eigenvalues --    0.70428   0.70590   0.70602   0.71824   0.73342
 Alpha virt. eigenvalues --    0.79308   0.80484   0.82241   0.82687   0.84739

 Mulliken charges:
               1
     1  O   -0.000326
     2  O    0.000360
     3  O    0.000576
     4  O   -0.000610
 Sum of Mulliken charges =  -0.00000

 Dipole moment (field-independent basis, Debye):
    X=             -0.0008    Y=             -0.0042    Z=              0.0000  Tot=              0.0043
 Quadrupole moment (field-independent basis, Debye-Ang):
   XX=            -19.6563   YY=            -21.1165   ZZ=            -19.7591
   XY=             -0.0975   XZ=             -0.0000   YZ=              0.0000

 P4DQ=-300.1007272\MP4SDQ=-300.1134127\CCSD=-300.110015\CCSD(T)=-300.15
 Normal termination of Gaussian 16 at Fri Feb  9 21:12:01 2024.
