 Gaussian 16, Revision A.03,
 Gaussian 16:  ES64L-G16RevA.03 25-Dec-2016

 ------------------
 #p CCSD(T)/cc-pVTZ
 ------------------

 --------
 O2_O2_49
 --------
 Symbolic Z-matrix:
 Charge =  0 Multiplicity = 1

                         Standard orientation:
 ---------------------------------------------------------------------
 Center     Atomic      Atomic             Coordinates (Angstroms)
 Number     Number       Type             X           Y           Z
 ---------------------------------------------------------------------
      1          8           0        0.615183   -1.725183    0.000000
      2          8           0       -0.205061   -0.904939    0.000000
      3          8           0       -0.205061    0.735061   -0.000000
      4          8           0       -0.205061    1.895061   -0.000000
 ---------------------------------------------------------------------

 SCF Done:  E(RHF) =  -299.093294522     A.U. after   18 cycles
 E2 =    -0.9441735253D+00 EUMP2 =    -0.30003746804769D+03
 CCSD(T)
 CCSD(T)= -0.30007993683D+03

 The electronic state is 1-A'.
 Alpha  occ. eigenvalues --  -20.73480 -20.73429 -20.72974 -20.69662  -1.71734
 Alpha  occ. eigenvalues --   -1.68825  -1.19363  -1.03086  -0.82281  -0.80099
 Alpha  occ. eigenvalues --   -0.78504  -0.70398  -0.68285  -0.60378  -0.45641
 Alpha  occ. eigenvalues --   -0.43750
 Alpha virt. eigenvalues --    0.04243   0.07218   0.46656   0.49928   0.65966
 Alpha virt. eigenvalues --    0.67293   0.72216   0.74037   0.74176   0.76848
 Alpha virt. eigenvalues --    0.78969   0.81520   0.82902   0.85966   0.95860

 Mulliken charges:
               1
     1  O   -0.062733
     2  O    0.042802
     3  O    0.047268
     4  O   -0.027336
 Sum of Mulliken charges =  -0.00000

 Dipole moment (field-independent basis, Debye):
    X=             -0.2334    Y=              0.4253    Z=             -0.0000  Tot=              0.4852
 Quadrupole moment (field-independent basis, Debye-Ang):
   XX=            -20.6516   YY=            -21.4706   ZZ=            -19.6943
   XY=              1.0259   XZ=             -0.0000   YZ=              0.0000

 DQ=-300.0213253\MP4SDQ=-300.0363211\CCSD=-300.0329327\CCSD(T)=-300.079
 Normal termination of Gaussian 16 at Fri Feb  9 18:25:16 2024.
