 Gaussian 16, Revision A.03,
 Gaussian 16:  ES64L-G16RevA.03 25-Dec-2016

 ------------------
 #p CCSD(T)/cc-pVTZ
 ------------------

 ---------
 O2_O2_281
 ---------
 Symbolic Z-matrix:
 Charge =  0 Multiplicity = 1

                         Standard orientation:
 ---------------------------------------------------------------------
 Center     Atomic      Atomic             Coordinates (Angstroms)
 Number     Number       Type             X           Y           Z
 ---------------------------------------------------------------------
      1          8           0       -0.870000   -2.650000    0.000000
      2          8           0        0.290000   -2.650000    0.000000
      3          8           0        0.290000    2.070000    0.000000
      4          8           0        0.290000    3.230000    0.000000
 ---------------------------------------------------------------------

 SCF Done:  E(RHF) =  -299.188877606     A.U. after   18 cycles
 E2 =    -0.9189691933D+00 EUMP2 =    -0.30010784679893D+03
 CCSD(T)
 CCSD(T)= -0.30015086040D+03

 The electronic state is 1-A'.
 Alpha  occ. eigenvalues --  -20.72928 -20.72895 -20.72813 -20.72779  -1.69861
 Alpha  occ. eigenvalues --   -1.69831  -1.08551  -1.08515  -0.78637  -0.78608
 Alpha  occ. eigenvalues --   -0.75173  -0.75134  -0.67390  -0.67359  -0.44807
 Alpha  occ. eigenvalues --   -0.44775
 Alpha virt. eigenvalues --    0.04967   0.05002   0.43218   0.43397   0.70185
 Alpha virt. eigenvalues --    0.70436   0.70588   0.70613   0.72554   0.72817
 Alpha virt. eigenvalues --    0.79904   0.80036   0.82252   0.82263   0.84729

 Mulliken charges:
               1
     1  O   -0.000205
     2  O    0.000215
     3  O    0.000646
     4  O   -0.000656
 Sum of Mulliken charges =  -0.00000

 Dipole moment (field-independent basis, Debye):
    X=              0.0011    Y=             -0.0049    Z=              0.0000  Tot=              0.0051
 Quadrupole moment (field-independent basis, Debye-Ang):
   XX=            -19.5529   YY=            -21.2138   ZZ=            -19.7590
   XY=             -0.0055   XZ=              0.0000   YZ=              0.0000

 DQ=-300.113394\CCSD=-300.1100003\CCSD(T)=-300.1508604\RMSD=7.078e-09\P
 Normal termination of Gaussian 16 at Fri Feb  9 21:23:40 2024.
