 Gaussian 16, Revision A.03,
 Gaussian 16:  ES64L-G16RevA.03 25-Dec-2016

 ------------------
 #p CCSD(T)/cc-pVTZ
 ------------------

 ---------
 O2_O2_226
 ---------
 Symbolic Z-matrix:
 Charge =  0 Multiplicity = 1

                         Standard orientation:
 ---------------------------------------------------------------------
 Center     Atomic      Atomic             Coordinates (Angstroms)
 Number     Number       Type             X           Y           Z
 ---------------------------------------------------------------------
      1          8           0        0.615183   -2.905183   -0.000000
      2          8           0       -0.205061   -2.084939   -0.000000
      3          8           0       -0.205061    1.915061    0.000000
      4          8           0       -0.205061    3.075061    0.000000
 ---------------------------------------------------------------------

 SCF Done:  E(RHF) =  -299.188932494     A.U. after   17 cycles
 E2 =    -0.9191003637D+00 EUMP2 =    -0.30010803285743D+03
 CCSD(T)
 CCSD(T)= -0.30015101316D+03

 The electronic state is 1-A'.
 Alpha  occ. eigenvalues --  -20.72933 -20.72875 -20.72817 -20.72758  -1.69864
 Alpha  occ. eigenvalues --   -1.69812  -1.08555  -1.08485  -0.78638  -0.78588
 Alpha  occ. eigenvalues --   -0.75200  -0.75076  -0.67391  -0.67340  -0.44804
 Alpha  occ. eigenvalues --   -0.44754
 Alpha virt. eigenvalues --    0.04970   0.05022   0.40437   0.45648   0.68719
 Alpha virt. eigenvalues --    0.70332   0.70552   0.70697   0.71265   0.74560
 Alpha virt. eigenvalues --    0.78664   0.80683   0.82170   0.84829   0.84858

 Mulliken charges:
               1
     1  O   -0.000219
     2  O    0.000441
     3  O    0.000505
     4  O   -0.000728
 Sum of Mulliken charges =  -0.00000

 Dipole moment (field-independent basis, Debye):
    X=             -0.0008    Y=             -0.0102    Z=              0.0000  Tot=              0.0103
 Quadrupole moment (field-independent basis, Debye-Ang):
   XX=            -19.6568   YY=            -21.1228   ZZ=            -19.7595
   XY=             -0.0957   XZ=              0.0000   YZ=             -0.0000

 P4DQ=-300.1008526\MP4SDQ=-300.1135442\CCSD=-300.11014\CCSD(T)=-300.151
 Normal termination of Gaussian 16 at Fri Feb  9 20:42:18 2024.
