 Gaussian 16, Revision A.03,
 Gaussian 16:  ES64L-G16RevA.03 25-Dec-2016

 ------------------
 #p CCSD(T)/cc-pVTZ
 ------------------

 ---------
 O2_O2_157
 ---------
 Symbolic Z-matrix:
 Charge =  0 Multiplicity = 1

                         Standard orientation:
 ---------------------------------------------------------------------
 Center     Atomic      Atomic             Coordinates (Angstroms)
 Number     Number       Type             X           Y           Z
 ---------------------------------------------------------------------
      1          8           0        0.615183   -2.445183    0.000000
      2          8           0       -0.205061   -1.624939    0.000000
      3          8           0       -0.205061    1.455061   -0.000000
      4          8           0       -0.205061    2.615061   -0.000000
 ---------------------------------------------------------------------

 SCF Done:  E(RHF) =  -299.188557709     A.U. after   21 cycles
 E2 =    -0.9197198123D+00 EUMP2 =    -0.30010827752169D+03
 CCSD(T)
 CCSD(T)= -0.30015117998D+03

 The electronic state is 1-A'.
 Alpha  occ. eigenvalues --  -20.72895 -20.72779 -20.72766 -20.72648  -1.69835
 Alpha  occ. eigenvalues --   -1.69716  -1.08683  -1.08233  -0.78638  -0.78493
 Alpha  occ. eigenvalues --   -0.75485  -0.74625  -0.67360  -0.67246  -0.44766
 Alpha  occ. eigenvalues --   -0.44653
 Alpha virt. eigenvalues --    0.04998   0.05107   0.39578   0.47443   0.65525
 Alpha virt. eigenvalues --    0.69056   0.69136   0.71562   0.72241   0.76329
 Alpha virt. eigenvalues --    0.79426   0.80044   0.80584   0.86358   0.87062

 Mulliken charges:
               1
     1  O   -0.000486
     2  O    0.001396
     3  O    0.000490
     4  O   -0.001400
 Sum of Mulliken charges =  -0.00000

 Dipole moment (field-independent basis, Debye):
    X=             -0.0026    Y=             -0.0235    Z=              0.0000  Tot=              0.0236
 Quadrupole moment (field-independent basis, Debye-Ang):
   XX=            -19.6599   YY=            -21.1906   ZZ=            -19.7610
   XY=             -0.0837   XZ=             -0.0000   YZ=              0.0000

 4DQ=-300.1009316\MP4SDQ=-300.1136635\CCSD=-300.1102273\CCSD(T)=-300.15
 Normal termination of Gaussian 16 at Fri Feb  9 19:50:09 2024.
