 Gaussian 16, Revision A.03,
 Gaussian 16:  ES64L-G16RevA.03 25-Dec-2016

 ------------------
 #p CCSD(T)/cc-pVTZ
 ------------------

 ---------
 O2_O2_180
 ---------
 Symbolic Z-matrix:
 Charge =  0 Multiplicity = 1

                         Standard orientation:
 ---------------------------------------------------------------------
 Center     Atomic      Atomic             Coordinates (Angstroms)
 Number     Number       Type             X           Y           Z
 ---------------------------------------------------------------------
      1          8           0        0.000000    0.000000    2.860000
      2          8           0        0.000000    0.000000    1.700000
      3          8           0        0.000000    0.000000   -1.700000
      4          8           0        0.000000    0.000000   -2.860000
 ---------------------------------------------------------------------

 SCF Done:  E(RHF) =  -298.814722531     A.U. after   10 cycles
 E2 =    -0.2241930876D+01 EUMP2 =    -0.30105665340716D+03
 CCSD(T)
 CCSD(T)= -0.30028267294D+03

 The electronic state is 1-SGG.
 Alpha  occ. eigenvalues --  -20.77302 -20.77301 -20.75478 -20.75478  -1.71958
 Alpha  occ. eigenvalues --   -1.71929  -1.10387  -1.09994  -0.77184  -0.76660
 Alpha  occ. eigenvalues --   -0.74609  -0.74609  -0.74134  -0.74134  -0.26848
 Alpha  occ. eigenvalues --   -0.26848
 Alpha virt. eigenvalues --   -0.14526  -0.14526   0.36401   0.48217   0.65293
 Alpha virt. eigenvalues --    0.68975   0.68975   0.70392   0.70392   0.75740
 Alpha virt. eigenvalues --    0.77673   0.80849   0.80849   0.84969   0.84969

 Mulliken charges:
               1
     1  O   -0.018626
     2  O    0.018626
     3  O    0.018626
     4  O   -0.018626
 Sum of Mulliken charges =   0.00000

 Dipole moment (field-independent basis, Debye):
    X=             -0.0000    Y=             -0.0000    Z=             -0.0000  Tot=              0.0000
 Quadrupole moment (field-independent basis, Debye-Ang):
   XX=            -20.1046   YY=            -20.1046   ZZ=            -22.0137
   XY=              0.0000   XZ=              0.0000   YZ=              0.0000

 4SDQ=-303.5932077\CCSD=-300.0279259\CCSD(T)=-300.2826729\RMSD=2.015e-0
 Normal termination of Gaussian 16 at Fri Feb  9 20:08:15 2024.
