 Gaussian 16, Revision A.03,
 Gaussian 16:  ES64L-G16RevA.03 25-Dec-2016

 ------------------
 #p CCSD(T)/cc-pVTZ
 ------------------

 --------
 O2_O2_59
 --------
 Symbolic Z-matrix:
 Charge =  0 Multiplicity = 1

                         Standard orientation:
 ---------------------------------------------------------------------
 Center     Atomic      Atomic             Coordinates (Angstroms)
 Number     Number       Type             X           Y           Z
 ---------------------------------------------------------------------
      1          8           0       -0.870000   -1.170000    0.000000
      2          8           0        0.290000   -1.170000    0.000000
      3          8           0        0.290000    0.590000    0.000000
      4          8           0        0.290000    1.750000    0.000000
 ---------------------------------------------------------------------

 SCF Done:  E(RHF) =  -299.106450589     A.U. after   21 cycles
 E2 =    -0.9426874674D+00 EUMP2 =    -0.30004913805640D+03
 CCSD(T)
 CCSD(T)= -0.30009029443D+03

 The electronic state is 1-A'.
 Alpha  occ. eigenvalues --  -20.74269 -20.73600 -20.72341 -20.69326  -1.72387
 Alpha  occ. eigenvalues --   -1.68566  -1.14392  -1.06100  -0.81934  -0.80160
 Alpha  occ. eigenvalues --   -0.78046  -0.73398  -0.68606  -0.59478  -0.46184
 Alpha  occ. eigenvalues --   -0.43410
 Alpha virt. eigenvalues --    0.03382   0.06626   0.43721   0.47696   0.66683
 Alpha virt. eigenvalues --    0.67238   0.69753   0.71854   0.74830   0.76100
 Alpha virt. eigenvalues --    0.79968   0.82484   0.82541   0.87834   0.89282

 Mulliken charges:
               1
     1  O   -0.046554
     2  O    0.014905
     3  O    0.034681
     4  O   -0.003032
 Sum of Mulliken charges =  -0.00000

 Dipole moment (field-independent basis, Debye):
    X=              0.3362    Y=              0.4969    Z=              0.0000  Tot=              0.6000
 Quadrupole moment (field-independent basis, Debye-Ang):
   XX=            -21.3107   YY=            -20.0839   ZZ=            -19.6948
   XY=             -0.2992   XZ=              0.0000   YZ=              0.0000

 DQ=-300.0482549\CCSD=-300.0449208\CCSD(T)=-300.0902944\RMSD=5.609e-09\
 Normal termination of Gaussian 16 at Fri Feb  9 18:33:44 2024.
