 Gaussian 16, Revision A.03,
 Gaussian 16:  ES64L-G16RevA.03 25-Dec-2016

 ------------------
 #p CCSD(T)/cc-pVTZ
 ------------------

 ---------
 O2_O2_236
 ---------
 Symbolic Z-matrix:
 Charge =  0 Multiplicity = 1

                         Standard orientation:
 ---------------------------------------------------------------------
 Center     Atomic      Atomic             Coordinates (Angstroms)
 Number     Number       Type             X           Y           Z
 ---------------------------------------------------------------------
      1          8           0       -0.870000   -2.350000    0.000000
      2          8           0        0.290000   -2.350000    0.000000
      3          8           0        0.290000    1.770000    0.000000
      4          8           0        0.290000    2.930000    0.000000
 ---------------------------------------------------------------------

 SCF Done:  E(RHF) =  -299.188914813     A.U. after   17 cycles
 E2 =    -0.9190638532D+00 EUMP2 =    -0.30010797866600D+03
 CCSD(T)
 CCSD(T)= -0.30015097769D+03

 The electronic state is 1-A'.
 Alpha  occ. eigenvalues --  -20.72925 -20.72868 -20.72809 -20.72752  -1.69856
 Alpha  occ. eigenvalues --   -1.69805  -1.08547  -1.08485  -0.78631  -0.78582
 Alpha  occ. eigenvalues --   -0.75175  -0.75095  -0.67384  -0.67332  -0.44801
 Alpha  occ. eigenvalues --   -0.44748
 Alpha virt. eigenvalues --    0.04973   0.05030   0.42805   0.43504   0.68328
 Alpha virt. eigenvalues --    0.70323   0.70613   0.70721   0.72561   0.74341
 Alpha virt. eigenvalues --    0.79766   0.80260   0.82278   0.82686   0.84745

 Mulliken charges:
               1
     1  O   -0.000305
     2  O    0.000408
     3  O    0.000839
     4  O   -0.000942
 Sum of Mulliken charges =  -0.00000

 Dipole moment (field-independent basis, Debye):
    X=              0.0016    Y=             -0.0094    Z=              0.0000  Tot=              0.0096
 Quadrupole moment (field-independent basis, Debye-Ang):
   XX=            -19.5539   YY=            -21.2211   ZZ=            -19.7594
   XY=             -0.0077   XZ=              0.0000   YZ=              0.0000

 4SDQ=-300.1135037\CCSD=-300.1101073\CCSD(T)=-300.1509777\RMSD=4.206e-0
 Normal termination of Gaussian 16 at Fri Feb  9 20:49:39 2024.
