 Gaussian 16, Revision A.03,
 Gaussian 16:  ES64L-G16RevA.03 25-Dec-2016

 ------------------
 #p CCSD(T)/cc-pVTZ
 ------------------

 ---------
 O2_O2_230
 ---------
 Symbolic Z-matrix:
 Charge =  0 Multiplicity = 1

                         Standard orientation:
 ---------------------------------------------------------------------
 Center     Atomic      Atomic             Coordinates (Angstroms)
 Number     Number       Type             X           Y           Z
 ---------------------------------------------------------------------
      1          8           0       -0.870000   -2.310000    0.000000
      2          8           0        0.290000   -2.310000    0.000000
      3          8           0        0.290000    1.730000    0.000000
      4          8           0        0.290000    2.890000    0.000000
 ---------------------------------------------------------------------

 SCF Done:  E(RHF) =  -299.188923262     A.U. after   17 cycles
 E2 =    -0.9190863694D+00 EUMP2 =    -0.30010800963153D+03
 CCSD(T)
 CCSD(T)= -0.30015100571D+03

 The electronic state is 1-A'.
 Alpha  occ. eigenvalues --  -20.72926 -20.72863 -20.72809 -20.72747  -1.69855
 Alpha  occ. eigenvalues --   -1.69800  -1.08546  -1.08480  -0.78631  -0.78577
 Alpha  occ. eigenvalues --   -0.75178  -0.75087  -0.67384  -0.67327  -0.44800
 Alpha  occ. eigenvalues --   -0.44743
 Alpha virt. eigenvalues --    0.04973   0.05035   0.42685   0.43518   0.67889
 Alpha virt. eigenvalues --    0.70280   0.70603   0.70764   0.72563   0.74667
 Alpha virt. eigenvalues --    0.79730   0.80295   0.82283   0.82802   0.84751

 Mulliken charges:
               1
     1  O   -0.000322
     2  O    0.000452
     3  O    0.000844
     4  O   -0.000974
 Sum of Mulliken charges =  -0.00000

 Dipole moment (field-independent basis, Debye):
    X=              0.0017    Y=             -0.0104    Z=              0.0000  Tot=              0.0105
 Quadrupole moment (field-independent basis, Debye-Ang):
   XX=            -19.5541   YY=            -21.2221   ZZ=            -19.7594
   XY=             -0.0081   XZ=              0.0000   YZ=              0.0000

 DQ=-300.1135299\CCSD=-300.1101328\CCSD(T)=-300.1510057\RMSD=2.252e-09\
 Normal termination of Gaussian 16 at Fri Feb  9 20:45:17 2024.
