 Gaussian 16, Revision A.03,
 Gaussian 16:  ES64L-G16RevA.03 25-Dec-2016

 ------------------
 #p CCSD(T)/cc-pVTZ
 ------------------

 --------
 O2_O2_72
 --------
 Symbolic Z-matrix:
 Charge =  0 Multiplicity = 1

                         Standard orientation:
 ---------------------------------------------------------------------
 Center     Atomic      Atomic             Coordinates (Angstroms)
 Number     Number       Type             X           Y           Z
 ---------------------------------------------------------------------
      1          8           0        0.000000    0.000000    2.140000
      2          8           0        0.000000    0.000000    0.980000
      3          8           0        0.000000    0.000000   -0.980000
      4          8           0        0.000000    0.000000   -2.140000
 ---------------------------------------------------------------------

 SCF Done:  E(RHF) =  -298.921992081     A.U. after   10 cycles
 E2 =    -0.1523131473D+01 EUMP2 =    -0.30044512355415D+03
 CCSD(T)
 CCSD(T)= -0.30019116130D+03

 The electronic state is 1-SGG.
 Alpha  occ. eigenvalues --  -20.80759 -20.80752 -20.74088 -20.74088  -1.73316
 Alpha  occ. eigenvalues --   -1.72436  -1.15903  -1.07210  -0.82053  -0.76573
 Alpha  occ. eigenvalues --   -0.76573  -0.73583  -0.73583  -0.71657  -0.32258
 Alpha  occ. eigenvalues --   -0.32258
 Alpha virt. eigenvalues --   -0.09645  -0.09645   0.45183   0.48960   0.65816
 Alpha virt. eigenvalues --    0.65816   0.72273   0.72273   0.72399   0.76433
 Alpha virt. eigenvalues --    0.79373   0.79373   0.83989   0.85338   0.91525

 Mulliken charges:
               1
     1  O   -0.087473
     2  O    0.087473
     3  O    0.087473
     4  O   -0.087473
 Sum of Mulliken charges =  -0.00000

 Dipole moment (field-independent basis, Debye):
    X=             -0.0000    Y=              0.0000    Z=              0.0000  Tot=              0.0000
 Quadrupole moment (field-independent basis, Debye-Ang):
   XX=            -20.2284   YY=            -20.2284   ZZ=            -22.4660
   XY=              0.0000   XZ=              0.0000   YZ=              0.0000

 4SDQ=-300.0800576\CCSD=-300.0475629\CCSD(T)=-300.1911613\RMSD=3.988e-0
 Normal termination of Gaussian 16 at Fri Feb  9 18:43:52 2024.
