 Gaussian 16, Revision A.03,
 Gaussian 16:  ES64L-G16RevA.03 25-Dec-2016

 ------------------
 #p CCSD(T)/cc-pVTZ
 ------------------

 ---------
 O2_O2_272
 ---------
 Symbolic Z-matrix:
 Charge =  0 Multiplicity = 1

                         Standard orientation:
 ---------------------------------------------------------------------
 Center     Atomic      Atomic             Coordinates (Angstroms)
 Number     Number       Type             X           Y           Z
 ---------------------------------------------------------------------
      1          8           0       -0.870000   -2.590000    0.000000
      2          8           0        0.290000   -2.590000    0.000000
      3          8           0        0.290000    2.010000    0.000000
      4          8           0        0.290000    3.170000    0.000000
 ---------------------------------------------------------------------

 SCF Done:  E(RHF) =  -299.188881705     A.U. after   18 cycles
 E2 =    -0.9189804651D+00 EUMP2 =    -0.30010786217005D+03
 CCSD(T)
 CCSD(T)= -0.30015087451D+03

 The electronic state is 1-A'.
 Alpha  occ. eigenvalues --  -20.72927 -20.72891 -20.72811 -20.72775  -1.69860
 Alpha  occ. eigenvalues --   -1.69827  -1.08549  -1.08510  -0.78636  -0.78604
 Alpha  occ. eigenvalues --   -0.75172  -0.75128  -0.67389  -0.67355  -0.44806
 Alpha  occ. eigenvalues --   -0.44771
 Alpha virt. eigenvalues --    0.04969   0.05007   0.43181   0.43417   0.70013
 Alpha virt. eigenvalues --    0.70432   0.70597   0.70617   0.72555   0.72970
 Alpha virt. eigenvalues --    0.79888   0.80065   0.82256   0.82296   0.84730

 Mulliken charges:
               1
     1  O   -0.000223
     2  O    0.000241
     3  O    0.000692
     4  O   -0.000709
 Sum of Mulliken charges =  -0.00000

 Dipole moment (field-independent basis, Debye):
    X=              0.0012    Y=             -0.0055    Z=              0.0000  Tot=              0.0057
 Quadrupole moment (field-independent basis, Debye-Ang):
   XX=            -19.5531   YY=            -21.2153   ZZ=            -19.7591
   XY=             -0.0059   XZ=              0.0000   YZ=              0.0000

 DQ=-300.1134065\CCSD=-300.1100128\CCSD(T)=-300.1508745\RMSD=6.714e-09\
 Normal termination of Gaussian 16 at Fri Feb  9 21:17:20 2024.
