 Gaussian 16, Revision A.03,
 Gaussian 16:  ES64L-G16RevA.03 25-Dec-2016

 ------------------
 #p CCSD(T)/cc-pVTZ
 ------------------

 ---------
 O2_O2_123
 ---------
 Symbolic Z-matrix:
 Charge =  0 Multiplicity = 1

                         Standard orientation:
 ---------------------------------------------------------------------
 Center     Atomic      Atomic             Coordinates (Angstroms)
 Number     Number       Type             X           Y           Z
 ---------------------------------------------------------------------
      1          8           0        0.000000    0.000000    2.480000
      2          8           0        0.000000    0.000000    1.320000
      3          8           0        0.000000    0.000000   -1.320000
      4          8           0        0.000000    0.000000   -2.480000
 ---------------------------------------------------------------------

 SCF Done:  E(RHF) =  -298.857883507     A.U. after   10 cycles
 E2 =    -0.1867369264D+01 EUMP2 =    -0.30072525277171D+03
 CCSD(T)
 CCSD(T)= -0.30024473835D+03

 The electronic state is 1-SGG.
 Alpha  occ. eigenvalues --  -20.78656 -20.78653 -20.75275 -20.75274  -1.72433
 Alpha  occ. eigenvalues --   -1.72290  -1.11425  -1.09624  -0.78504  -0.75903
 Alpha  occ. eigenvalues --   -0.75209  -0.75209  -0.74159  -0.74159  -0.28831
 Alpha  occ. eigenvalues --   -0.28831
 Alpha virt. eigenvalues --   -0.12918  -0.12918   0.40969   0.48946   0.66625
 Alpha virt. eigenvalues --    0.66625   0.67411   0.71308   0.71308   0.75929
 Alpha virt. eigenvalues --    0.78537   0.78537   0.80377   0.85396   0.86775

 Mulliken charges:
               1
     1  O   -0.037310
     2  O    0.037310
     3  O    0.037310
     4  O   -0.037310
 Sum of Mulliken charges =   0.00000

 Dipole moment (field-independent basis, Debye):
    X=             -0.0000    Y=             -0.0000    Z=              0.0000  Tot=              0.0000
 Quadrupole moment (field-independent basis, Debye-Ang):
   XX=            -20.1763   YY=            -20.1763   ZZ=            -21.9027
   XY=              0.0000   XZ=              0.0000   YZ=              0.0000

 4SDQ=-300.7668404\CCSD=-300.0358026\CCSD(T)=-300.2447384\RMSD=2.421e-0
 Normal termination of Gaussian 16 at Fri Feb  9 19:24:55 2024.
