 Gaussian 16, Revision A.03,
 Gaussian 16:  ES64L-G16RevA.03 25-Dec-2016

 ------------------
 #p CCSD(T)/cc-pVTZ
 ------------------

 --------
 O2_O2_42
 --------
 Symbolic Z-matrix:
 Charge =  0 Multiplicity = 1

                         Standard orientation:
 ---------------------------------------------------------------------
 Center     Atomic      Atomic             Coordinates (Angstroms)
 Number     Number       Type             X           Y           Z
 ---------------------------------------------------------------------
      1          8           0        0.000000    0.000000    1.940000
      2          8           0        0.000000    0.000000    0.780000
      3          8           0        0.000000    0.000000   -0.780000
      4          8           0        0.000000    0.000000   -1.940000
 ---------------------------------------------------------------------

 SCF Done:  E(RHF) =  -298.912181049     A.U. after   10 cycles
 E2 =    -0.1344375575D+01 EUMP2 =    -0.30025655662370D+03
 CCSD(T)
 CCSD(T)= -0.30011429764D+03

 The electronic state is 1-SGG.
 Alpha  occ. eigenvalues --  -20.82085 -20.82068 -20.71540 -20.71540  -1.74826
 Alpha  occ. eigenvalues --   -1.71726  -1.25859  -1.03024  -0.84988  -0.79059
 Alpha  occ. eigenvalues --   -0.79059  -0.72100  -0.72100  -0.62008  -0.35852
 Alpha  occ. eigenvalues --   -0.35852
 Alpha virt. eigenvalues --   -0.05479  -0.05479   0.46173   0.49535   0.66426
 Alpha virt. eigenvalues --    0.66426   0.69441   0.73273   0.73273   0.73955
 Alpha virt. eigenvalues --    0.82265   0.82265   0.83829   0.86918   0.99150

 Mulliken charges:
               1
     1  O   -0.143906
     2  O    0.143906
     3  O    0.143906
     4  O   -0.143906
 Sum of Mulliken charges =  -0.00000

 Dipole moment (field-independent basis, Debye):
    X=             -0.0000    Y=              0.0000    Z=             -0.0000  Tot=              0.0000
 Quadrupole moment (field-independent basis, Debye-Ang):
   XX=            -20.0934   YY=            -20.0934   ZZ=            -24.0834
   XY=              0.0000   XZ=              0.0000   YZ=              0.0000

 SDQ=-300.0121304\CCSD=-300.0038183\CCSD(T)=-300.1142976\RMSD=8.320e-09
 Normal termination of Gaussian 16 at Fri Feb  9 18:19:28 2024.
