 Gaussian 16, Revision A.03,
 Gaussian 16:  ES64L-G16RevA.03 25-Dec-2016

 ------------------
 #p CCSD(T)/cc-pVTZ
 ------------------

 ---------
 O2_O2_113
 ---------
 Symbolic Z-matrix:
 Charge =  0 Multiplicity = 1

                         Standard orientation:
 ---------------------------------------------------------------------
 Center     Atomic      Atomic             Coordinates (Angstroms)
 Number     Number       Type             X           Y           Z
 ---------------------------------------------------------------------
      1          8           0       -0.870000   -1.530000    0.000000
      2          8           0        0.290000   -1.530000    0.000000
      3          8           0        0.290000    0.950000    0.000000
      4          8           0        0.290000    2.110000    0.000000
 ---------------------------------------------------------------------

 SCF Done:  E(RHF) =  -299.184409587     A.U. after   27 cycles
 E2 =    -0.9215492161D+00 EUMP2 =    -0.30010595880359D+03
 CCSD(T)
 CCSD(T)= -0.30014869332D+03

 The electronic state is 1-A'.
 Alpha  occ. eigenvalues --  -20.72904 -20.72700 -20.72501 -20.72381  -1.69941
 Alpha  occ. eigenvalues --   -1.69459  -1.08957  -1.07987  -0.79575  -0.78323
 Alpha  occ. eigenvalues --   -0.75463  -0.73567  -0.67372  -0.67072  -0.44785
 Alpha  occ. eigenvalues --   -0.44466
 Alpha virt. eigenvalues --    0.04978   0.05310   0.42741   0.46565   0.66389
 Alpha virt. eigenvalues --    0.67213   0.69850   0.72667   0.73091   0.75962
 Alpha virt. eigenvalues --    0.77625   0.79619   0.83114   0.83612   0.87305

 Mulliken charges:
               1
     1  O   -0.003279
     2  O    0.005493
     3  O    0.009052
     4  O   -0.011265
 Sum of Mulliken charges =  -0.00000

 Dipole moment (field-independent basis, Debye):
    X=              0.0328    Y=             -0.0444    Z=              0.0000  Tot=              0.0552
 Quadrupole moment (field-independent basis, Debye-Ang):
   XX=            -19.5756   YY=            -21.4639   ZZ=            -19.7630
   XY=             -0.0472   XZ=              0.0000   YZ=              0.0000

 4SDQ=-300.1109724\CCSD=-300.1075076\CCSD(T)=-300.1486933\RMSD=1.678e-0
 Normal termination of Gaussian 16 at Fri Feb  9 19:17:36 2024.
