 Gaussian 16, Revision A.03,
 Gaussian 16:  ES64L-G16RevA.03 25-Dec-2016

 ------------------
 #p CCSD(T)/cc-pVTZ
 ------------------

 ---------
 O2_O2_216
 ---------
 Symbolic Z-matrix:
 Charge =  0 Multiplicity = 1

                         Standard orientation:
 ---------------------------------------------------------------------
 Center     Atomic      Atomic             Coordinates (Angstroms)
 Number     Number       Type             X           Y           Z
 ---------------------------------------------------------------------
      1          8           0        0.000000    0.000000    3.100000
      2          8           0        0.000000    0.000000    1.940000
      3          8           0        0.000000    0.000000   -1.940000
      4          8           0        0.000000    0.000000   -3.100000
 ---------------------------------------------------------------------

 SCF Done:  E(RHF) =  -298.799109098     A.U. after   10 cycles
 E2 =    -0.2464688038D+01 EUMP2 =    -0.30126379713624D+03
 CCSD(T)
 CCSD(T)= -0.30029681845D+03

 The electronic state is 1-SGG.
 Alpha  occ. eigenvalues --  -20.76915 -20.76914 -20.75549 -20.75549  -1.71836
 Alpha  occ. eigenvalues --   -1.71822  -1.10198  -1.10009  -0.76929  -0.76739
 Alpha  occ. eigenvalues --   -0.74447  -0.74447  -0.74118  -0.74118  -0.26091
 Alpha  occ. eigenvalues --   -0.26091
 Alpha virt. eigenvalues --   -0.15166  -0.15166   0.37722   0.46643   0.67497
 Alpha virt. eigenvalues --    0.69564   0.69564   0.70046   0.70046   0.74893
 Alpha virt. eigenvalues --    0.77218   0.82037   0.82037   0.83530   0.83530

 Mulliken charges:
               1
     1  O   -0.015621
     2  O    0.015621
     3  O    0.015621
     4  O   -0.015621
 Sum of Mulliken charges =  -0.00000

 Dipole moment (field-independent basis, Debye):
    X=             -0.0000    Y=              0.0000    Z=             -0.0000  Tot=              0.0000
 Quadrupole moment (field-independent basis, Debye-Ang):
   XX=            -20.0844   YY=            -20.0844   ZZ=            -22.0299
   XY=              0.0000   XZ=              0.0000   YZ=              0.0000

 P4SDQ=-306.9206754\CCSD=-300.0259562\CCSD(T)=-300.2968185\RMSD=1.823e-
 Normal termination of Gaussian 16 at Fri Feb  9 20:34:50 2024.
