 Gaussian 16, Revision A.03,
 Gaussian 16:  ES64L-G16RevA.03 25-Dec-2016

 ------------------
 #p CCSD(T)/cc-pVTZ
 ------------------

 ---------
 O2_O2_169
 ---------
 Symbolic Z-matrix:
 Charge =  0 Multiplicity = 1

                         Standard orientation:
 ---------------------------------------------------------------------
 Center     Atomic      Atomic             Coordinates (Angstroms)
 Number     Number       Type             X           Y           Z
 ---------------------------------------------------------------------
      1          8           0        0.615183   -2.525183    0.000000
      2          8           0       -0.205061   -1.704939    0.000000
      3          8           0       -0.205061    1.535061   -0.000000
      4          8           0       -0.205061    2.695061   -0.000000
 ---------------------------------------------------------------------

 SCF Done:  E(RHF) =  -299.188778092     A.U. after   18 cycles
 E2 =    -0.9195489669D+00 EUMP2 =    -0.30010832705897D+03
 CCSD(T)
 CCSD(T)= -0.30015124667D+03

 The electronic state is 1-A'.
 Alpha  occ. eigenvalues --  -20.72917 -20.72801 -20.72795 -20.72677  -1.69850
 Alpha  occ. eigenvalues --   -1.69739  -1.08630  -1.08318  -0.78638  -0.78516
 Alpha  occ. eigenvalues --   -0.75388  -0.74774  -0.67375  -0.67268  -0.44783
 Alpha  occ. eigenvalues --   -0.44677
 Alpha virt. eigenvalues --    0.04984   0.05089   0.39036   0.47235   0.65482
 Alpha virt. eigenvalues --    0.69454   0.69578   0.71342   0.71946   0.76123
 Alpha virt. eigenvalues --    0.79070   0.80187   0.81004   0.85979   0.86656

 Mulliken charges:
               1
     1  O   -0.000107
     2  O    0.000950
     3  O   -0.000028
     4  O   -0.000814
 Sum of Mulliken charges =   0.00000

 Dipole moment (field-independent basis, Debye):
    X=             -0.0018    Y=             -0.0232    Z=             -0.0000  Tot=              0.0233
 Quadrupole moment (field-independent basis, Debye-Ang):
   XX=            -19.6583   YY=            -21.1652   ZZ=            -19.7605
   XY=             -0.0876   XZ=             -0.0000   YZ=              0.0000

 DQ=-300.1010239\MP4SDQ=-300.1137454\CCSD=-300.1103176\CCSD(T)=-300.151
 Normal termination of Gaussian 16 at Fri Feb  9 19:58:56 2024.
