 Gaussian 16, Revision A.03,
 Gaussian 16:  ES64L-G16RevA.03 25-Dec-2016

 ------------------
 #p CCSD(T)/cc-pVTZ
 ------------------

 ---------
 O2_O2_179
 ---------
 Symbolic Z-matrix:
 Charge =  0 Multiplicity = 1

                         Standard orientation:
 ---------------------------------------------------------------------
 Center     Atomic      Atomic             Coordinates (Angstroms)
 Number     Number       Type             X           Y           Z
 ---------------------------------------------------------------------
      1          8           0       -0.870000   -1.970000    0.000000
      2          8           0        0.290000   -1.970000    0.000000
      3          8           0        0.290000    1.390000    0.000000
      4          8           0        0.290000    2.550000    0.000000
 ---------------------------------------------------------------------

 SCF Done:  E(RHF) =  -299.188986461     A.U. after   18 cycles
 E2 =    -0.9194570564D+00 EUMP2 =    -0.30010844351707D+03
 CCSD(T)
 CCSD(T)= -0.30015140999D+03

 The electronic state is 1-A'.
 Alpha  occ. eigenvalues --  -20.72927 -20.72811 -20.72804 -20.72685  -1.69851
 Alpha  occ. eigenvalues --   -1.69742  -1.08557  -1.08406  -0.78658  -0.78522
 Alpha  occ. eigenvalues --   -0.75242  -0.74925  -0.67377  -0.67270  -0.44797
 Alpha  occ. eigenvalues --   -0.44685
 Alpha virt. eigenvalues --    0.04977   0.05089   0.41429   0.43713   0.64254
 Alpha virt. eigenvalues --    0.69336   0.70011   0.71498   0.72653   0.76861
 Alpha virt. eigenvalues --    0.79026   0.80410   0.82415   0.82613   0.85027

 Mulliken charges:
               1
     1  O   -0.000574
     2  O    0.000954
     3  O    0.000578
     4  O   -0.000959
 Sum of Mulliken charges =   0.00000

 Dipole moment (field-independent basis, Debye):
    X=              0.0045    Y=             -0.0198    Z=              0.0000  Tot=              0.0203
 Quadrupole moment (field-independent basis, Debye-Ang):
   XX=            -19.5576   YY=            -21.2512   ZZ=            -19.7604
   XY=             -0.0148   XZ=              0.0000   YZ=              0.0000

 SDQ=-300.1138976\CCSD=-300.110491\CCSD(T)=-300.15141\RMSD=4.420e-09\PG
 Normal termination of Gaussian 16 at Fri Feb  9 20:07:37 2024.
