 Gaussian 16, Revision A.03,
 Gaussian 16:  ES64L-G16RevA.03 25-Dec-2016

 ------------------
 #p CCSD(T)/cc-pVTZ
 ------------------

 ---------
 O2_O2_225
 ---------
 Symbolic Z-matrix:
 Charge =  0 Multiplicity = 1

                         Standard orientation:
 ---------------------------------------------------------------------
 Center     Atomic      Atomic             Coordinates (Angstroms)
 Number     Number       Type             X           Y           Z
 ---------------------------------------------------------------------
      1          8           0        0.000000    0.000000    3.160000
      2          8           0        0.000000    0.000000    2.000000
      3          8           0        0.000000    0.000000   -2.000000
      4          8           0        0.000000    0.000000   -3.160000
 ---------------------------------------------------------------------

 SCF Done:  E(RHF) =  -298.795993830     A.U. after   10 cycles
 E2 =    -0.2519006889D+01 EUMP2 =    -0.30131500071871D+03
 CCSD(T)
 CCSD(T)= -0.30029960955D+03

 The electronic state is 1-SGG.
 Alpha  occ. eigenvalues --  -20.76852 -20.76851 -20.75567 -20.75567  -1.71819
 Alpha  occ. eigenvalues --   -1.71807  -1.10172  -1.10010  -0.76895  -0.76747
 Alpha  occ. eigenvalues --   -0.74421  -0.74421  -0.74118  -0.74118  -0.25937
 Alpha  occ. eigenvalues --   -0.25937
 Alpha virt. eigenvalues --   -0.15303  -0.15303   0.38385   0.46158   0.68223
 Alpha virt. eigenvalues --    0.69638   0.69638   0.69995   0.69995   0.74573
 Alpha virt. eigenvalues --    0.77218   0.82220   0.82220   0.82783   0.83335

 Mulliken charges:
               1
     1  O   -0.015048
     2  O    0.015048
     3  O    0.015048
     4  O   -0.015048
 Sum of Mulliken charges =  -0.00000

 Dipole moment (field-independent basis, Debye):
    X=             -0.0000    Y=             -0.0000    Z=             -0.0000  Tot=              0.0000
 Quadrupole moment (field-independent basis, Debye-Ang):
   XX=            -20.0815   YY=            -20.0815   ZZ=            -22.0259
   XY=              0.0000   XZ=              0.0000   YZ=              0.0000

 SDQ=-307.9669908\CCSD=-300.0256198\CCSD(T)=-300.2996096\RMSD=1.785e-09
 Normal termination of Gaussian 16 at Fri Feb  9 20:41:32 2024.
