 Gaussian 16, Revision A.03,
 Gaussian 16:  ES64L-G16RevA.03 25-Dec-2016

 ------------------
 #p CCSD(T)/cc-pVTZ
 ------------------

 ---------
 O2_O2_203
 ---------
 Symbolic Z-matrix:
 Charge =  0 Multiplicity = 1

                         Standard orientation:
 ---------------------------------------------------------------------
 Center     Atomic      Atomic             Coordinates (Angstroms)
 Number     Number       Type             X           Y           Z
 ---------------------------------------------------------------------
      1          8           0       -0.870000   -2.130000    0.000000
      2          8           0        0.290000   -2.130000    0.000000
      3          8           0        0.290000    1.550000    0.000000
      4          8           0        0.290000    2.710000    0.000000
 ---------------------------------------------------------------------

 SCF Done:  E(RHF) =  -299.188968387     A.U. after   19 cycles
 E2 =    -0.9192332807D+00 EUMP2 =    -0.30010820166746D+03
 CCSD(T)
 CCSD(T)= -0.30015118299D+03

 The electronic state is 1-A'.
 Alpha  occ. eigenvalues --  -20.72927 -20.72837 -20.72811 -20.72719  -1.69853
 Alpha  occ. eigenvalues --   -1.69774  -1.08548  -1.08449  -0.78635  -0.78552
 Alpha  occ. eigenvalues --   -0.75199  -0.75028  -0.67381  -0.67301  -0.44799
 Alpha  occ. eigenvalues --   -0.44717
 Alpha virt. eigenvalues --    0.04975   0.05060   0.41947   0.43591   0.65712
 Alpha virt. eigenvalues --    0.69941   0.70447   0.71063   0.72589   0.76085
 Alpha virt. eigenvalues --    0.79433   0.80370   0.82324   0.83148   0.84820

 Mulliken charges:
               1
     1  O   -0.000430
     2  O    0.000713
     3  O    0.000732
     4  O   -0.001015
 Sum of Mulliken charges =  -0.00000

 Dipole moment (field-independent basis, Debye):
    X=              0.0025    Y=             -0.0154    Z=              0.0000  Tot=              0.0156
 Quadrupole moment (field-independent basis, Debye-Ang):
   XX=            -19.5553   YY=            -21.2303   ZZ=            -19.7598
   XY=             -0.0108   XZ=              0.0000   YZ=              0.0000

 4SDQ=-300.113694\CCSD=-300.1102925\CCSD(T)=-300.151183\RMSD=8.363e-09\
 Normal termination of Gaussian 16 at Fri Feb  9 20:25:28 2024.
