 Gaussian 16, Revision A.03,
 Gaussian 16:  ES64L-G16RevA.03 25-Dec-2016

 ------------------
 #p CCSD(T)/cc-pVTZ
 ------------------

 ---------
 O2_O2_108
 ---------
 Symbolic Z-matrix:
 Charge =  0 Multiplicity = 1

                         Standard orientation:
 ---------------------------------------------------------------------
 Center     Atomic      Atomic             Coordinates (Angstroms)
 Number     Number       Type             X           Y           Z
 ---------------------------------------------------------------------
      1          8           0        0.000000    0.000000    2.380000
      2          8           0        0.000000    0.000000    1.220000
      3          8           0        0.000000    0.000000   -1.220000
      4          8           0        0.000000    0.000000   -2.380000
 ---------------------------------------------------------------------

 SCF Done:  E(RHF) =  -298.875096577     A.U. after   10 cycles
 E2 =    -0.1765360300D+01 EUMP2 =    -0.30064045687695D+03
 CCSD(T)
 CCSD(T)= -0.30023079074D+03

 The electronic state is 1-SGG.
 Alpha  occ. eigenvalues --  -20.79211 -20.79207 -20.75118 -20.75118  -1.72634
 Alpha  occ. eigenvalues --   -1.72399  -1.12094  -1.09277  -0.79232  -0.75484
 Alpha  occ. eigenvalues --   -0.75484  -0.75303  -0.74111  -0.74111  -0.29613
 Alpha  occ. eigenvalues --   -0.29613
 Alpha virt. eigenvalues --   -0.12243  -0.12243   0.42548   0.48968   0.66006
 Alpha virt. eigenvalues --    0.66006   0.69391   0.71567   0.71567   0.76033
 Alpha virt. eigenvalues --    0.78342   0.78342   0.82121   0.84964   0.86624

 Mulliken charges:
               1
     1  O   -0.048297
     2  O    0.048297
     3  O    0.048297
     4  O   -0.048297
 Sum of Mulliken charges =   0.00000

 Dipole moment (field-independent basis, Debye):
    X=             -0.0000    Y=             -0.0000    Z=             -0.0000  Tot=              0.0000
 Quadrupole moment (field-independent basis, Debye-Ang):
   XX=            -20.2018   YY=            -20.2018   ZZ=            -21.9252
   XY=              0.0000   XZ=              0.0000   YZ=              0.0000

 4SDQ=-300.429801\CCSD=-300.0396315\CCSD(T)=-300.2307907\RMSD=2.588e-09
 Normal termination of Gaussian 16 at Fri Feb  9 19:13:43 2024.
