 Gaussian 16, Revision A.03,
 Gaussian 16:  ES64L-G16RevA.03 25-Dec-2016

 ------------------
 #p CCSD(T)/cc-pVTZ
 ------------------

 ---------
 O2_O2_217
 ---------
 Symbolic Z-matrix:
 Charge =  0 Multiplicity = 1

                         Standard orientation:
 ---------------------------------------------------------------------
 Center     Atomic      Atomic             Coordinates (Angstroms)
 Number     Number       Type             X           Y           Z
 ---------------------------------------------------------------------
      1          8           0        0.615183   -2.845183    0.000000
      2          8           0       -0.205061   -2.024939   -0.000000
      3          8           0       -0.205061    1.855061   -0.000000
      4          8           0       -0.205061    3.015061   -0.000000
 ---------------------------------------------------------------------

 SCF Done:  E(RHF) =  -299.188943660     A.U. after   17 cycles
 E2 =    -0.9191442840D+00 EUMP2 =    -0.30010808794382D+03
 CCSD(T)
 CCSD(T)= -0.30015105988D+03

 The electronic state is 1-A'.
 Alpha  occ. eigenvalues --  -20.72935 -20.72866 -20.72818 -20.72749  -1.69865
 Alpha  occ. eigenvalues --   -1.69803  -1.08558  -1.08472  -0.78639  -0.78580
 Alpha  occ. eigenvalues --   -0.75213  -0.75053  -0.67391  -0.67332  -0.44804
 Alpha  occ. eigenvalues --   -0.44746
 Alpha virt. eigenvalues --    0.04970   0.05030   0.39962   0.45967   0.68073
 Alpha virt. eigenvalues --    0.70273   0.70497   0.70753   0.71276   0.74872
 Alpha virt. eigenvalues --    0.78589   0.80664   0.82105   0.84897   0.84949

 Mulliken charges:
               1
     1  O   -0.000145
     2  O    0.000453
     3  O    0.000402
     4  O   -0.000710
 Sum of Mulliken charges =  -0.00000

 Dipole moment (field-independent basis, Debye):
    X=             -0.0008    Y=             -0.0124    Z=             -0.0000  Tot=              0.0125
 Quadrupole moment (field-independent basis, Debye-Ang):
   XX=            -19.6568   YY=            -21.1247   ZZ=            -19.7597
   XY=             -0.0951   XZ=             -0.0000   YZ=             -0.0000

 P4DQ=-300.1008943\MP4SDQ=-300.1135887\CCSD=-300.110182\CCSD(T)=-300.15
 Normal termination of Gaussian 16 at Fri Feb  9 20:35:38 2024.
