 Gaussian 16, Revision A.03,
 Gaussian 16:  ES64L-G16RevA.03 25-Dec-2016

 ------------------
 #p CCSD(T)/cc-pVTZ
 ------------------

 ---------
 O2_O2_224
 ---------
 Symbolic Z-matrix:
 Charge =  0 Multiplicity = 1

                         Standard orientation:
 ---------------------------------------------------------------------
 Center     Atomic      Atomic             Coordinates (Angstroms)
 Number     Number       Type             X           Y           Z
 ---------------------------------------------------------------------
      1          8           0       -0.870000   -2.270000    0.000000
      2          8           0        0.290000   -2.270000    0.000000
      3          8           0        0.290000    1.690000    0.000000
      4          8           0        0.290000    2.850000    0.000000
 ---------------------------------------------------------------------

 SCF Done:  E(RHF) =  -299.188932474     A.U. after   18 cycles
 E2 =    -0.9191121198D+00 EUMP2 =    -0.30010804459422D+03
 CCSD(T)
 CCSD(T)= -0.30015103765D+03

 The electronic state is 1-A'.
 Alpha  occ. eigenvalues --  -20.72926 -20.72858 -20.72810 -20.72741  -1.69855
 Alpha  occ. eigenvalues --   -1.69795  -1.08546  -1.08474  -0.78631  -0.78572
 Alpha  occ. eigenvalues --   -0.75181  -0.75077  -0.67383  -0.67322  -0.44800
 Alpha  occ. eigenvalues --   -0.44738
 Alpha virt. eigenvalues --    0.04974   0.05040   0.42546   0.43532   0.67418
 Alpha virt. eigenvalues --    0.70228   0.70586   0.70814   0.72566   0.75002
 Alpha virt. eigenvalues --    0.79686   0.80325   0.82289   0.82920   0.84759

 Mulliken charges:
               1
     1  O   -0.000342
     2  O    0.000502
     3  O    0.000840
     4  O   -0.001000
 Sum of Mulliken charges =  -0.00000

 Dipole moment (field-independent basis, Debye):
    X=              0.0018    Y=             -0.0114    Z=              0.0000  Tot=              0.0116
 Quadrupole moment (field-independent basis, Debye-Ang):
   XX=            -19.5543   YY=            -21.2233   ZZ=            -19.7595
   XY=             -0.0086   XZ=              0.0000   YZ=              0.0000

 4SDQ=-300.1135596\CCSD=-300.1101617\CCSD(T)=-300.1510377\RMSD=5.300e-0
 Normal termination of Gaussian 16 at Fri Feb  9 20:40:55 2024.
