 Gaussian 16, Revision A.03,
 Gaussian 16:  ES64L-G16RevA.03 25-Dec-2016

 ------------------
 #p CCSD(T)/cc-pVTZ
 ------------------

 ---------
 O2_O2_247
 ---------
 Symbolic Z-matrix:
 Charge =  0 Multiplicity = 1

                         Standard orientation:
 ---------------------------------------------------------------------
 Center     Atomic      Atomic             Coordinates (Angstroms)
 Number     Number       Type             X           Y           Z
 ---------------------------------------------------------------------
      1          8           0        0.615183   -3.045183    0.000000
      2          8           0       -0.205061   -2.224939   -0.000000
      3          8           0       -0.205061    2.055061   -0.000000
      4          8           0       -0.205061    3.215061   -0.000000
 ---------------------------------------------------------------------

 SCF Done:  E(RHF) =  -299.188902382     A.U. after   17 cycles
 E2 =    -0.9190269163D+00 EUMP2 =    -0.30010792929856D+03
 CCSD(T)
 CCSD(T)= -0.30015092544D+03

 The electronic state is 1-A'.
 Alpha  occ. eigenvalues --  -20.72930 -20.72890 -20.72814 -20.72774  -1.69862
 Alpha  occ. eigenvalues --   -1.69827  -1.08550  -1.08507  -0.78638  -0.78603
 Alpha  occ. eigenvalues --   -0.75183  -0.75113  -0.67390  -0.67355  -0.44805
 Alpha  occ. eigenvalues --   -0.44770
 Alpha virt. eigenvalues --    0.04970   0.05007   0.41484   0.44908   0.69845
 Alpha virt. eigenvalues --    0.70408   0.70601   0.70618   0.71456   0.73842
 Alpha virt. eigenvalues --    0.78983   0.80631   0.82233   0.83482   0.84763

 Mulliken charges:
               1
     1  O   -0.000316
     2  O    0.000404
     3  O    0.000601
     4  O   -0.000690
 Sum of Mulliken charges =  -0.00000

 Dipole moment (field-independent basis, Debye):
    X=             -0.0008    Y=             -0.0063    Z=              0.0000  Tot=              0.0063
 Quadrupole moment (field-independent basis, Debye-Ang):
   XX=            -19.6565   YY=            -21.1196   ZZ=            -19.7593
   XY=             -0.0968   XZ=             -0.0000   YZ=             -0.0000

 P4DQ=-300.1007721\MP4SDQ=-300.1134594\CCSD=-300.1100596\CCSD(T)=-300.1
 Normal termination of Gaussian 16 at Fri Feb  9 20:57:30 2024.
