 Gaussian 16, Revision A.03,
 Gaussian 16:  ES64L-G16RevA.03 25-Dec-2016

 ------------------
 #p CCSD(T)/cc-pVTZ
 ------------------

 ---------
 O2_O2_114
 ---------
 Symbolic Z-matrix:
 Charge =  0 Multiplicity = 1

                         Standard orientation:
 ---------------------------------------------------------------------
 Center     Atomic      Atomic             Coordinates (Angstroms)
 Number     Number       Type             X           Y           Z
 ---------------------------------------------------------------------
      1          8           0        0.000000    0.000000    2.420000
      2          8           0        0.000000    0.000000    1.260000
      3          8           0        0.000000    0.000000   -1.260000
      4          8           0        0.000000    0.000000   -2.420000
 ---------------------------------------------------------------------

 SCF Done:  E(RHF) =  -298.867885062     A.U. after   10 cycles
 E2 =    -0.1806229318D+01 EUMP2 =    -0.30067411437940D+03
 CCSD(T)
 CCSD(T)= -0.30023654755D+03

 The electronic state is 1-SGG.
 Alpha  occ. eigenvalues --  -20.78979 -20.78976 -20.75192 -20.75191  -1.72549
 Alpha  occ. eigenvalues --   -1.72358  -1.11790  -1.09439  -0.78913  -0.75580
 Alpha  occ. eigenvalues --   -0.75366  -0.75366  -0.74137  -0.74137  -0.29283
 Alpha  occ. eigenvalues --   -0.29283
 Alpha virt. eigenvalues --   -0.12533  -0.12533   0.41947   0.48963   0.66229
 Alpha virt. eigenvalues --    0.66229   0.68564   0.71463   0.71463   0.75978
 Alpha virt. eigenvalues --    0.78384   0.78384   0.81320   0.85144   0.86684

 Mulliken charges:
               1
     1  O   -0.043464
     2  O    0.043464
     3  O    0.043464
     4  O   -0.043464
 Sum of Mulliken charges =  -0.00000

 Dipole moment (field-independent basis, Debye):
    X=             -0.0000    Y=             -0.0000    Z=             -0.0000  Tot=              0.0000
 Quadrupole moment (field-independent basis, Debye-Ang):
   XX=            -20.1916   YY=            -20.1916   ZZ=            -21.9084
   XY=              0.0000   XZ=              0.0000   YZ=              0.0000

 P4SDQ=-300.54792\CCSD=-300.0380038\CCSD(T)=-300.2365476\RMSD=2.512e-09
 Normal termination of Gaussian 16 at Fri Feb  9 19:18:14 2024.
