 Gaussian 16, Revision A.03,
 Gaussian 16:  ES64L-G16RevA.03 25-Dec-2016

 ------------------
 #p CCSD(T)/cc-pVTZ
 ------------------

 ---------
 O2_O2_288
 ---------
 Symbolic Z-matrix:
 Charge =  0 Multiplicity = 1

                         Standard orientation:
 ---------------------------------------------------------------------
 Center     Atomic      Atomic             Coordinates (Angstroms)
 Number     Number       Type             X           Y           Z
 ---------------------------------------------------------------------
      1          8           0        0.000000    0.000000    3.580000
      2          8           0        0.000000    0.000000    2.420000
      3          8           0        0.000000    0.000000   -2.420000
      4          8           0        0.000000    0.000000   -3.580000
 ---------------------------------------------------------------------

 SCF Done:  E(RHF) =  -298.779298055     A.U. after   10 cycles
 E2 =    -0.2890089044D+01 EUMP2 =    -0.30166938709891D+03
 CCSD(T)
 CCSD(T)= -0.30031438076D+03

 The electronic state is 1-SGG.
 Alpha  occ. eigenvalues --  -20.76602 -20.76602 -20.75697 -20.75696  -1.71772
 Alpha  occ. eigenvalues --   -1.71767  -1.10096  -1.10022  -0.76802  -0.76777
 Alpha  occ. eigenvalues --   -0.74327  -0.74327  -0.74143  -0.74143  -0.25111
 Alpha  occ. eigenvalues --   -0.25111
 Alpha virt. eigenvalues --   -0.16088  -0.16088   0.41878   0.43466   0.69822
 Alpha virt. eigenvalues --    0.69822   0.69856   0.69856   0.71546   0.72566
 Alpha virt. eigenvalues --    0.77973   0.78912   0.82725   0.82725   0.82823

 Mulliken charges:
               1
     1  O   -0.011280
     2  O    0.011280
     3  O    0.011280
     4  O   -0.011280
 Sum of Mulliken charges =  -0.00000

 Dipole moment (field-independent basis, Debye):
    X=             -0.0000    Y=             -0.0000    Z=              0.0000  Tot=              0.0000
 Quadrupole moment (field-independent basis, Debye-Ang):
   XX=            -20.0733   YY=            -20.0733   ZZ=            -21.9595
   XY=              0.0000   XZ=              0.0000   YZ=              0.0000

 SDQ=-318.067758\CCSD=-300.0241261\CCSD(T)=-300.3143808\RMSD=1.716e-09\
 Normal termination of Gaussian 16 at Fri Feb  9 21:28:17 2024.
