 Gaussian 16, Revision A.03,
 Gaussian 16:  ES64L-G16RevA.03 25-Dec-2016

 ------------------
 #p CCSD(T)/cc-pVTZ
 ------------------

 ---------
 O2_O2_122
 ---------
 Symbolic Z-matrix:
 Charge =  0 Multiplicity = 1

                         Standard orientation:
 ---------------------------------------------------------------------
 Center     Atomic      Atomic             Coordinates (Angstroms)
 Number     Number       Type             X           Y           Z
 ---------------------------------------------------------------------
      1          8           0       -0.870000   -1.590000    0.000000
      2          8           0        0.290000   -1.590000    0.000000
      3          8           0        0.290000    1.010000    0.000000
      4          8           0        0.290000    2.170000    0.000000
 ---------------------------------------------------------------------

 SCF Done:  E(RHF) =  -299.186391681     A.U. after   26 cycles
 E2 =    -0.9209834486D+00 EUMP2 =    -0.30010737512925D+03
 CCSD(T)
 CCSD(T)= -0.30015018427D+03

 The electronic state is 1-A'.
 Alpha  occ. eigenvalues --  -20.72905 -20.72747 -20.72586 -20.72464  -1.69900
 Alpha  occ. eigenvalues --   -1.69538  -1.08814  -1.08098  -0.79263  -0.78369
 Alpha  occ. eigenvalues --   -0.75435  -0.73965  -0.67368  -0.67119  -0.44792
 Alpha  occ. eigenvalues --   -0.44520
 Alpha virt. eigenvalues --    0.04981   0.05251   0.42633   0.45872   0.66354
 Alpha virt. eigenvalues --    0.66736   0.69068   0.72735   0.72872   0.76673
 Alpha virt. eigenvalues --    0.77670   0.79705   0.82558   0.83000   0.86894

 Mulliken charges:
               1
     1  O   -0.002427
     2  O    0.003932
     3  O    0.006171
     4  O   -0.007676
 Sum of Mulliken charges =   0.00000

 Dipole moment (field-independent basis, Debye):
    X=              0.0250    Y=             -0.0367    Z=              0.0000  Tot=              0.0444
 Quadrupole moment (field-independent basis, Debye-Ang):
   XX=            -19.5719   YY=            -21.4116   ZZ=            -19.7631
   XY=             -0.0390   XZ=              0.0000   YZ=              0.0000

 SDQ=-300.1125207\CCSD=-300.1090723\CCSD(T)=-300.1501843\RMSD=2.143e-09
 Normal termination of Gaussian 16 at Fri Feb  9 19:24:17 2024.
