 Gaussian 16, Revision A.03,
 Gaussian 16:  ES64L-G16RevA.03 25-Dec-2016

 ------------------
 #p CCSD(T)/cc-pVTZ
 ------------------

 ---------
 O2_O2_156
 ---------
 Symbolic Z-matrix:
 Charge =  0 Multiplicity = 1

                         Standard orientation:
 ---------------------------------------------------------------------
 Center     Atomic      Atomic             Coordinates (Angstroms)
 Number     Number       Type             X           Y           Z
 ---------------------------------------------------------------------
      1          8           0        0.000000    0.000000    2.700000
      2          8           0        0.000000    0.000000    1.540000
      3          8           0        0.000000    0.000000   -1.540000
      4          8           0        0.000000    0.000000   -2.700000
 ---------------------------------------------------------------------

 SCF Done:  E(RHF) =  -298.829259939     A.U. after   10 cycles
 E2 =    -0.2087491303D+01 EUMP2 =    -0.30091675124158D+03
 CCSD(T)
 CCSD(T)= -0.30026953214D+03

 The electronic state is 1-SGG.
 Alpha  occ. eigenvalues --  -20.77735 -20.77733 -20.75426 -20.75425  -1.72107
 Alpha  occ. eigenvalues --   -1.72053  -1.10651  -1.09936  -0.77541  -0.76506
 Alpha  occ. eigenvalues --   -0.74795  -0.74795  -0.74157  -0.74157  -0.27531
 Alpha  occ. eigenvalues --   -0.27531
 Alpha virt. eigenvalues --   -0.13975  -0.13975   0.37525   0.48737   0.65118
 Alpha virt. eigenvalues --    0.68182   0.68182   0.70746   0.70746   0.75917
 Alpha virt. eigenvalues --    0.78409   0.79755   0.79755   0.86098   0.86751

 Mulliken charges:
               1
     1  O   -0.023255
     2  O    0.023255
     3  O    0.023255
     4  O   -0.023255
 Sum of Mulliken charges =  -0.00000

 Dipole moment (field-independent basis, Debye):
    X=             -0.0000    Y=             -0.0000    Z=              0.0000  Tot=              0.0000
 Quadrupole moment (field-independent basis, Debye-Ang):
   XX=            -20.1283   YY=            -20.1283   ZZ=            -21.9670
   XY=              0.0000   XZ=              0.0000   YZ=              0.0000

 4SDQ=-302.0711544\CCSD=-300.0302079\CCSD(T)=-300.2695321\RMSD=2.167e-0
 Normal termination of Gaussian 16 at Fri Feb  9 19:49:19 2024.
