 Gaussian 16, Revision A.03,
 Gaussian 16:  ES64L-G16RevA.03 25-Dec-2016

 ------------------
 #p CCSD(T)/cc-pVTZ
 ------------------

 ---------
 O2_O2_124
 ---------
 Symbolic Z-matrix:
 Charge =  0 Multiplicity = 1

                         Standard orientation:
 ---------------------------------------------------------------------
 Center     Atomic      Atomic             Coordinates (Angstroms)
 Number     Number       Type             X           Y           Z
 ---------------------------------------------------------------------
      1          8           0        0.615183   -2.225183    0.000000
      2          8           0       -0.205061   -1.404939    0.000000
      3          8           0       -0.205061    1.235061   -0.000000
      4          8           0       -0.205061    2.395061   -0.000000
 ---------------------------------------------------------------------

 SCF Done:  E(RHF) =  -299.187507897     A.U. after   22 cycles
 E2 =    -0.9208268618D+00 EUMP2 =    -0.30010833475841D+03
 CCSD(T)
 CCSD(T)= -0.30015095553D+03

 The electronic state is 1-A'.
 Alpha  occ. eigenvalues --  -20.73056 -20.72939 -20.72782 -20.72648  -1.70016
 Alpha  occ. eigenvalues --   -1.69719  -1.09281  -1.07937  -0.78782  -0.78508
 Alpha  occ. eigenvalues --   -0.76323  -0.74121  -0.67528  -0.67177  -0.44952
 Alpha  occ. eigenvalues --   -0.44671
 Alpha virt. eigenvalues --    0.04820   0.05174   0.41965   0.48056   0.66785
 Alpha virt. eigenvalues --    0.67505   0.68321   0.72185   0.72838   0.77108
 Alpha virt. eigenvalues --    0.79516   0.79963   0.80725   0.86534   0.87607

 Mulliken charges:
               1
     1  O   -0.001765
     2  O    0.001247
     3  O    0.003108
     4  O   -0.002590
 Sum of Mulliken charges =  -0.00000

 Dipole moment (field-independent basis, Debye):
    X=             -0.0188    Y=              0.0369    Z=             -0.0000  Tot=              0.0414
 Quadrupole moment (field-independent basis, Debye-Ang):
   XX=            -20.4749   YY=            -20.3168   ZZ=            -19.7609
   XY=              0.7144   XZ=             -0.0000   YZ=              0.0000

 P4DQ=-300.1006684\MP4SDQ=-300.1134198\CCSD=-300.109914\CCSD(T)=-300.15
 Normal termination of Gaussian 16 at Fri Feb  9 19:25:42 2024.
