 Gaussian 16, Revision A.03,
 Gaussian 16:  ES64L-G16RevA.03 25-Dec-2016

 ------------------
 #p CCSD(T)/cc-pVTZ
 ------------------

 ---------
 O2_O2_143
 ---------
 Symbolic Z-matrix:
 Charge =  0 Multiplicity = 1

                         Standard orientation:
 ---------------------------------------------------------------------
 Center     Atomic      Atomic             Coordinates (Angstroms)
 Number     Number       Type             X           Y           Z
 ---------------------------------------------------------------------
      1          8           0       -0.870000   -1.730000    0.000000
      2          8           0        0.290000   -1.730000    0.000000
      3          8           0        0.290000    1.150000    0.000000
      4          8           0        0.290000    2.310000    0.000000
 ---------------------------------------------------------------------

 SCF Done:  E(RHF) =  -299.188402523     A.U. after   21 cycles
 E2 =    -0.9201470478D+00 EUMP2 =    -0.30010854957076D+03
 CCSD(T)
 CCSD(T)= -0.30015145890D+03

 The electronic state is 1-A'.
 Alpha  occ. eigenvalues --  -20.72917 -20.72797 -20.72709 -20.72586  -1.69860
 Alpha  occ. eigenvalues --   -1.69653  -1.08640  -1.08270  -0.78855  -0.78446
 Alpha  occ. eigenvalues --   -0.75358  -0.74533  -0.67369  -0.67194  -0.44797
 Alpha  occ. eigenvalues --   -0.44605
 Alpha virt. eigenvalues --    0.04981   0.05163   0.42129   0.44491   0.64498
 Alpha virt. eigenvalues --    0.67764   0.68913   0.72355   0.72776   0.76934
 Alpha virt. eigenvalues --    0.78790   0.80362   0.81087   0.82741   0.85963

 Mulliken charges:
               1
     1  O   -0.001284
     2  O    0.001877
     3  O    0.002230
     4  O   -0.002823
 Sum of Mulliken charges =  -0.00000

 Dipole moment (field-independent basis, Debye):
    X=              0.0133    Y=             -0.0271    Z=              0.0000  Tot=              0.0302
 Quadrupole moment (field-independent basis, Debye-Ang):
   XX=            -19.5646   YY=            -21.3269   ZZ=            -19.7620
   XY=             -0.0261   XZ=              0.0000   YZ=              0.0000

 4SDQ=-300.1138759\CCSD=-300.1104522\CCSD(T)=-300.1514589\RMSD=1.804e-0
 Normal termination of Gaussian 16 at Fri Feb  9 19:39:49 2024.
