 Gaussian 16, Revision A.03,
 Gaussian 16:  ES64L-G16RevA.03 25-Dec-2016

 ------------------
 #p CCSD(T)/cc-pVTZ
 ------------------

 --------
 O2_O2_64
 --------
 Symbolic Z-matrix:
 Charge =  0 Multiplicity = 1

                         Standard orientation:
 ---------------------------------------------------------------------
 Center     Atomic      Atomic             Coordinates (Angstroms)
 Number     Number       Type             X           Y           Z
 ---------------------------------------------------------------------
      1          8           0        0.615183   -1.825183   -0.000000
      2          8           0       -0.205061   -1.004939    0.000000
      3          8           0       -0.205061    0.835061    0.000000
      4          8           0       -0.205061    1.995061    0.000000
 ---------------------------------------------------------------------

 SCF Done:  E(RHF) =  -299.143635342     A.U. after   17 cycles
 E2 =    -0.9326486687D+00 EUMP2 =    -0.30007628401111D+03
 CCSD(T)
 CCSD(T)= -0.30011691635D+03

 The electronic state is 1-A'.
 Alpha  occ. eigenvalues --  -20.72966 -20.72838 -20.72708 -20.71234  -1.70691
 Alpha  occ. eigenvalues --   -1.69132  -1.14629  -1.04827  -0.80506  -0.79222
 Alpha  occ. eigenvalues --   -0.78270  -0.70904  -0.67826  -0.64146  -0.45206
 Alpha  occ. eigenvalues --   -0.44168
 Alpha virt. eigenvalues --    0.04626   0.06365   0.45878   0.49468   0.65826
 Alpha virt. eigenvalues --    0.67053   0.73547   0.73578   0.74015   0.77730
 Alpha virt. eigenvalues --    0.78845   0.81445   0.81527   0.86244   0.95587

 Mulliken charges:
               1
     1  O   -0.027265
     2  O    0.017911
     3  O    0.029842
     4  O   -0.020487
 Sum of Mulliken charges =   0.00000

 Dipole moment (field-independent basis, Debye):
    X=             -0.1252    Y=              0.2142    Z=             -0.0000  Tot=              0.2481
 Quadrupole moment (field-independent basis, Debye-Ang):
   XX=            -20.5510   YY=            -20.9397   ZZ=            -19.7363
   XY=              0.8629   XZ=             -0.0000   YZ=              0.0000

 =-300.0645333\MP4SDQ=-300.0780972\CCSD=-300.0740898\CCSD(T)=-300.11691
 Normal termination of Gaussian 16 at Fri Feb  9 18:37:40 2024.
