 Gaussian 16, Revision A.03,
 Gaussian 16:  ES64L-G16RevA.03 25-Dec-2016

 ------------------
 #p CCSD(T)/cc-pVTZ
 ------------------

 --------
 O2_O2_38
 --------
 Symbolic Z-matrix:
 Charge =  0 Multiplicity = 1

                         Standard orientation:
 ---------------------------------------------------------------------
 Center     Atomic      Atomic             Coordinates (Angstroms)
 Number     Number       Type             X           Y           Z
 ---------------------------------------------------------------------
      1          8           0       -0.870000   -1.030000    0.000000
      2          8           0        0.290000   -1.030000    0.000000
      3          8           0        0.290000    0.450000    0.000000
      4          8           0        0.290000    1.610000    0.000000
 ---------------------------------------------------------------------

 SCF Done:  E(RHF) =  -298.980337999     A.U. after   18 cycles
 E2 =    -0.9631281823D+00 EUMP2 =    -0.29994346618140D+03
 CCSD(T)
 CCSD(T)= -0.30000306632D+03

 The electronic state is 1-A'.
 Alpha  occ. eigenvalues --  -20.75584 -20.75559 -20.75444 -20.63313  -1.76515
 Alpha  occ. eigenvalues --   -1.68385  -1.21249  -1.04814  -0.85677  -0.81905
 Alpha  occ. eigenvalues --   -0.80125  -0.72731  -0.68832  -0.52384  -0.46673
 Alpha  occ. eigenvalues --   -0.41972
 Alpha virt. eigenvalues --    0.01845   0.08384   0.43794   0.47308   0.63472
 Alpha virt. eigenvalues --    0.66733   0.69390   0.71527   0.75323   0.75572
 Alpha virt. eigenvalues --    0.81587   0.83093   0.84916   0.88832   0.89183

 Mulliken charges:
               1
     1  O   -0.179906
     2  O    0.089297
     3  O    0.100595
     4  O   -0.009985
 Sum of Mulliken charges =  -0.00000

 Dipole moment (field-independent basis, Debye):
    X=              1.1224    Y=              0.9729    Z=              0.0000  Tot=              1.4854
 Quadrupole moment (field-independent basis, Debye-Ang):
   XX=            -21.6447   YY=            -20.6830   ZZ=            -19.5838
   XY=             -0.9792   XZ=              0.0000   YZ=              0.0000

 DQ=-299.9384251\CCSD=-299.9417927\CCSD(T)=-300.0030663\RMSD=7.242e-09\
 Normal termination of Gaussian 16 at Fri Feb  9 18:16:22 2024.
