 Gaussian 16, Revision A.03,
 Gaussian 16:  ES64L-G16RevA.03 25-Dec-2016

 ------------------
 #p CCSD(T)/cc-pVTZ
 ------------------

 ---------
 O2_O2_135
 ---------
 Symbolic Z-matrix:
 Charge =  0 Multiplicity = 1

                         Standard orientation:
 ---------------------------------------------------------------------
 Center     Atomic      Atomic             Coordinates (Angstroms)
 Number     Number       Type             X           Y           Z
 ---------------------------------------------------------------------
      1          8           0        0.000000    0.000000    2.560000
      2          8           0        0.000000    0.000000    1.400000
      3          8           0        0.000000    0.000000   -1.400000
      4          8           0        0.000000    0.000000   -2.560000
 ---------------------------------------------------------------------

 SCF Done:  E(RHF) =  -298.846084845     A.U. after   10 cycles
 E2 =    -0.1948302990D+01 EUMP2 =    -0.30079438783588D+03
 CCSD(T)
 CCSD(T)= -0.30025472812D+03

 The electronic state is 1-SGG.
 Alpha  occ. eigenvalues --  -20.78273 -20.78270 -20.75350 -20.75349  -1.72296
 Alpha  occ. eigenvalues --   -1.72199  -1.11062  -1.09789  -0.78069  -0.76204
 Alpha  occ. eigenvalues --   -0.75033  -0.75033  -0.74168  -0.74168  -0.28300
 Alpha  occ. eigenvalues --   -0.28300
 Alpha virt. eigenvalues --   -0.13357  -0.13357   0.39608   0.48907   0.66197
 Alpha virt. eigenvalues --    0.67212   0.67212   0.71100   0.71100   0.75916
 Alpha virt. eigenvalues --    0.78883   0.78883   0.79464   0.85694   0.86883

 Mulliken charges:
               1
     1  O   -0.030884
     2  O    0.030884
     3  O    0.030884
     4  O   -0.030884
 Sum of Mulliken charges =   0.00000

 Dipole moment (field-independent basis, Debye):
    X=             -0.0000    Y=              0.0000    Z=              0.0000  Tot=              0.0000
 Quadrupole moment (field-independent basis, Debye-Ang):
   XX=            -20.1569   YY=            -20.1569   ZZ=            -21.9177
   XY=              0.0000   XZ=              0.0000   YZ=              0.0000

 4SDQ=-301.1446467\CCSD=-300.0333451\CCSD(T)=-300.2547281\RMSD=2.322e-0
 Normal termination of Gaussian 16 at Fri Feb  9 19:33:41 2024.
