 Gaussian 16, Revision A.03,
 Gaussian 16:  ES64L-G16RevA.03 25-Dec-2016

 ------------------
 #p CCSD(T)/cc-pVTZ
 ------------------

 ---------
 O2_O2_132
 ---------
 Symbolic Z-matrix:
 Charge =  0 Multiplicity = 1

                         Standard orientation:
 ---------------------------------------------------------------------
 Center     Atomic      Atomic             Coordinates (Angstroms)
 Number     Number       Type             X           Y           Z
 ---------------------------------------------------------------------
      1          8           0        0.000000    0.000000    2.540000
      2          8           0        0.000000    0.000000    1.380000
      3          8           0        0.000000    0.000000   -1.380000
      4          8           0        0.000000    0.000000   -2.540000
 ---------------------------------------------------------------------

 SCF Done:  E(RHF) =  -298.848873989     A.U. after   10 cycles
 E2 =    -0.1928149279D+01 EUMP2 =    -0.30077702326771D+03
 CCSD(T)
 CCSD(T)= -0.30025233491D+03

 The electronic state is 1-SGG.
 Alpha  occ. eigenvalues --  -20.78363 -20.78361 -20.75334 -20.75333  -1.72328
 Alpha  occ. eigenvalues --   -1.72221  -1.11142  -1.09754  -0.78168  -0.76140
 Alpha  occ. eigenvalues --   -0.75074  -0.75074  -0.74168  -0.74168  -0.28425
 Alpha  occ. eigenvalues --   -0.28425
 Alpha virt. eigenvalues --   -0.13254  -0.13254   0.39947   0.48919   0.66460
 Alpha virt. eigenvalues --    0.67064   0.67064   0.71152   0.71152   0.75915
 Alpha virt. eigenvalues --    0.78783   0.78783   0.79664   0.85624   0.86857

 Mulliken charges:
               1
     1  O   -0.032325
     2  O    0.032325
     3  O    0.032325
     4  O   -0.032325
 Sum of Mulliken charges =   0.00000

 Dipole moment (field-independent basis, Debye):
    X=             -0.0000    Y=              0.0000    Z=             -0.0000  Tot=              0.0000
 Quadrupole moment (field-independent basis, Debye-Ang):
   XX=            -20.1616   YY=            -20.1616   ZZ=            -21.9123
   XY=              0.0000   XZ=              0.0000   YZ=              0.0000

 SDQ=-301.0404635\CCSD=-300.0339095\CCSD(T)=-300.2523349\RMSD=2.345e-09
 Normal termination of Gaussian 16 at Fri Feb  9 19:31:30 2024.
