 Gaussian 16, Revision A.03,
 Gaussian 16:  ES64L-G16RevA.03 25-Dec-2016

 ------------------
 #p CCSD(T)/cc-pVTZ
 ------------------

 ---------
 O2_O2_293
 ---------
 Symbolic Z-matrix:
 Charge =  0 Multiplicity = 1

                         Standard orientation:
 ---------------------------------------------------------------------
 Center     Atomic      Atomic             Coordinates (Angstroms)
 Number     Number       Type             X           Y           Z
 ---------------------------------------------------------------------
      1          8           0       -0.870000   -2.730000    0.000000
      2          8           0        0.290000   -2.730000    0.000000
      3          8           0        0.290000    2.150000    0.000000
      4          8           0        0.290000    3.310000    0.000000
 ---------------------------------------------------------------------

 SCF Done:  E(RHF) =  -299.188873897     A.U. after   18 cycles
 E2 =    -0.9189575806D+00 EUMP2 =    -0.30010783147774D+03
 CCSD(T)
 CCSD(T)= -0.30015084729D+03

 The electronic state is 1-A'.
 Alpha  occ. eigenvalues --  -20.72930 -20.72901 -20.72814 -20.72785  -1.69863
 Alpha  occ. eigenvalues --   -1.69836  -1.08552  -1.08521  -0.78639  -0.78613
 Alpha  occ. eigenvalues --   -0.75174  -0.75140  -0.67392  -0.67364  -0.44809
 Alpha  occ. eigenvalues --   -0.44780
 Alpha virt. eigenvalues --    0.04966   0.04996   0.43249   0.43374   0.70316
 Alpha virt. eigenvalues --    0.70436   0.70581   0.70606   0.72554   0.72697
 Alpha virt. eigenvalues --    0.79919   0.80008   0.82239   0.82247   0.84727

 Mulliken charges:
               1
     1  O   -0.000181
     2  O    0.000186
     3  O    0.000586
     4  O   -0.000591
 Sum of Mulliken charges =  -0.00000

 Dipole moment (field-independent basis, Debye):
    X=              0.0010    Y=             -0.0043    Z=              0.0000  Tot=              0.0044
 Quadrupole moment (field-independent basis, Debye-Ang):
   XX=            -19.5527   YY=            -21.2116   ZZ=            -19.7590
   XY=             -0.0050   XZ=              0.0000   YZ=              0.0000

 4SDQ=-300.1133817\CCSD=-300.1099882\CCSD(T)=-300.1508473\RMSD=6.841e-0
 Normal termination of Gaussian 16 at Fri Feb  9 21:31:51 2024.
