 Gaussian 16, Revision A.03,
 Gaussian 16:  ES64L-G16RevA.03 25-Dec-2016

 ------------------
 #p CCSD(T)/cc-pVTZ
 ------------------

 ---------
 O2_O2_254
 ---------
 Symbolic Z-matrix:
 Charge =  0 Multiplicity = 1

                         Standard orientation:
 ---------------------------------------------------------------------
 Center     Atomic      Atomic             Coordinates (Angstroms)
 Number     Number       Type             X           Y           Z
 ---------------------------------------------------------------------
      1          8           0       -0.870000   -2.470000    0.000000
      2          8           0        0.290000   -2.470000    0.000000
      3          8           0        0.290000    1.890000    0.000000
      4          8           0        0.290000    3.050000    0.000000
 ---------------------------------------------------------------------

 SCF Done:  E(RHF) =  -299.188894536     A.U. after   18 cycles
 E2 =    -0.9190128296D+00 EUMP2 =    -0.30010790736524D+03
 CCSD(T)
 CCSD(T)= -0.30015091408D+03

 The electronic state is 1-A'.
 Alpha  occ. eigenvalues --  -20.72926 -20.72881 -20.72810 -20.72764  -1.69857
 Alpha  occ. eigenvalues --   -1.69817  -1.08548  -1.08499  -0.78633  -0.78594
 Alpha  occ. eigenvalues --   -0.75172  -0.75115  -0.67386  -0.67345  -0.44803
 Alpha  occ. eigenvalues --   -0.44760
 Alpha virt. eigenvalues --    0.04971   0.05017   0.43053   0.43461   0.69387
 Alpha virt. eigenvalues --    0.70402   0.70623   0.70636   0.72557   0.73502
 Alpha virt. eigenvalues --    0.79841   0.80149   0.82265   0.82425   0.84735

 Mulliken charges:
               1
     1  O   -0.000262
     2  O    0.000308
     3  O    0.000780
     4  O   -0.000826
 Sum of Mulliken charges =  -0.00000

 Dipole moment (field-independent basis, Debye):
    X=              0.0014    Y=             -0.0071    Z=              0.0000  Tot=              0.0073
 Quadrupole moment (field-independent basis, Debye-Ang):
   XX=            -19.5534   YY=            -21.2183   ZZ=            -19.7592
   XY=             -0.0067   XZ=              0.0000   YZ=              0.0000

 4SDQ=-300.1134439\CCSD=-300.1100492\CCSD(T)=-300.1509141\RMSD=3.941e-0
 Normal termination of Gaussian 16 at Fri Feb  9 21:04:03 2024.
