 Gaussian 16, Revision A.03,
 Gaussian 16:  ES64L-G16RevA.03 25-Dec-2016

 ------------------
 #p CCSD(T)/cc-pVTZ
 ------------------

 ---------
 O2_O2_210
 ---------
 Symbolic Z-matrix:
 Charge =  0 Multiplicity = 1

                         Standard orientation:
 ---------------------------------------------------------------------
 Center     Atomic      Atomic             Coordinates (Angstroms)
 Number     Number       Type             X           Y           Z
 ---------------------------------------------------------------------
      1          8           0        0.000000    0.000000    3.060000
      2          8           0        0.000000    0.000000    1.900000
      3          8           0        0.000000    0.000000   -1.900000
      4          8           0        0.000000    0.000000   -3.060000
 ---------------------------------------------------------------------

 SCF Done:  E(RHF) =  -298.801332778     A.U. after   10 cycles
 E2 =    -0.2428206620D+01 EUMP2 =    -0.30122953939825D+03
 CCSD(T)
 CCSD(T)= -0.30029481478D+03

 The electronic state is 1-SGG.
 Alpha  occ. eigenvalues --  -20.76963 -20.76962 -20.75537 -20.75536  -1.71850
 Alpha  occ. eigenvalues --   -1.71834  -1.10218  -1.10009  -0.76956  -0.76731
 Alpha  occ. eigenvalues --   -0.74467  -0.74467  -0.74119  -0.74119  -0.26200
 Alpha  occ. eigenvalues --   -0.26200
 Alpha virt. eigenvalues --   -0.15071  -0.15071   0.37318   0.46956   0.67028
 Alpha virt. eigenvalues --    0.69502   0.69502   0.70088   0.70088   0.75084
 Alpha virt. eigenvalues --    0.77243   0.81890   0.81890   0.83690   0.83690

 Mulliken charges:
               1
     1  O   -0.016012
     2  O    0.016012
     3  O    0.016012
     4  O   -0.016012
 Sum of Mulliken charges =  -0.00000

 Dipole moment (field-independent basis, Debye):
    X=             -0.0000    Y=             -0.0000    Z=              0.0000  Tot=              0.0000
 Quadrupole moment (field-independent basis, Debye-Ang):
   XX=            -20.0867   YY=            -20.0867   ZZ=            -22.0311
   XY=              0.0000   XZ=              0.0000   YZ=              0.0000

 4SDQ=-306.2726719\CCSD=-300.026206\CCSD(T)=-300.2948148\RMSD=1.851e-09
 Normal termination of Gaussian 16 at Fri Feb  9 20:30:31 2024.
