 Gaussian 16, Revision A.03,
 Gaussian 16:  ES64L-G16RevA.03 25-Dec-2016

 ------------------
 #p CCSD(T)/cc-pVTZ
 ------------------

 --------
 O2_O2_46
 --------
 Symbolic Z-matrix:
 Charge =  0 Multiplicity = 1

                         Standard orientation:
 ---------------------------------------------------------------------
 Center     Atomic      Atomic             Coordinates (Angstroms)
 Number     Number       Type             X           Y           Z
 ---------------------------------------------------------------------
      1          8           0        0.615183   -1.705183    0.000000
      2          8           0       -0.205061   -0.884939    0.000000
      3          8           0       -0.205061    0.715061   -0.000000
      4          8           0       -0.205061    1.875061   -0.000000
 ---------------------------------------------------------------------

 SCF Done:  E(RHF) =  -299.078751867     A.U. after   17 cycles
 E2 =    -0.9476048167D+00 EUMP2 =    -0.30002635668326D+03
 CCSD(T)
 CCSD(T)= -0.30007020973D+03

 The electronic state is 1-A'.
 Alpha  occ. eigenvalues --  -20.73816 -20.73705 -20.73026 -20.69163  -1.72106
 Alpha  occ. eigenvalues --   -1.68769  -1.20697  -1.02686  -0.82634  -0.80431
 Alpha  occ. eigenvalues --   -0.78646  -0.70390  -0.68435  -0.59306  -0.45804
 Alpha  occ. eigenvalues --   -0.43614
 Alpha virt. eigenvalues --    0.04089   0.07456   0.46784   0.50052   0.65960
 Alpha virt. eigenvalues --    0.67280   0.71735   0.74141   0.74179   0.76552
 Alpha virt. eigenvalues --    0.79168   0.81459   0.83213   0.85957   0.95827

 Mulliken charges:
               1
     1  O   -0.074604
     2  O    0.050678
     3  O    0.053712
     4  O   -0.029785
 Sum of Mulliken charges =  -0.00000

 Dipole moment (field-independent basis, Debye):
    X=             -0.2672    Y=              0.4966    Z=             -0.0000  Tot=              0.5639
 Quadrupole moment (field-independent basis, Debye-Ang):
   XX=            -20.6863   YY=            -21.6262   ZZ=            -19.6813
   XY=              1.0752   XZ=             -0.0000   YZ=              0.0000

 4DQ=-300.0088213\MP4SDQ=-300.0244046\CCSD=-300.0214537\CCSD(T)=-300.07
 Normal termination of Gaussian 16 at Fri Feb  9 18:22:49 2024.
