 Gaussian 16, Revision A.03,
 Gaussian 16:  ES64L-G16RevA.03 25-Dec-2016

 ------------------
 #p CCSD(T)/cc-pVTZ
 ------------------

 ---------
 O2_O2_301
 ---------
 Symbolic Z-matrix:
 Charge =  0 Multiplicity = 1

                         Standard orientation:
 ---------------------------------------------------------------------
 Center     Atomic      Atomic             Coordinates (Angstroms)
 Number     Number       Type             X           Y           Z
 ---------------------------------------------------------------------
      1          8           0        0.615183   -3.405183    0.000000
      2          8           0       -0.205061   -2.584939    0.000000
      3          8           0       -0.205061    2.415061    0.000000
      4          8           0       -0.205061    3.575061    0.000000
 ---------------------------------------------------------------------

 SCF Done:  E(RHF) =  -299.188868701     A.U. after   18 cycles
 E2 =    -0.9189510098D+00 EUMP2 =    -0.30010781971073D+03
 CCSD(T)
 CCSD(T)= -0.30015083424D+03

 The electronic state is 1-A'.
 Alpha  occ. eigenvalues --  -20.72933 -20.72915 -20.72817 -20.72799  -1.69867
 Alpha  occ. eigenvalues --   -1.69851  -1.08554  -1.08535  -0.78644  -0.78627
 Alpha  occ. eigenvalues --   -0.75176  -0.75154  -0.67396  -0.67379  -0.44812
 Alpha  occ. eigenvalues --   -0.44795
 Alpha virt. eigenvalues --    0.04963   0.04981   0.42950   0.43663   0.70401
 Alpha virt. eigenvalues --    0.70426   0.70575   0.70589   0.72358   0.72788
 Alpha virt. eigenvalues --    0.79747   0.80148   0.82234   0.82257   0.84726

 Mulliken charges:
               1
     1  O   -0.000265
     2  O    0.000268
     3  O    0.000444
     4  O   -0.000447
 Sum of Mulliken charges =  -0.00000

 Dipole moment (field-independent basis, Debye):
    X=             -0.0007    Y=             -0.0023    Z=             -0.0000  Tot=              0.0024
 Quadrupole moment (field-independent basis, Debye-Ang):
   XX=            -19.6559   YY=            -21.1092   ZZ=            -19.7590
   XY=             -0.0988   XZ=             -0.0000   YZ=              0.0000

 P4DQ=-300.1006866\MP4SDQ=-300.1133707\CCSD=-300.1099756\CCSD(T)=-300.1
 Normal termination of Gaussian 16 at Fri Feb  9 21:37:27 2024.
