 Gaussian 16, Revision A.03,
 Gaussian 16:  ES64L-G16RevA.03 25-Dec-2016

 ------------------
 #p CCSD(T)/cc-pVTZ
 ------------------

 ---------
 O2_O2_173
 ---------
 Symbolic Z-matrix:
 Charge =  0 Multiplicity = 1

                         Standard orientation:
 ---------------------------------------------------------------------
 Center     Atomic      Atomic             Coordinates (Angstroms)
 Number     Number       Type             X           Y           Z
 ---------------------------------------------------------------------
      1          8           0       -0.870000   -1.930000    0.000000
      2          8           0        0.290000   -1.930000    0.000000
      3          8           0        0.290000    1.350000    0.000000
      4          8           0        0.290000    2.510000    0.000000
 ---------------------------------------------------------------------

 SCF Done:  E(RHF) =  -299.188972070     A.U. after   18 cycles
 E2 =    -0.9195346595D+00 EUMP2 =    -0.30010850672944D+03
 CCSD(T)
 CCSD(T)= -0.30015146821D+03

 The electronic state is 1-A'.
 Alpha  occ. eigenvalues --  -20.72926 -20.72810 -20.72793 -20.72673  -1.69851
 Alpha  occ. eigenvalues --   -1.69732  -1.08562  -1.08391  -0.78671  -0.78512
 Alpha  occ. eigenvalues --   -0.75257  -0.74886  -0.67376  -0.67260  -0.44797
 Alpha  occ. eigenvalues --   -0.44675
 Alpha virt. eigenvalues --    0.04978   0.05098   0.41414   0.43766   0.64057
 Alpha virt. eigenvalues --    0.69127   0.69844   0.71629   0.72676   0.76948
 Alpha virt. eigenvalues --    0.78963   0.80443   0.82330   0.82452   0.85120

 Mulliken charges:
               1
     1  O   -0.000626
     2  O    0.001015
     3  O    0.000609
     4  O   -0.000998
 Sum of Mulliken charges =   0.00000

 Dipole moment (field-independent basis, Debye):
    X=              0.0054    Y=             -0.0208    Z=              0.0000  Tot=              0.0215
 Quadrupole moment (field-independent basis, Debye-Ang):
   XX=            -19.5584   YY=            -21.2596   ZZ=            -19.7606
   XY=             -0.0162   XZ=              0.0000   YZ=              0.0000

 4SDQ=-300.1139475\CCSD=-300.1105392\CCSD(T)=-300.1514682\RMSD=6.580e-0
 Normal termination of Gaussian 16 at Fri Feb  9 20:02:52 2024.
