 Gaussian 16, Revision A.03,
 Gaussian 16:  ES64L-G16RevA.03 25-Dec-2016

 ------------------
 #p CCSD(T)/cc-pVTZ
 ------------------

 ---------
 O2_O2_220
 ---------
 Symbolic Z-matrix:
 Charge =  0 Multiplicity = 1

                         Standard orientation:
 ---------------------------------------------------------------------
 Center     Atomic      Atomic             Coordinates (Angstroms)
 Number     Number       Type             X           Y           Z
 ---------------------------------------------------------------------
      1          8           0        0.615183   -2.865183   -0.000000
      2          8           0       -0.205061   -2.044939   -0.000000
      3          8           0       -0.205061    1.875062    0.000000
      4          8           0       -0.205061    3.035060    0.000000
 ---------------------------------------------------------------------

 SCF Done:  E(RHF) =  -299.188940365     A.U. after   17 cycles
 E2 =    -0.9191283748D+00 EUMP2 =    -0.30010806873988D+03
 CCSD(T)
 CCSD(T)= -0.30015104360D+03

 The electronic state is 1-A'.
 Alpha  occ. eigenvalues --  -20.72934 -20.72869 -20.72818 -20.72752  -1.69864
 Alpha  occ. eigenvalues --   -1.69806  -1.08557  -1.08477  -0.78638  -0.78583
 Alpha  occ. eigenvalues --   -0.75208  -0.75062  -0.67391  -0.67335  -0.44804
 Alpha  occ. eigenvalues --   -0.44749
 Alpha virt. eigenvalues --    0.04970   0.05028   0.40119   0.45862   0.68294
 Alpha virt. eigenvalues --    0.70295   0.70518   0.70733   0.71267   0.74769
 Alpha virt. eigenvalues --    0.78609   0.80673   0.82130   0.84874   0.84913

 Mulliken charges:
               1
     1  O   -0.000171
     2  O    0.000449
     3  O    0.000441
     4  O   -0.000719
 Sum of Mulliken charges =   0.00000

 Dipole moment (field-independent basis, Debye):
    X=             -0.0008    Y=             -0.0117    Z=              0.0000  Tot=              0.0117
 Quadrupole moment (field-independent basis, Debye-Ang):
   XX=            -19.6568   YY=            -21.1240   ZZ=            -19.7596
   XY=             -0.0953   XZ=             -0.0000   YZ=             -0.0000

 P4DQ=-300.1008799\MP4SDQ=-300.1135733\CCSD=-300.1101674\CCSD(T)=-300.1
 Normal termination of Gaussian 16 at Fri Feb  9 20:37:56 2024.
