 Gaussian 16, Revision A.03,
 Gaussian 16:  ES64L-G16RevA.03 25-Dec-2016

 ------------------
 #p CCSD(T)/cc-pVTZ
 ------------------

 ---------
 O2_O2_302
 ---------
 Symbolic Z-matrix:
 Charge =  0 Multiplicity = 1

                         Standard orientation:
 ---------------------------------------------------------------------
 Center     Atomic      Atomic             Coordinates (Angstroms)
 Number     Number       Type             X           Y           Z
 ---------------------------------------------------------------------
      1          8           0       -0.870000   -2.790000    0.000000
      2          8           0        0.290000   -2.790000    0.000000
      3          8           0        0.290000    2.210000    0.000000
      4          8           0        0.290000    3.370000    0.000000
 ---------------------------------------------------------------------

 SCF Done:  E(RHF) =  -299.188872071     A.U. after   19 cycles
 E2 =    -0.9189507347D+00 EUMP2 =    -0.30010782280615D+03
 CCSD(T)
 CCSD(T)= -0.30015084007D+03

 The electronic state is 1-A'.
 Alpha  occ. eigenvalues --  -20.72931 -20.72904 -20.72815 -20.72788  -1.69864
 Alpha  occ. eigenvalues --   -1.69840  -1.08554  -1.08524  -0.78641  -0.78617
 Alpha  occ. eigenvalues --   -0.75175  -0.75144  -0.67393  -0.67368  -0.44810
 Alpha  occ. eigenvalues --   -0.44784
 Alpha virt. eigenvalues --    0.04964   0.04993   0.43264   0.43360   0.70365
 Alpha virt. eigenvalues --    0.70435   0.70578   0.70602   0.72553   0.72649
 Alpha virt. eigenvalues --    0.79927   0.79994   0.82229   0.82244   0.84725

 Mulliken charges:
               1
     1  O   -0.000165
     2  O    0.000167
     3  O    0.000545
     4  O   -0.000547
 Sum of Mulliken charges =  -0.00000

 Dipole moment (field-independent basis, Debye):
    X=              0.0009    Y=             -0.0039    Z=              0.0000  Tot=              0.0040
 Quadrupole moment (field-independent basis, Debye-Ang):
   XX=            -19.5526   YY=            -21.2101   ZZ=            -19.7590
   XY=             -0.0047   XZ=              0.0000   YZ=              0.0000

 DQ=-300.1133748\CCSD=-300.1099816\CCSD(T)=-300.1508401\RMSD=2.586e-09\
 Normal termination of Gaussian 16 at Fri Feb  9 21:38:12 2024.
