 Gaussian 16, Revision A.03,
 Gaussian 16:  ES64L-G16RevA.03 25-Dec-2016

 ------------------
 #p CCSD(T)/cc-pVTZ
 ------------------

 --------
 O2_O2_47
 --------
 Symbolic Z-matrix:
 Charge =  0 Multiplicity = 1

                         Standard orientation:
 ---------------------------------------------------------------------
 Center     Atomic      Atomic             Coordinates (Angstroms)
 Number     Number       Type             X           Y           Z
 ---------------------------------------------------------------------
      1          8           0       -0.870000   -1.090000    0.000000
      2          8           0        0.290000   -1.090000    0.000000
      3          8           0        0.290000    0.510000    0.000000
      4          8           0        0.290000    1.670000    0.000000
 ---------------------------------------------------------------------

 SCF Done:  E(RHF) =  -299.046276666     A.U. after   20 cycles
 E2 =    -0.9538433007D+00 EUMP2 =    -0.30000011996701D+03
 CCSD(T)
 CCSD(T)= -0.30004729686D+03

 The electronic state is 1-A'.
 Alpha  occ. eigenvalues --  -20.74755 -20.74206 -20.73447 -20.66779  -1.74086
 Alpha  occ. eigenvalues --   -1.68342  -1.17676  -1.05302  -0.83859  -0.80962
 Alpha  occ. eigenvalues --   -0.78690  -0.73048  -0.68772  -0.55612  -0.46581
 Alpha  occ. eigenvalues --   -0.42821
 Alpha virt. eigenvalues --    0.02750   0.07416   0.43808   0.47599   0.65122
 Alpha virt. eigenvalues --    0.66932   0.69720   0.71643   0.75341   0.75995
 Alpha virt. eigenvalues --    0.80793   0.82781   0.83856   0.88385   0.89315

 Mulliken charges:
               1
     1  O   -0.099792
     2  O    0.045128
     3  O    0.059981
     4  O   -0.005317
 Sum of Mulliken charges =  -0.00000

 Dipole moment (field-independent basis, Debye):
    X=              0.6595    Y=              0.7112    Z=              0.0000  Tot=              0.9699
 Quadrupole moment (field-independent basis, Debye-Ang):
   XX=            -21.4367   YY=            -20.3721   ZZ=            -19.6429
   XY=             -0.5813   XZ=              0.0000   YZ=              0.0000

 =-299.9965159\CCSD=-299.995413\CCSD(T)=-300.0472969\RMSD=8.279e-09\PG=
 Normal termination of Gaussian 16 at Fri Feb  9 18:23:45 2024.
