 Gaussian 16, Revision A.03,
 Gaussian 16:  ES64L-G16RevA.03 25-Dec-2016

 ------------------
 #p CCSD(T)/cc-pVTZ
 ------------------

 --------
 O2_O2_92
 --------
 Symbolic Z-matrix:
 Charge =  0 Multiplicity = 1

                         Standard orientation:
 ---------------------------------------------------------------------
 Center     Atomic      Atomic             Coordinates (Angstroms)
 Number     Number       Type             X           Y           Z
 ---------------------------------------------------------------------
      1          8           0       -0.870000   -1.390000    0.000000
      2          8           0        0.290000   -1.390000    0.000000
      3          8           0        0.290000    0.810000    0.000000
      4          8           0        0.290000    1.970000    0.000000
 ---------------------------------------------------------------------

 SCF Done:  E(RHF) =  -298.908498149     A.U. after   17 cycles
 E2 =    -0.1541884403D+01 EUMP2 =    -0.30045038255168D+03
 CCSD(T)
 CCSD(T)= -0.30020244250D+03

 The electronic state is 1-A'.
 Alpha  occ. eigenvalues --  -20.79464 -20.77899 -20.76359 -20.74111  -1.72907
 Alpha  occ. eigenvalues --   -1.71971  -1.12049  -1.09720  -0.80201  -0.77381
 Alpha  occ. eigenvalues --   -0.75736  -0.74616  -0.73867  -0.71378  -0.32223
 Alpha  occ. eigenvalues --   -0.30985
 Alpha virt. eigenvalues --   -0.11009  -0.09303   0.42019   0.46642   0.64879
 Alpha virt. eigenvalues --    0.67689   0.70816   0.71459   0.73146   0.73467
 Alpha virt. eigenvalues --    0.77137   0.78038   0.81654   0.85672   0.86853

 Mulliken charges:
               1
     1  O   -0.008168
     2  O    0.019838
     3  O    0.056093
     4  O   -0.067763
 Sum of Mulliken charges =  -0.00000

 Dipole moment (field-independent basis, Debye):
    X=              0.0558    Y=             -0.3078    Z=              0.0000  Tot=              0.3129
 Quadrupole moment (field-independent basis, Debye-Ang):
   XX=            -20.8141   YY=            -21.0303   ZZ=            -20.1240
   XY=             -0.0107   XZ=              0.0000   YZ=              0.0000

 Q=-300.0326581\CCSD=-300.0431336\CCSD(T)=-300.2024425\RMSD=6.818e-09\P
 Normal termination of Gaussian 16 at Fri Feb  9 18:59:58 2024.
