 Gaussian 16, Revision A.03,
 Gaussian 16:  ES64L-G16RevA.03 25-Dec-2016

 ------------------
 #p CCSD(T)/cc-pVTZ
 ------------------

 ---------
 O2_O2_198
 ---------
 Symbolic Z-matrix:
 Charge =  0 Multiplicity = 1

                         Standard orientation:
 ---------------------------------------------------------------------
 Center     Atomic      Atomic             Coordinates (Angstroms)
 Number     Number       Type             X           Y           Z
 ---------------------------------------------------------------------
      1          8           0        0.000000    0.000000    2.980000
      2          8           0        0.000000    0.000000    1.820000
      3          8           0        0.000000    0.000000   -1.820000
      4          8           0        0.000000    0.000000   -2.980000
 ---------------------------------------------------------------------

 SCF Done:  E(RHF) =  -298.806188498     A.U. after   10 cycles
 E2 =    -0.2354519135D+01 EUMP2 =    -0.30116070763308D+03
 CCSD(T)
 CCSD(T)= -0.30029042437D+03

 The electronic state is 1-SGG.
 Alpha  occ. eigenvalues --  -20.77077 -20.77076 -20.75513 -20.75513  -1.71885
 Alpha  occ. eigenvalues --   -1.71865  -1.10271  -1.10006  -0.77027  -0.76712
 Alpha  occ. eigenvalues --   -0.74515  -0.74515  -0.74123  -0.74123  -0.26437
 Alpha  occ. eigenvalues --   -0.26437
 Alpha virt. eigenvalues --   -0.14867  -0.14867   0.36685   0.47532   0.66182
 Alpha virt. eigenvalues --    0.69341   0.69341   0.70189   0.70189   0.75408
 Alpha virt. eigenvalues --    0.77354   0.81535   0.81535   0.84095   0.84095

 Mulliken charges:
               1
     1  O   -0.016861
     2  O    0.016861
     3  O    0.016861
     4  O   -0.016861
 Sum of Mulliken charges =   0.00000

 Dipole moment (field-independent basis, Debye):
    X=             -0.0000    Y=             -0.0000    Z=              0.0000  Tot=              0.0000
 Quadrupole moment (field-independent basis, Debye-Ang):
   XX=            -20.0925   YY=            -20.0925   ZZ=            -22.0293
   XY=              0.0000   XZ=              0.0000   YZ=              0.0000

 4SDQ=-305.0914056\CCSD=-300.0267878\CCSD(T)=-300.2904244\RMSD=1.913e-0
 Normal termination of Gaussian 16 at Fri Feb  9 20:21:36 2024.
