 Gaussian 16, Revision A.03,
 Gaussian 16:  ES64L-G16RevA.03 25-Dec-2016

 ------------------
 #p CCSD(T)/cc-pVTZ
 ------------------

 --------
 O2_O2_22
 --------
 Symbolic Z-matrix:
 Charge =  0 Multiplicity = 1

                         Standard orientation:
 ---------------------------------------------------------------------
 Center     Atomic      Atomic             Coordinates (Angstroms)
 Number     Number       Type             X           Y           Z
 ---------------------------------------------------------------------
      1          8           0        0.615183   -1.545183    0.000000
      2          8           0       -0.205061   -0.724939    0.000000
      3          8           0       -0.205061    0.555061   -0.000000
      4          8           0       -0.205061    1.715061   -0.000000
 ---------------------------------------------------------------------

 SCF Done:  E(RHF) =  -298.920000040     A.U. after   18 cycles
 E2 =    -0.1006292007D+01 EUMP2 =    -0.29992629204747D+03
 CCSD(T)
 CCSD(T)= -0.29996459961D+03

 The electronic state is 1-A'.
 Alpha  occ. eigenvalues --  -20.84997 -20.82240 -20.72938 -20.61923  -1.81750
 Alpha  occ. eigenvalues --   -1.69748  -1.38302  -0.99603  -0.88682  -0.86092
 Alpha  occ. eigenvalues --   -0.84507  -0.73322  -0.69861  -0.49573  -0.48036
 Alpha  occ. eigenvalues --   -0.40683
 Alpha virt. eigenvalues --    0.00345   0.11326   0.47034   0.52133   0.64494
 Alpha virt. eigenvalues --    0.64774   0.65489   0.68905   0.74910   0.76423
 Alpha virt. eigenvalues --    0.80360   0.81905   0.85071   0.86759   0.93570

 Mulliken charges:
               1
     1  O   -0.296948
     2  O    0.205572
     3  O    0.209279
     4  O   -0.117903
 Sum of Mulliken charges =  -0.00000

 Dipole moment (field-independent basis, Debye):
    X=             -0.8276    Y=              1.2859    Z=             -0.0000  Tot=              1.5293
 Quadrupole moment (field-independent basis, Debye-Ang):
   XX=            -21.3169   YY=            -24.6072   ZZ=            -19.4799
   XY=              1.7403   XZ=             -0.0000   YZ=              0.0000

 99.8713513\MP4SDQ=-299.9091411\CCSD=-299.8987471\CCSD(T)=-299.9645996\
 Normal termination of Gaussian 16 at Fri Feb  9 18:00:44 2024.
