 Gaussian 16, Revision A.03,
 Gaussian 16:  ES64L-G16RevA.03 25-Dec-2016

 ------------------
 #p CCSD(T)/cc-pVTZ
 ------------------

 --------
 O2_O2_39
 --------
 Symbolic Z-matrix:
 Charge =  0 Multiplicity = 1

                         Standard orientation:
 ---------------------------------------------------------------------
 Center     Atomic      Atomic             Coordinates (Angstroms)
 Number     Number       Type             X           Y           Z
 ---------------------------------------------------------------------
      1          8           0        0.000000    0.000000    1.920000
      2          8           0        0.000000    0.000000    0.760000
      3          8           0        0.000000    0.000000   -0.760000
      4          8           0        0.000000    0.000000   -1.920000
 ---------------------------------------------------------------------

 SCF Done:  E(RHF) =  -298.901678583     A.U. after   10 cycles
 E2 =    -0.1329705141D+01 EUMP2 =    -0.30023138372391D+03
 CCSD(T)
 CCSD(T)= -0.30009834172D+03

 The electronic state is 1-SGG.
 Alpha  occ. eigenvalues --  -20.82258 -20.82239 -20.71131 -20.71130  -1.75166
 Alpha  occ. eigenvalues --   -1.71591  -1.27537  -1.02450  -0.85222  -0.79537
 Alpha  occ. eigenvalues --   -0.79537  -0.71865  -0.71865  -0.60317  -0.36310
 Alpha  occ. eigenvalues --   -0.36310
 Alpha virt. eigenvalues --   -0.04910  -0.04910   0.46173   0.49672   0.66419
 Alpha virt. eigenvalues --    0.66419   0.68740   0.73352   0.73412   0.73412
 Alpha virt. eigenvalues --    0.82625   0.82625   0.83686   0.87743   0.99336

 Mulliken charges:
               1
     1  O   -0.151235
     2  O    0.151235
     3  O    0.151235
     4  O   -0.151235
 Sum of Mulliken charges =   0.00000

 Dipole moment (field-independent basis, Debye):
    X=             -0.0000    Y=              0.0000    Z=             -0.0000  Tot=              0.0000
 Quadrupole moment (field-independent basis, Debye-Ang):
   XX=            -20.0643   YY=            -20.0643   ZZ=            -24.3449
   XY=              0.0000   XZ=              0.0000   YZ=              0.0000

 4SDQ=-300.0017767\CCSD=-299.990488\CCSD(T)=-300.0983417\RMSD=9.406e-09
 Normal termination of Gaussian 16 at Fri Feb  9 18:17:00 2024.
