 Gaussian 16, Revision A.03,
 Gaussian 16:  ES64L-G16RevA.03 25-Dec-2016

 ------------------
 #p CCSD(T)/cc-pVTZ
 ------------------

 --------
 O2_O2_67
 --------
 Symbolic Z-matrix:
 Charge =  0 Multiplicity = 1

                         Standard orientation:
 ---------------------------------------------------------------------
 Center     Atomic      Atomic             Coordinates (Angstroms)
 Number     Number       Type             X           Y           Z
 ---------------------------------------------------------------------
      1          8           0        0.615183   -1.845183   -0.000000
      2          8           0       -0.205061   -1.024939   -0.000000
      3          8           0       -0.205061    0.855061    0.000000
      4          8           0       -0.205061    2.015061    0.000000
 ---------------------------------------------------------------------

 SCF Done:  E(RHF) =  -299.150162952     A.U. after   17 cycles
 E2 =    -0.9311406585D+00 EUMP2 =    -0.30008130361082D+03
 CCSD(T)
 CCSD(T)= -0.30012201995D+03

 The electronic state is 1-A'.
 Alpha  occ. eigenvalues --  -20.72964 -20.72823 -20.72656 -20.71429  -1.70580
 Alpha  occ. eigenvalues --   -1.69188  -1.13978  -1.05118  -0.80171  -0.79137
 Alpha  occ. eigenvalues --   -0.78268  -0.71075  -0.67776  -0.64628  -0.45163
 Alpha  occ. eigenvalues --   -0.44222
 Alpha virt. eigenvalues --    0.04660   0.06243   0.45709   0.49390   0.65794
 Alpha virt. eigenvalues --    0.66980   0.73497   0.73519   0.74069   0.77752
 Alpha virt. eigenvalues --    0.79010   0.81192   0.81490   0.86322   0.95462

 Mulliken charges:
               1
     1  O   -0.023177
     2  O    0.015012
     3  O    0.028008
     4  O   -0.019843
 Sum of Mulliken charges =  -0.00000

 Dipole moment (field-independent basis, Debye):
    X=             -0.1115    Y=              0.1899    Z=              0.0000  Tot=              0.2202
 Quadrupole moment (field-independent basis, Debye-Ang):
   XX=            -20.5398   YY=            -20.8669   ZZ=            -19.7413
   XY=              0.8419   XZ=             -0.0000   YZ=             -0.0000

 DQ=-300.0701012\MP4SDQ=-300.0835291\CCSD=-300.0795372\CCSD(T)=-300.122
 Normal termination of Gaussian 16 at Fri Feb  9 18:39:58 2024.
