 Gaussian 16, Revision A.03,
 Gaussian 16:  ES64L-G16RevA.03 25-Dec-2016

 ------------------
 #p CCSD(T)/cc-pVTZ
 ------------------

 --------
 O2_O2_35
 --------
 Symbolic Z-matrix:
 Charge =  0 Multiplicity = 1

                         Standard orientation:
 ---------------------------------------------------------------------
 Center     Atomic      Atomic             Coordinates (Angstroms)
 Number     Number       Type             X           Y           Z
 ---------------------------------------------------------------------
      1          8           0       -0.870000   -1.010000    0.000000
      2          8           0        0.290000   -1.010000    0.000000
      3          8           0        0.290000    0.430000    0.000000
      4          8           0        0.290000    1.590000    0.000000
 ---------------------------------------------------------------------

 SCF Done:  E(RHF) =  -298.954413626     A.U. after   18 cycles
 E2 =    -0.9656916671D+00 EUMP2 =    -0.29992010529279D+03
 CCSD(T)
 CCSD(T)= -0.29998481079D+03

 The electronic state is 1-A'.
 Alpha  occ. eigenvalues --  -20.76730 -20.76249 -20.75874 -20.61687  -1.77707
 Alpha  occ. eigenvalues --   -1.68502  -1.22679  -1.04747  -0.86419  -0.82302
 Alpha  occ. eigenvalues --   -0.80948  -0.72598  -0.68835  -0.51652  -0.46348
 Alpha  occ. eigenvalues --   -0.41524
 Alpha virt. eigenvalues --    0.01394   0.08826   0.43760   0.47164   0.62900
 Alpha virt. eigenvalues --    0.66534   0.69191   0.71485   0.74982   0.75545
 Alpha virt. eigenvalues --    0.81879   0.83302   0.85310   0.89006   0.89067

 Mulliken charges:
               1
     1  O   -0.219462
     2  O    0.110073
     3  O    0.121741
     4  O   -0.012351
 Sum of Mulliken charges =  -0.00000

 Dipole moment (field-independent basis, Debye):
    X=              1.3439    Y=              1.0873    Z=              0.0000  Tot=              1.7286
 Quadrupole moment (field-independent basis, Debye-Ang):
   XX=            -21.7535   YY=            -20.8130   ZZ=            -19.5595
   XY=             -1.1706   XZ=              0.0000   YZ=              0.0000

 DQ=-299.9151252\CCSD=-299.9202846\CCSD(T)=-299.9848108\RMSD=8.372e-09\
 Normal termination of Gaussian 16 at Fri Feb  9 18:13:51 2024.
