 Gaussian 16, Revision A.03,
 Gaussian 16:  ES64L-G16RevA.03 25-Dec-2016

 ------------------
 #p CCSD(T)/cc-pVTZ
 ------------------

 --------
 O2_O2_95
 --------
 Symbolic Z-matrix:
 Charge =  0 Multiplicity = 1

                         Standard orientation:
 ---------------------------------------------------------------------
 Center     Atomic      Atomic             Coordinates (Angstroms)
 Number     Number       Type             X           Y           Z
 ---------------------------------------------------------------------
      1          8           0       -0.870000   -1.410000    0.000000
      2          8           0        0.290000   -1.410000    0.000000
      3          8           0        0.290000    0.830000    0.000000
      4          8           0        0.290000    1.990000    0.000000
 ---------------------------------------------------------------------

 SCF Done:  E(RHF) =  -298.905304592     A.U. after   17 cycles
 E2 =    -0.1559276655D+01 EUMP2 =    -0.30046458124648D+03
 CCSD(T)
 CCSD(T)= -0.30020599536D+03

 The electronic state is 1-A'.
 Alpha  occ. eigenvalues --  -20.79392 -20.77846 -20.76407 -20.74221  -1.72842
 Alpha  occ. eigenvalues --   -1.72007  -1.11881  -1.09785  -0.79952  -0.77354
 Alpha  occ. eigenvalues --   -0.75650  -0.74617  -0.73935  -0.71703  -0.31986
 Alpha  occ. eigenvalues --   -0.30804
 Alpha virt. eigenvalues --   -0.11198  -0.09556   0.42012   0.46476   0.64885
 Alpha virt. eigenvalues --    0.67484   0.71064   0.71437   0.73049   0.73207
 Alpha virt. eigenvalues --    0.77008   0.77924   0.81636   0.85017   0.86787

 Mulliken charges:
               1
     1  O   -0.007340
     2  O    0.018493
     3  O    0.053316
     4  O   -0.064469
 Sum of Mulliken charges =  -0.00000

 Dipole moment (field-independent basis, Debye):
    X=              0.0476    Y=             -0.2970    Z=              0.0000  Tot=              0.3008
 Quadrupole moment (field-independent basis, Debye-Ang):
   XX=            -20.8173   YY=            -20.9974   ZZ=            -20.1244
   XY=             -0.0030   XZ=              0.0000   YZ=              0.0000

 DQ=-300.0427727\CCSD=-300.0430308\CCSD(T)=-300.2059954\RMSD=5.532e-09\
 Normal termination of Gaussian 16 at Fri Feb  9 19:03:35 2024.
