 Gaussian 16, Revision A.03,
 Gaussian 16:  ES64L-G16RevA.03 25-Dec-2016

 ------------------
 #p CCSD(T)/cc-pVTZ
 ------------------

 ---------
 O2_O2_174
 ---------
 Symbolic Z-matrix:
 Charge =  0 Multiplicity = 1

                         Standard orientation:
 ---------------------------------------------------------------------
 Center     Atomic      Atomic             Coordinates (Angstroms)
 Number     Number       Type             X           Y           Z
 ---------------------------------------------------------------------
      1          8           0        0.000000    0.000000    2.820000
      2          8           0        0.000000    0.000000    1.660000
      3          8           0        0.000000    0.000000   -1.660000
      4          8           0        0.000000    0.000000   -2.820000
 ---------------------------------------------------------------------

 SCF Done:  E(RHF) =  -298.817973776     A.U. after   10 cycles
 E2 =    -0.2203798561D+01 EUMP2 =    -0.30102177233753D+03
 CCSD(T)
 CCSD(T)= -0.30027972081D+03

 The electronic state is 1-SGG.
 Alpha  occ. eigenvalues --  -20.77395 -20.77393 -20.75466 -20.75466  -1.71989
 Alpha  occ. eigenvalues --   -1.71955  -1.10439  -1.09985  -0.77255  -0.76633
 Alpha  occ. eigenvalues --   -0.74649  -0.74649  -0.74139  -0.74139  -0.27003
 Alpha  occ. eigenvalues --   -0.27003
 Alpha virt. eigenvalues --   -0.14400  -0.14400   0.36521   0.48389   0.65129
 Alpha virt. eigenvalues --    0.68812   0.68812   0.70472   0.70472   0.75811
 Alpha virt. eigenvalues --    0.77822   0.80587   0.80587   0.85343   0.85343

 Mulliken charges:
               1
     1  O   -0.019468
     2  O    0.019468
     3  O    0.019468
     4  O   -0.019468
 Sum of Mulliken charges =  -0.00000

 Dipole moment (field-independent basis, Debye):
    X=             -0.0000    Y=             -0.0000    Z=              0.0000  Tot=              0.0000
 Quadrupole moment (field-independent basis, Debye-Ang):
   XX=            -20.1096   YY=            -20.1096   ZZ=            -22.0046
   XY=              0.0000   XZ=              0.0000   YZ=              0.0000

 P4SDQ=-303.1634186\CCSD=-300.0283996\CCSD(T)=-300.2797208\RMSD=2.051e-
 Normal termination of Gaussian 16 at Fri Feb  9 20:03:46 2024.
