 Gaussian 16, Revision A.03,
 Gaussian 16:  ES64L-G16RevA.03 25-Dec-2016

 ------------------
 #p CCSD(T)/cc-pVTZ
 ------------------

 --------
 O2_O2_65
 --------
 Symbolic Z-matrix:
 Charge =  0 Multiplicity = 1

                         Standard orientation:
 ---------------------------------------------------------------------
 Center     Atomic      Atomic             Coordinates (Angstroms)
 Number     Number       Type             X           Y           Z
 ---------------------------------------------------------------------
      1          8           0       -0.870000   -1.210000    0.000000
      2          8           0        0.290000   -1.210000    0.000000
      3          8           0        0.290000    0.630000    0.000000
      4          8           0        0.290000    1.790000    0.000000
 ---------------------------------------------------------------------

 SCF Done:  E(RHF) =  -299.126931981     A.U. after   24 cycles
 E2 =    -0.9383548798D+00 EUMP2 =    -0.30006528686104D+03
 CCSD(T)
 CCSD(T)= -0.30010585254D+03

 The electronic state is 1-A'.
 Alpha  occ. eigenvalues --  -20.74123 -20.73495 -20.72155 -20.70112  -1.71886
 Alpha  occ. eigenvalues --   -1.68705  -1.13240  -1.06464  -0.81120  -0.79870
 Alpha  occ. eigenvalues --   -0.77963  -0.73561  -0.68514  -0.60984  -0.46034
 Alpha  occ. eigenvalues --   -0.43611
 Alpha virt. eigenvalues --    0.03579   0.06351   0.43651   0.47646   0.66471
 Alpha virt. eigenvalues --    0.68241   0.69656   0.71977   0.74584   0.75905
 Alpha virt. eigenvalues --    0.79566   0.81829   0.82416   0.87582   0.89232

 Mulliken charges:
               1
     1  O   -0.031695
     2  O    0.006974
     3  O    0.027968
     4  O   -0.003247
 Sum of Mulliken charges =  -0.00000

 Dipole moment (field-independent basis, Debye):
    X=              0.2432    Y=              0.4225    Z=              0.0000  Tot=              0.4875
 Quadrupole moment (field-independent basis, Debye-Ang):
   XX=            -21.2773   YY=            -19.9765   ZZ=            -19.7122
   XY=             -0.2153   XZ=              0.0000   YZ=              0.0000

 =-300.0655583\CCSD=-300.0619329\CCSD(T)=-300.1058525\RMSD=3.654e-09\PG
 Normal termination of Gaussian 16 at Fri Feb  9 18:38:33 2024.
