 Gaussian 16, Revision A.03,
 Gaussian 16:  ES64L-G16RevA.03 25-Dec-2016

 ------------------
 #p CCSD(T)/cc-pVTZ
 ------------------

 -------
 O2_O2_2
 -------
 Symbolic Z-matrix:
 Charge =  0 Multiplicity = 1

                         Standard orientation:
 ---------------------------------------------------------------------
 Center     Atomic      Atomic             Coordinates (Angstroms)
 Number     Number       Type             X           Y           Z
 ---------------------------------------------------------------------
      1          8           0       -0.870000   -0.790000    0.000000
      2          8           0        0.290000   -0.790000    0.000000
      3          8           0        0.290000    0.210000    0.000000
      4          8           0        0.290000    1.370000    0.000000
 ---------------------------------------------------------------------

 SCF Done:  E(RHF) =  -298.645157277     A.U. after   16 cycles
 E2 =    -0.9339300656D+00 EUMP2 =    -0.29957908734289D+03
 CCSD(T)
 CCSD(T)= -0.29961552725D+03

 The electronic state is 1-A'.
 Alpha  occ. eigenvalues --  -20.93268 -20.84071 -20.69084 -20.52982  -2.14436
 Alpha  occ. eigenvalues --   -1.67615  -1.44638  -1.12473  -1.04188  -0.91077
 Alpha  occ. eigenvalues --   -0.85512  -0.72751  -0.64820  -0.52154  -0.42027
 Alpha  occ. eigenvalues --   -0.38936
 Alpha virt. eigenvalues --    0.04687   0.29371   0.40111   0.45320   0.60142
 Alpha virt. eigenvalues --    0.60418   0.63353   0.71353   0.74545   0.75129
 Alpha virt. eigenvalues --    0.81378   0.83407   0.87491   0.88826   0.92072

 Mulliken charges:
               1
     1  O   -0.554957
     2  O    0.338702
     3  O    0.443203
     4  O   -0.226948
 Sum of Mulliken charges =   0.00000

 Dipole moment (field-independent basis, Debye):
    X=              2.8660    Y=             -0.3832    Z=              0.0000  Tot=              2.8915
 Quadrupole moment (field-independent basis, Debye-Ang):
   XX=            -22.2949   YY=            -23.1666   ZZ=            -18.9345
   XY=             -2.9809   XZ=              0.0000   YZ=              0.0000

 =-299.5732883\CCSD=-299.572335\CCSD(T)=-299.6155273\RMSD=3.338e-09\PG=
 Normal termination of Gaussian 16 at Fri Feb  9 17:44:29 2024.
