 Gaussian 16, Revision A.03,
 Gaussian 16:  ES64L-G16RevA.03 25-Dec-2016

 ------------------
 #p CCSD(T)/cc-pVTZ
 ------------------

 ---------
 O2_O2_268
 ---------
 Symbolic Z-matrix:
 Charge =  0 Multiplicity = 1

                         Standard orientation:
 ---------------------------------------------------------------------
 Center     Atomic      Atomic             Coordinates (Angstroms)
 Number     Number       Type             X           Y           Z
 ---------------------------------------------------------------------
      1          8           0        0.615183   -3.185183    0.000000
      2          8           0       -0.205061   -2.364939    0.000000
      3          8           0       -0.205061    2.195061   -0.000000
      4          8           0       -0.205061    3.355061   -0.000000
 ---------------------------------------------------------------------

 SCF Done:  E(RHF) =  -299.188881144     A.U. after   17 cycles
 E2 =    -0.9189842798D+00 EUMP2 =    -0.30010786542393D+03
 CCSD(T)
 CCSD(T)= -0.30015087109D+03

 The electronic state is 1-A'.
 Alpha  occ. eigenvalues --  -20.72929 -20.72902 -20.72814 -20.72786  -1.69863
 Alpha  occ. eigenvalues --   -1.69838  -1.08550  -1.08521  -0.78639  -0.78615
 Alpha  occ. eigenvalues --   -0.75176  -0.75135  -0.67391  -0.67366  -0.44807
 Alpha  occ. eigenvalues --   -0.44782
 Alpha virt. eigenvalues --    0.04968   0.04995   0.42271   0.44282   0.70281
 Alpha virt. eigenvalues --    0.70429   0.70587   0.70601   0.71886   0.73274
 Alpha virt. eigenvalues --    0.79358   0.80454   0.82241   0.82609   0.84737

 Mulliken charges:
               1
     1  O   -0.000323
     2  O    0.000352
     3  O    0.000567
     4  O   -0.000595
 Sum of Mulliken charges =  -0.00000

 Dipole moment (field-independent basis, Debye):
    X=             -0.0008    Y=             -0.0040    Z=             -0.0000  Tot=              0.0041
 Quadrupole moment (field-independent basis, Debye-Ang):
   XX=            -19.6563   YY=            -21.1159   ZZ=            -19.7591
   XY=             -0.0977   XZ=              0.0000   YZ=              0.0000

 P4DQ=-300.1007217\MP4SDQ=-300.1134071\CCSD=-300.1100096\CCSD(T)=-300.1
 Normal termination of Gaussian 16 at Fri Feb  9 21:14:16 2024.
