 Gaussian 16, Revision A.03,
 Gaussian 16:  ES64L-G16RevA.03 25-Dec-2016

 ------------------
 #p CCSD(T)/cc-pVTZ
 ------------------

 ---------
 O2_O2_146
 ---------
 Symbolic Z-matrix:
 Charge =  0 Multiplicity = 1

                         Standard orientation:
 ---------------------------------------------------------------------
 Center     Atomic      Atomic             Coordinates (Angstroms)
 Number     Number       Type             X           Y           Z
 ---------------------------------------------------------------------
      1          8           0       -0.870000   -1.750000    0.000000
      2          8           0        0.290000   -1.750000    0.000000
      3          8           0        0.290000    1.170000    0.000000
      4          8           0        0.290000    2.330000    0.000000
 ---------------------------------------------------------------------

 SCF Done:  E(RHF) =  -299.188529189     A.U. after   21 cycles
 E2 =    -0.9200630190D+00 EUMP2 =    -0.30010859220800D+03
 CCSD(T)
 CCSD(T)= -0.30015151002D+03

 The electronic state is 1-A'.
 Alpha  occ. eigenvalues --  -20.72918 -20.72800 -20.72721 -20.72598  -1.69857
 Alpha  occ. eigenvalues --   -1.69664  -1.08626  -1.08287  -0.78822  -0.78455
 Alpha  occ. eigenvalues --   -0.75347  -0.74585  -0.67370  -0.67203  -0.44797
 Alpha  occ. eigenvalues --   -0.44614
 Alpha virt. eigenvalues --    0.04981   0.05154   0.42029   0.44359   0.64333
 Alpha virt. eigenvalues --    0.67917   0.68985   0.72281   0.72771   0.76945
 Alpha virt. eigenvalues --    0.78856   0.80552   0.80965   0.82706   0.85848

 Mulliken charges:
               1
     1  O   -0.001174
     2  O    0.001710
     3  O    0.001905
     4  O   -0.002440
 Sum of Mulliken charges =   0.00000

 Dipole moment (field-independent basis, Debye):
    X=              0.0121    Y=             -0.0262    Z=              0.0000  Tot=              0.0289
 Quadrupole moment (field-independent basis, Debye-Ang):
   XX=            -19.5638   YY=            -21.3180   ZZ=            -19.7618
   XY=             -0.0248   XZ=              0.0000   YZ=              0.0000

 4SDQ=-300.1139353\CCSD=-300.1105139\CCSD(T)=-300.15151\RMSD=2.270e-09\
 Normal termination of Gaussian 16 at Fri Feb  9 19:42:05 2024.
