 Gaussian 16, Revision A.03,
 Gaussian 16:  ES64L-G16RevA.03 25-Dec-2016

 ------------------
 #p CCSD(T)/cc-pVTZ
 ------------------

 ---------
 O2_O2_201
 ---------
 Symbolic Z-matrix:
 Charge =  0 Multiplicity = 1

                         Standard orientation:
 ---------------------------------------------------------------------
 Center     Atomic      Atomic             Coordinates (Angstroms)
 Number     Number       Type             X           Y           Z
 ---------------------------------------------------------------------
      1          8           0        0.000000    0.000000    3.000000
      2          8           0        0.000000    0.000000    1.840000
      3          8           0        0.000000    0.000000   -1.840000
      4          8           0        0.000000    0.000000   -3.000000
 ---------------------------------------------------------------------

 SCF Done:  E(RHF) =  -298.804919184     A.U. after   10 cycles
 E2 =    -0.2373036993D+01 EUMP2 =    -0.30117795617739D+03
 CCSD(T)
 CCSD(T)= -0.30029157391D+03

 The electronic state is 1-SGG.
 Alpha  occ. eigenvalues --  -20.77046 -20.77045 -20.75519 -20.75519  -1.71875
 Alpha  occ. eigenvalues --   -1.71856  -1.10256  -1.10007  -0.77007  -0.76717
 Alpha  occ. eigenvalues --   -0.74502  -0.74502  -0.74122  -0.74122  -0.26375
 Alpha  occ. eigenvalues --   -0.26375
 Alpha virt. eigenvalues --   -0.14920  -0.14920   0.36816   0.47395   0.66379
 Alpha virt. eigenvalues --    0.69386   0.69386   0.70161   0.70161   0.75335
 Alpha virt. eigenvalues --    0.77319   0.81632   0.81632   0.83982   0.83982

 Mulliken charges:
               1
     1  O   -0.016635
     2  O    0.016635
     3  O    0.016635
     4  O   -0.016635
 Sum of Mulliken charges =  -0.00000

 Dipole moment (field-independent basis, Debye):
    X=             -0.0000    Y=              0.0000    Z=             -0.0000  Tot=              0.0000
 Quadrupole moment (field-independent basis, Debye-Ang):
   XX=            -20.0909   YY=            -20.0909   ZZ=            -22.0304
   XY=              0.0000   XZ=              0.0000   YZ=              0.0000

 P4SDQ=-305.3726598\CCSD=-300.026631\CCSD(T)=-300.2915739\RMSD=1.897e-0
 Normal termination of Gaussian 16 at Fri Feb  9 20:23:55 2024.
