 Gaussian 16, Revision A.03,
 Gaussian 16:  ES64L-G16RevA.03 25-Dec-2016

 ------------------
 #p CCSD(T)/cc-pVTZ
 ------------------

 ---------
 O2_O2_128
 ---------
 Symbolic Z-matrix:
 Charge =  0 Multiplicity = 1

                         Standard orientation:
 ---------------------------------------------------------------------
 Center     Atomic      Atomic             Coordinates (Angstroms)
 Number     Number       Type             X           Y           Z
 ---------------------------------------------------------------------
      1          8           0       -0.870000   -1.630000    0.000000
      2          8           0        0.290000   -1.630000    0.000000
      3          8           0        0.290000    1.050000    0.000000
      4          8           0        0.290000    2.210000    0.000000
 ---------------------------------------------------------------------

 SCF Done:  E(RHF) =  -299.187242281     A.U. after   24 cycles
 E2 =    -0.9206891854D+00 EUMP2 =    -0.30010793146644D+03
 CCSD(T)
 CCSD(T)= -0.30015077844D+03

 The electronic state is 1-A'.
 Alpha  occ. eigenvalues --  -20.72908 -20.72768 -20.72630 -20.72507  -1.69883
 Alpha  occ. eigenvalues --   -1.69579  -1.08747  -1.08158  -0.79108  -0.78395
 Alpha  occ. eigenvalues --   -0.75414  -0.74170  -0.67367  -0.67144  -0.44794
 Alpha  occ. eigenvalues --   -0.44549
 Alpha virt. eigenvalues --    0.04982   0.05220   0.42530   0.45418   0.65734
 Alpha virt. eigenvalues --    0.67010   0.68848   0.72726   0.72763   0.76856
 Alpha virt. eigenvalues --    0.77990   0.79794   0.82013   0.82925   0.86615

 Mulliken charges:
               1
     1  O   -0.002019
     2  O    0.003161
     3  O    0.004695
     4  O   -0.005836
 Sum of Mulliken charges =  -0.00000

 Dipole moment (field-independent basis, Debye):
    X=              0.0209    Y=             -0.0331    Z=              0.0000  Tot=              0.0391
 Quadrupole moment (field-independent basis, Debye-Ang):
   XX=            -19.5696   YY=            -21.3828   ZZ=            -19.7629
   XY=             -0.0345   XZ=              0.0000   YZ=              0.0000

 4SDQ=-300.1131431\CCSD=-300.1097036\CCSD(T)=-300.1507784\RMSD=1.895e-0
 Normal termination of Gaussian 16 at Fri Feb  9 19:28:45 2024.
