 Gaussian 16, Revision A.03,
 Gaussian 16:  ES64L-G16RevA.03 25-Dec-2016

 ------------------
 #p CCSD(T)/cc-pVTZ
 ------------------

 ---------
 O2_O2_251
 ---------
 Symbolic Z-matrix:
 Charge =  0 Multiplicity = 1

                         Standard orientation:
 ---------------------------------------------------------------------
 Center     Atomic      Atomic             Coordinates (Angstroms)
 Number     Number       Type             X           Y           Z
 ---------------------------------------------------------------------
      1          8           0       -0.870000   -2.450000    0.000000
      2          8           0        0.290000   -2.450000    0.000000
      3          8           0        0.290000    1.870000    0.000000
      4          8           0        0.290000    3.030000    0.000000
 ---------------------------------------------------------------------

 SCF Done:  E(RHF) =  -299.188897376     A.U. after   18 cycles
 E2 =    -0.9190198778D+00 EUMP2 =    -0.30010791725338D+03
 CCSD(T)
 CCSD(T)= -0.30015092285D+03

 The electronic state is 1-A'.
 Alpha  occ. eigenvalues --  -20.72926 -20.72879 -20.72810 -20.72762  -1.69857
 Alpha  occ. eigenvalues --   -1.69815  -1.08547  -1.08497  -0.78633  -0.78592
 Alpha  occ. eigenvalues --   -0.75172  -0.75112  -0.67386  -0.67343  -0.44803
 Alpha  occ. eigenvalues --   -0.44759
 Alpha virt. eigenvalues --    0.04971   0.05019   0.43022   0.43468   0.69241
 Alpha virt. eigenvalues --    0.70393   0.70623   0.70647   0.72557   0.73622
 Alpha virt. eigenvalues --    0.79831   0.80166   0.82267   0.82458   0.84736

 Mulliken charges:
               1
     1  O   -0.000269
     2  O    0.000322
     3  O    0.000793
     4  O   -0.000846
 Sum of Mulliken charges =  -0.00000

 Dipole moment (field-independent basis, Debye):
    X=              0.0015    Y=             -0.0075    Z=              0.0000  Tot=              0.0076
 Quadrupole moment (field-independent basis, Debye-Ang):
   XX=            -19.5535   YY=            -21.2188   ZZ=            -19.7592
   XY=             -0.0068   XZ=              0.0000   YZ=              0.0000

 4SDQ=-300.1134521\CCSD=-300.1100572\CCSD(T)=-300.1509228\RMSD=9.677e-0
 Normal termination of Gaussian 16 at Fri Feb  9 21:00:36 2024.
