 Gaussian 16, Revision A.03,
 Gaussian 16:  ES64L-G16RevA.03 25-Dec-2016

 ------------------
 #p CCSD(T)/cc-pVTZ
 ------------------

 --------
 O2_O2_62
 --------
 Symbolic Z-matrix:
 Charge =  0 Multiplicity = 1

                         Standard orientation:
 ---------------------------------------------------------------------
 Center     Atomic      Atomic             Coordinates (Angstroms)
 Number     Number       Type             X           Y           Z
 ---------------------------------------------------------------------
      1          8           0       -0.870000   -1.190000    0.000000
      2          8           0        0.290000   -1.190000    0.000000
      3          8           0        0.290000    0.610000    0.000000
      4          8           0        0.290000    1.770000    0.000000
 ---------------------------------------------------------------------

 SCF Done:  E(RHF) =  -299.117363284     A.U. after   23 cycles
 E2 =    -0.9404176755D+00 EUMP2 =    -0.30005778095995D+03
 CCSD(T)
 CCSD(T)= -0.30009853666D+03

 The electronic state is 1-A'.
 Alpha  occ. eigenvalues --  -20.74191 -20.73538 -20.72228 -20.69748  -1.72116
 Alpha  occ. eigenvalues --   -1.68635  -1.13782  -1.06286  -0.81514  -0.80010
 Alpha  occ. eigenvalues --   -0.77992  -0.73480  -0.68560  -0.60265  -0.46105
 Alpha  occ. eigenvalues --   -0.43515
 Alpha virt. eigenvalues --    0.03487   0.06481   0.43687   0.47678   0.66580
 Alpha virt. eigenvalues --    0.67748   0.69711   0.71914   0.74705   0.76019
 Alpha virt. eigenvalues --    0.79772   0.82150   0.82479   0.87705   0.89259

 Mulliken charges:
               1
     1  O   -0.038466
     2  O    0.010514
     3  O    0.031019
     4  O   -0.003067
 Sum of Mulliken charges =  -0.00000

 Dipole moment (field-independent basis, Debye):
    X=              0.2856    Y=              0.4577    Z=              0.0000  Tot=              0.5395
 Quadrupole moment (field-independent basis, Debye-Ang):
   XX=            -21.2924   YY=            -20.0277   ZZ=            -19.7041
   XY=             -0.2539   XZ=              0.0000   YZ=              0.0000

 Q=-300.0574988\CCSD=-300.0539833\CCSD(T)=-300.0985367\RMSD=3.256e-09\P
 Normal termination of Gaussian 16 at Fri Feb  9 18:36:13 2024.
