 Gaussian 16, Revision A.03,
 Gaussian 16:  ES64L-G16RevA.03 25-Dec-2016

 ------------------
 #p CCSD(T)/cc-pVTZ
 ------------------

 --------
 O2_O2_96
 --------
 Symbolic Z-matrix:
 Charge =  0 Multiplicity = 1

                         Standard orientation:
 ---------------------------------------------------------------------
 Center     Atomic      Atomic             Coordinates (Angstroms)
 Number     Number       Type             X           Y           Z
 ---------------------------------------------------------------------
      1          8           0        0.000000    0.000000    2.300000
      2          8           0        0.000000    0.000000    1.140000
      3          8           0        0.000000    0.000000   -1.140000
      4          8           0        0.000000    0.000000   -2.300000
 ---------------------------------------------------------------------

 SCF Done:  E(RHF) =  -298.890647537     A.U. after   10 cycles
 E2 =    -0.1683666026D+01 EUMP2 =    -0.30057431356313D+03
 CCSD(T)
 CCSD(T)= -0.30021867718D+03

 The electronic state is 1-SGG.
 Alpha  occ. eigenvalues --  -20.79706 -20.79701 -20.74910 -20.74909  -1.72823
 Alpha  occ. eigenvalues --   -1.72464  -1.12901  -1.08831  -0.79994  -0.75760
 Alpha  occ. eigenvalues --   -0.75760  -0.74544  -0.74021  -0.74021  -0.30356
 Alpha  occ. eigenvalues --   -0.30356
 Alpha virt. eigenvalues --   -0.11565  -0.11565   0.43599   0.48964   0.65709
 Alpha virt. eigenvalues --    0.65709   0.70951   0.71779   0.71779   0.76188
 Alpha virt. eigenvalues --    0.78421   0.78421   0.84186   0.84583   0.86594

 Mulliken charges:
               1
     1  O   -0.059616
     2  O    0.059616
     3  O    0.059616
     4  O   -0.059616
 Sum of Mulliken charges =  -0.00000

 Dipole moment (field-independent basis, Debye):
    X=             -0.0000    Y=              0.0000    Z=             -0.0000  Tot=              0.0000
 Quadrupole moment (field-independent basis, Debye-Ang):
   XX=            -20.2199   YY=            -20.2199   ZZ=            -22.0050
   XY=              0.0000   XZ=              0.0000   YZ=              0.0000

 4SDQ=-300.2526411\CCSD=-300.043132\CCSD(T)=-300.2186772\RMSD=2.812e-09
 Normal termination of Gaussian 16 at Fri Feb  9 19:04:13 2024.
