 Gaussian 16, Revision A.03,
 Gaussian 16:  ES64L-G16RevA.03 25-Dec-2016

 ------------------
 #p CCSD(T)/cc-pVTZ
 ------------------

 --------
 O2_O2_54
 --------
 Symbolic Z-matrix:
 Charge =  0 Multiplicity = 1

                         Standard orientation:
 ---------------------------------------------------------------------
 Center     Atomic      Atomic             Coordinates (Angstroms)
 Number     Number       Type             X           Y           Z
 ---------------------------------------------------------------------
      1          8           0        0.000000    0.000000    2.020000
      2          8           0        0.000000    0.000000    0.860000
      3          8           0        0.000000    0.000000   -0.860000
      4          8           0        0.000000    0.000000   -2.020000
 ---------------------------------------------------------------------

 SCF Done:  E(RHF) =  -298.931030240     A.U. after   10 cycles
 E2 =    -0.1410523689D+01 EUMP2 =    -0.30034155392892D+03
 CCSD(T)
 CCSD(T)= -0.30015788316D+03

 The electronic state is 1-SGG.
 Alpha  occ. eigenvalues --  -20.81528 -20.81517 -20.72851 -20.72851  -1.73958
 Alpha  occ. eigenvalues --   -1.72137  -1.20593  -1.05041  -0.83883  -0.77699
 Alpha  occ. eigenvalues --   -0.77699  -0.72864  -0.72864  -0.67162  -0.34210
 Alpha  occ. eigenvalues --   -0.34210
 Alpha virt. eigenvalues --   -0.07454  -0.07454   0.45956   0.49159   0.66261
 Alpha virt. eigenvalues --    0.66261   0.71420   0.72796   0.72796   0.75662
 Alpha virt. eigenvalues --    0.80906   0.80906   0.84467   0.84779   0.97436

 Mulliken charges:
               1
     1  O   -0.117028
     2  O    0.117028
     3  O    0.117028
     4  O   -0.117028
 Sum of Mulliken charges =  -0.00000

 Dipole moment (field-independent basis, Debye):
    X=             -0.0000    Y=              0.0000    Z=              0.0000  Tot=              0.0000
 Quadrupole moment (field-independent basis, Debye-Ang):
   XX=            -20.1773   YY=            -20.1773   ZZ=            -23.2447
   XY=              0.0000   XZ=              0.0000   YZ=              0.0000

 4SDQ=-300.0386958\CCSD=-300.0355493\CCSD(T)=-300.1578832\RMSD=5.913e-0
 Normal termination of Gaussian 16 at Fri Feb  9 18:29:32 2024.
