 Gaussian 16, Revision A.03,
 Gaussian 16:  ES64L-G16RevA.03 25-Dec-2016

 ------------------
 #p CCSD(T)/cc-pVTZ
 ------------------

 --------
 O2_O2_70
 --------
 Symbolic Z-matrix:
 Charge =  0 Multiplicity = 1

                         Standard orientation:
 ---------------------------------------------------------------------
 Center     Atomic      Atomic             Coordinates (Angstroms)
 Number     Number       Type             X           Y           Z
 ---------------------------------------------------------------------
      1          8           0        0.615183   -1.865183   -0.000000
      2          8           0       -0.205061   -1.044939   -0.000000
      3          8           0       -0.205061    0.875061    0.000000
      4          8           0       -0.205061    2.035061    0.000000
 ---------------------------------------------------------------------

 SCF Done:  E(RHF) =  -299.155806244     A.U. after   17 cycles
 E2 =    -0.9298184607D+00 EUMP2 =    -0.30008562470466D+03
 CCSD(T)
 CCSD(T)= -0.30012646868D+03

 The electronic state is 1-A'.
 Alpha  occ. eigenvalues --  -20.72969 -20.72817 -20.72622 -20.71597  -1.70488
 Alpha  occ. eigenvalues --   -1.69242  -1.13400  -1.05391  -0.79848  -0.79067
 Alpha  occ. eigenvalues --   -0.78273  -0.71261  -0.67735  -0.65038  -0.45129
 Alpha  occ. eigenvalues --   -0.44271
 Alpha virt. eigenvalues --    0.04687   0.06132   0.45537   0.49316   0.65766
 Alpha virt. eigenvalues --    0.66907   0.73417   0.73443   0.74110   0.77751
 Alpha virt. eigenvalues --    0.79205   0.80956   0.81447   0.86400   0.95318

 Mulliken charges:
               1
     1  O   -0.019726
     2  O    0.012607
     3  O    0.026410
     4  O   -0.019291
 Sum of Mulliken charges =  -0.00000

 Dipole moment (field-independent basis, Debye):
    X=             -0.0995    Y=              0.1691    Z=              0.0000  Tot=              0.1962
 Quadrupole moment (field-independent basis, Debye-Ang):
   XX=            -20.5304   YY=            -20.8018   ZZ=            -19.7456
   XY=              0.8237   XZ=              0.0000   YZ=             -0.0000

 4DQ=-300.0748984\MP4SDQ=-300.0882153\CCSD=-300.0842525\CCSD(T)=-300.12
 Normal termination of Gaussian 16 at Fri Feb  9 18:42:21 2024.
