 Gaussian 16, Revision A.03,
 Gaussian 16:  ES64L-G16RevA.03 25-Dec-2016

 ------------------
 #p CCSD(T)/cc-pVTZ
 ------------------

 ---------
 O2_O2_218
 ---------
 Symbolic Z-matrix:
 Charge =  0 Multiplicity = 1

                         Standard orientation:
 ---------------------------------------------------------------------
 Center     Atomic      Atomic             Coordinates (Angstroms)
 Number     Number       Type             X           Y           Z
 ---------------------------------------------------------------------
      1          8           0       -0.870000   -2.230000    0.000000
      2          8           0        0.290000   -2.230000    0.000000
      3          8           0        0.290000    1.650000    0.000000
      4          8           0        0.290000    2.810000    0.000000
 ---------------------------------------------------------------------

 SCF Done:  E(RHF) =  -299.188942343     A.U. after   18 cycles
 E2 =    -0.9191414864D+00 EUMP2 =    -0.30010808382968D+03
 CCSD(T)
 CCSD(T)= -0.30015107372D+03

 The electronic state is 1-A'.
 Alpha  occ. eigenvalues --  -20.72926 -20.72853 -20.72810 -20.72736  -1.69854
 Alpha  occ. eigenvalues --   -1.69790  -1.08547  -1.08467  -0.78632  -0.78567
 Alpha  occ. eigenvalues --   -0.75185  -0.75066  -0.67383  -0.67317  -0.44800
 Alpha  occ. eigenvalues --   -0.44733
 Alpha virt. eigenvalues --    0.04974   0.05046   0.42389   0.43547   0.66929
 Alpha virt. eigenvalues --    0.70164   0.70562   0.70873   0.72570   0.75333
 Alpha virt. eigenvalues --    0.79631   0.80347   0.82297   0.83028   0.84770

 Mulliken charges:
               1
     1  O   -0.000363
     2  O    0.000558
     3  O    0.000823
     4  O   -0.001018
 Sum of Mulliken charges =  -0.00000

 Dipole moment (field-independent basis, Debye):
    X=              0.0019    Y=             -0.0125    Z=              0.0000  Tot=              0.0127
 Quadrupole moment (field-independent basis, Debye-Ang):
   XX=            -19.5545   YY=            -21.2247   ZZ=            -19.7596
   XY=             -0.0091   XZ=              0.0000   YZ=              0.0000

 4SDQ=-300.1135931\CCSD=-300.1101943\CCSD(T)=-300.1510737\RMSD=9.104e-0
 Normal termination of Gaussian 16 at Fri Feb  9 20:36:28 2024.
