 Gaussian 16, Revision A.03,
 Gaussian 16:  ES64L-G16RevA.03 25-Dec-2016

 ------------------
 #p CCSD(T)/cc-pVTZ
 ------------------

 --------
 O2_O2_97
 --------
 Symbolic Z-matrix:
 Charge =  0 Multiplicity = 1

                         Standard orientation:
 ---------------------------------------------------------------------
 Center     Atomic      Atomic             Coordinates (Angstroms)
 Number     Number       Type             X           Y           Z
 ---------------------------------------------------------------------
      1          8           0        0.615183   -2.045183    0.000000
      2          8           0       -0.205061   -1.224939    0.000000
      3          8           0       -0.205061    1.055061    0.000000
      4          8           0       -0.205061    2.215061    0.000000
 ---------------------------------------------------------------------

 SCF Done:  E(RHF) =  -299.181472813     A.U. after   19 cycles
 E2 =    -0.9231454544D+00 EUMP2 =    -0.30010461826733D+03
 CCSD(T)
 CCSD(T)= -0.30014669600D+03

 The electronic state is 1-A'.
 Alpha  occ. eigenvalues --  -20.73033 -20.72901 -20.72659 -20.72405  -1.70109
 Alpha  occ. eigenvalues --   -1.69574  -1.10376  -1.07118  -0.78838  -0.78404
 Alpha  occ. eigenvalues --   -0.77554  -0.73006  -0.67573  -0.66772  -0.44994
 Alpha  occ. eigenvalues --   -0.44547
 Alpha virt. eigenvalues --    0.04785   0.05478   0.43931   0.48699   0.65949
 Alpha virt. eigenvalues --    0.66683   0.71663   0.72777   0.73504   0.77485
 Alpha virt. eigenvalues --    0.79621   0.80349   0.81381   0.86880   0.90557

 Mulliken charges:
               1
     1  O   -0.005185
     2  O    0.003596
     3  O    0.013566
     4  O   -0.011977
 Sum of Mulliken charges =   0.00000

 Dipole moment (field-independent basis, Debye):
    X=             -0.0391    Y=              0.0711    Z=              0.0000  Tot=              0.0812
 Quadrupole moment (field-independent basis, Debye-Ang):
   XX=            -20.4880   YY=            -20.4454   ZZ=            -19.7614
   XY=              0.7366   XZ=             -0.0000   YZ=             -0.0000

 4DQ=-300.0962115\MP4SDQ=-300.1090778\CCSD=-300.1054273\CCSD(T)=-300.14
 Normal termination of Gaussian 16 at Fri Feb  9 19:05:01 2024.
