 Gaussian 16, Revision A.03,
 Gaussian 16:  ES64L-G16RevA.03 25-Dec-2016

 ------------------
 #p CCSD(T)/cc-pVTZ
 ------------------

 ---------
 O2_O2_170
 ---------
 Symbolic Z-matrix:
 Charge =  0 Multiplicity = 1

                         Standard orientation:
 ---------------------------------------------------------------------
 Center     Atomic      Atomic             Coordinates (Angstroms)
 Number     Number       Type             X           Y           Z
 ---------------------------------------------------------------------
      1          8           0       -0.870000   -1.910000    0.000000
      2          8           0        0.290000   -1.910000    0.000000
      3          8           0        0.290000    1.330000    0.000000
      4          8           0        0.290000    2.490000    0.000000
 ---------------------------------------------------------------------

 SCF Done:  E(RHF) =  -299.188958756     A.U. after   19 cycles
 E2 =    -0.9195776961D+00 EUMP2 =    -0.30010853645249D+03
 CCSD(T)
 CCSD(T)= -0.30015149500D+03

 The electronic state is 1-A'.
 Alpha  occ. eigenvalues --  -20.72926 -20.72810 -20.72787 -20.72667  -1.69851
 Alpha  occ. eigenvalues --   -1.69726  -1.08566  -1.08383  -0.78679  -0.78507
 Alpha  occ. eigenvalues --   -0.75265  -0.74864  -0.67375  -0.67255  -0.44797
 Alpha  occ. eigenvalues --   -0.44670
 Alpha virt. eigenvalues --    0.04978   0.05103   0.41430   0.43798   0.63991
 Alpha virt. eigenvalues --    0.69013   0.69752   0.71697   0.72688   0.76975
 Alpha virt. eigenvalues --    0.78943   0.80466   0.82168   0.82474   0.85175

 Mulliken charges:
               1
     1  O   -0.000658
     2  O    0.001050
     3  O    0.000647
     4  O   -0.001039
 Sum of Mulliken charges =  -0.00000

 Dipole moment (field-independent basis, Debye):
    X=              0.0059    Y=             -0.0213    Z=              0.0000  Tot=              0.0221
 Quadrupole moment (field-independent basis, Debye-Ang):
   XX=            -19.5588   YY=            -21.2644   ZZ=            -19.7607
   XY=             -0.0169   XZ=              0.0000   YZ=              0.0000

 DQ=-300.1139698\CCSD=-300.1105605\CCSD(T)=-300.151495\RMSD=4.943e-09\P
 Normal termination of Gaussian 16 at Fri Feb  9 19:59:44 2024.
