 Gaussian 16, Revision A.03,
 Gaussian 16:  ES64L-G16RevA.03 25-Dec-2016

 ------------------
 #p CCSD(T)/cc-pVTZ
 ------------------

 ---------
 O2_O2_284
 ---------
 Symbolic Z-matrix:
 Charge =  0 Multiplicity = 1

                         Standard orientation:
 ---------------------------------------------------------------------
 Center     Atomic      Atomic             Coordinates (Angstroms)
 Number     Number       Type             X           Y           Z
 ---------------------------------------------------------------------
      1          8           0       -0.870000   -2.670000    0.000000
      2          8           0        0.290000   -2.670000    0.000000
      3          8           0        0.290000    2.090000    0.000000
      4          8           0        0.290000    3.250000    0.000000
 ---------------------------------------------------------------------

 SCF Done:  E(RHF) =  -299.188876512     A.U. after   18 cycles
 E2 =    -0.9189659622D+00 EUMP2 =    -0.30010784247434D+03
 CCSD(T)
 CCSD(T)= -0.30015085673D+03

 The electronic state is 1-A'.
 Alpha  occ. eigenvalues --  -20.72929 -20.72897 -20.72813 -20.72781  -1.69862
 Alpha  occ. eigenvalues --   -1.69832  -1.08551  -1.08516  -0.78638  -0.78609
 Alpha  occ. eigenvalues --   -0.75173  -0.75135  -0.67390  -0.67361  -0.44807
 Alpha  occ. eigenvalues --   -0.44776
 Alpha virt. eigenvalues --    0.04967   0.05000   0.43227   0.43391   0.70227
 Alpha virt. eigenvalues --    0.70436   0.70586   0.70611   0.72554   0.72779
 Alpha virt. eigenvalues --    0.79908   0.80028   0.82251   0.82256   0.84728

 Mulliken charges:
               1
     1  O   -0.000199
     2  O    0.000207
     3  O    0.000630
     4  O   -0.000639
 Sum of Mulliken charges =  -0.00000

 Dipole moment (field-independent basis, Debye):
    X=              0.0011    Y=             -0.0048    Z=              0.0000  Tot=              0.0049
 Quadrupole moment (field-independent basis, Debye-Ang):
   XX=            -19.5528   YY=            -21.2132   ZZ=            -19.7590
   XY=             -0.0054   XZ=              0.0000   YZ=              0.0000

 4SDQ=-300.1133905\CCSD=-300.1099969\CCSD(T)=-300.1508567\RMSD=6.820e-0
 Normal termination of Gaussian 16 at Fri Feb  9 21:25:48 2024.
