 Gaussian 16, Revision A.03,
 Gaussian 16:  ES64L-G16RevA.03 25-Dec-2016

 ------------------
 #p CCSD(T)/cc-pVTZ
 ------------------

 ---------
 O2_O2_134
 ---------
 Symbolic Z-matrix:
 Charge =  0 Multiplicity = 1

                         Standard orientation:
 ---------------------------------------------------------------------
 Center     Atomic      Atomic             Coordinates (Angstroms)
 Number     Number       Type             X           Y           Z
 ---------------------------------------------------------------------
      1          8           0       -0.870000   -1.670000    0.000000
      2          8           0        0.290000   -1.670000    0.000000
      3          8           0        0.290000    1.090000    0.000000
      4          8           0        0.290000    2.250000    0.000000
 ---------------------------------------------------------------------

 SCF Done:  E(RHF) =  -299.187837030     A.U. after   20 cycles
 E2 =    -0.9204442704D+00 EUMP2 =    -0.30010828129995D+03
 CCSD(T)
 CCSD(T)= -0.30015115793D+03

 The electronic state is 1-A'.
 Alpha  occ. eigenvalues --  -20.72911 -20.72783 -20.72666 -20.72543  -1.69871
 Alpha  occ. eigenvalues --   -1.69613  -1.08695  -1.08208  -0.78987  -0.78417
 Alpha  occ. eigenvalues --   -0.75392  -0.74338  -0.67368  -0.67166  -0.44796
 Alpha  occ. eigenvalues --   -0.44574
 Alpha virt. eigenvalues --    0.04982   0.05194   0.42394   0.45000   0.65165
 Alpha virt. eigenvalues --    0.67305   0.68796   0.72578   0.72777   0.76905
 Alpha virt. eigenvalues --    0.78386   0.79942   0.81574   0.82850   0.86342

 Mulliken charges:
               1
     1  O   -0.001685
     2  O    0.002549
     3  O    0.003522
     4  O   -0.004386
 Sum of Mulliken charges =  -0.00000

 Dipole moment (field-independent basis, Debye):
    X=              0.0174    Y=             -0.0303    Z=              0.0000  Tot=              0.0349
 Quadrupole moment (field-independent basis, Debye-Ang):
   XX=            -19.5674   YY=            -21.3580   ZZ=            -19.7625
   XY=             -0.0308   XZ=              0.0000   YZ=              0.0000

 DQ=-300.1135461\CCSD=-300.1101139\CCSD(T)=-300.1511579\RMSD=4.348e-09\
 Normal termination of Gaussian 16 at Fri Feb  9 19:33:03 2024.
