 Gaussian 16, Revision A.03,
 Gaussian 16:  ES64L-G16RevA.03 25-Dec-2016

 ------------------
 #p CCSD(T)/cc-pVTZ
 ------------------

 ---------
 O2_O2_256
 ---------
 Symbolic Z-matrix:
 Charge =  0 Multiplicity = 1

                         Standard orientation:
 ---------------------------------------------------------------------
 Center     Atomic      Atomic             Coordinates (Angstroms)
 Number     Number       Type             X           Y           Z
 ---------------------------------------------------------------------
      1          8           0        0.615183   -3.105183    0.000000
      2          8           0       -0.205061   -2.284939    0.000000
      3          8           0       -0.205061    2.115061   -0.000000
      4          8           0       -0.205061    3.275061   -0.000000
 ---------------------------------------------------------------------

 SCF Done:  E(RHF) =  -299.188891748     A.U. after   17 cycles
 E2 =    -0.9190056320D+00 EUMP2 =    -0.30010789737953D+03
 CCSD(T)
 CCSD(T)= -0.30015089858D+03

 The electronic state is 1-A'.
 Alpha  occ. eigenvalues --  -20.72929 -20.72896 -20.72813 -20.72780  -1.69862
 Alpha  occ. eigenvalues --   -1.69832  -1.08550  -1.08513  -0.78638  -0.78609
 Alpha  occ. eigenvalues --   -0.75179  -0.75124  -0.67390  -0.67360  -0.44806
 Alpha  occ. eigenvalues --   -0.44775
 Alpha virt. eigenvalues --    0.04969   0.05001   0.41859   0.44620   0.70101
 Alpha virt. eigenvalues --    0.70421   0.70600   0.70604   0.71630   0.73574
 Alpha virt. eigenvalues --    0.79148   0.80567   0.82240   0.83007   0.84748

 Mulliken charges:
               1
     1  O   -0.000327
     2  O    0.000383
     3  O    0.000597
     4  O   -0.000652
 Sum of Mulliken charges =  -0.00000

 Dipole moment (field-independent basis, Debye):
    X=             -0.0008    Y=             -0.0051    Z=             -0.0000  Tot=              0.0052
 Quadrupole moment (field-independent basis, Debye-Ang):
   XX=            -19.6564   YY=            -21.1181   ZZ=            -19.7592
   XY=             -0.0972   XZ=              0.0000   YZ=              0.0000

 DQ=-300.1007469\MP4SDQ=-300.1134332\CCSD=-300.1100347\CCSD(T)=-300.150
 Normal termination of Gaussian 16 at Fri Feb  9 21:05:31 2024.
