 Gaussian 16, Revision A.03,
 Gaussian 16:  ES64L-G16RevA.03 25-Dec-2016

 ------------------
 #p CCSD(T)/cc-pVTZ
 ------------------

 --------
 O2_O2_93
 --------
 Symbolic Z-matrix:
 Charge =  0 Multiplicity = 1

                         Standard orientation:
 ---------------------------------------------------------------------
 Center     Atomic      Atomic             Coordinates (Angstroms)
 Number     Number       Type             X           Y           Z
 ---------------------------------------------------------------------
      1          8           0        0.000000    0.000000    2.280000
      2          8           0        0.000000    0.000000    1.120000
      3          8           0        0.000000    0.000000   -1.120000
      4          8           0        0.000000    0.000000   -2.280000
 ---------------------------------------------------------------------

 SCF Done:  E(RHF) =  -298.894706624     A.U. after   10 cycles
 E2 =    -0.1663310526D+01 EUMP2 =    -0.30055801715015D+03
 CCSD(T)
 CCSD(T)= -0.30021553332D+03

 The electronic state is 1-SGG.
 Alpha  occ. eigenvalues --  -20.79835 -20.79830 -20.74841 -20.74841  -1.72875
 Alpha  occ. eigenvalues --   -1.72475  -1.13156  -1.08688  -0.80213  -0.75840
 Alpha  occ. eigenvalues --   -0.75840  -0.74300  -0.73988  -0.73988  -0.30560
 Alpha  occ. eigenvalues --   -0.30560
 Alpha virt. eigenvalues --   -0.11371  -0.11371   0.43831   0.48961   0.65671
 Alpha virt. eigenvalues --    0.65671   0.71279   0.71834   0.71834   0.76232
 Alpha virt. eigenvalues --    0.78479   0.78479   0.84487   0.84731   0.86683

 Mulliken charges:
               1
     1  O   -0.062733
     2  O    0.062733
     3  O    0.062733
     4  O   -0.062733
 Sum of Mulliken charges =  -0.00000

 Dipole moment (field-independent basis, Debye):
    X=             -0.0000    Y=             -0.0000    Z=             -0.0000  Tot=              0.0000
 Quadrupole moment (field-independent basis, Debye-Ang):
   XX=            -20.2236   YY=            -20.2236   ZZ=            -22.0374
   XY=              0.0000   XZ=              0.0000   YZ=              0.0000

 SDQ=-300.2193075\CCSD=-300.0440078\CCSD(T)=-300.2155333\RMSD=2.893e-09
 Normal termination of Gaussian 16 at Fri Feb  9 19:00:44 2024.
