 Gaussian 16, Revision A.03,
 Gaussian 16:  ES64L-G16RevA.03 25-Dec-2016

 ------------------
 #p CCSD(T)/cc-pVTZ
 ------------------

 ---------
 O2_O2_195
 ---------
 Symbolic Z-matrix:
 Charge =  0 Multiplicity = 1

                         Standard orientation:
 ---------------------------------------------------------------------
 Center     Atomic      Atomic             Coordinates (Angstroms)
 Number     Number       Type             X           Y           Z
 ---------------------------------------------------------------------
      1          8           0        0.000000    0.000000    2.960000
      2          8           0        0.000000    0.000000    1.800000
      3          8           0        0.000000    0.000000   -1.800000
      4          8           0        0.000000    0.000000   -2.960000
 ---------------------------------------------------------------------

 SCF Done:  E(RHF) =  -298.807497913     A.U. after   10 cycles
 E2 =    -0.2335933829D+01 EUMP2 =    -0.30114343174157D+03
 CCSD(T)
 CCSD(T)= -0.30028923652D+03

 The electronic state is 1-SGG.
 Alpha  occ. eigenvalues --  -20.77110 -20.77109 -20.75507 -20.75507  -1.71895
 Alpha  occ. eigenvalues --   -1.71874  -1.10287  -1.10005  -0.77048  -0.76705
 Alpha  occ. eigenvalues --   -0.74528  -0.74528  -0.74124  -0.74124  -0.26500
 Alpha  occ. eigenvalues --   -0.26500
 Alpha virt. eigenvalues --   -0.14814  -0.14814   0.36575   0.47663   0.65998
 Alpha virt. eigenvalues --    0.69291   0.69291   0.70219   0.70219   0.75476
 Alpha virt. eigenvalues --    0.77395   0.81433   0.81433   0.84217   0.84217

 Mulliken charges:
               1
     1  O   -0.017100
     2  O    0.017100
     3  O    0.017100
     4  O   -0.017100
 Sum of Mulliken charges =  -0.00000

 Dipole moment (field-independent basis, Debye):
    X=             -0.0000    Y=              0.0000    Z=              0.0000  Tot=              0.0000
 Quadrupole moment (field-independent basis, Debye-Ang):
   XX=            -20.0942   YY=            -20.0942   ZZ=            -22.0279
   XY=              0.0000   XZ=              0.0000   YZ=              0.0000

 4SDQ=-304.8193439\CCSD=-300.0269526\CCSD(T)=-300.2892365\RMSD=1.929e-0
 Normal termination of Gaussian 16 at Fri Feb  9 20:19:18 2024.
