 Gaussian 16, Revision A.03,
 Gaussian 16:  ES64L-G16RevA.03 25-Dec-2016

 ------------------
 #p CCSD(T)/cc-pVTZ
 ------------------

 ---------
 O2_O2_100
 ---------
 Symbolic Z-matrix:
 Charge =  0 Multiplicity = 1

                         Standard orientation:
 ---------------------------------------------------------------------
 Center     Atomic      Atomic             Coordinates (Angstroms)
 Number     Number       Type             X           Y           Z
 ---------------------------------------------------------------------
      1          8           0        0.615183   -2.065183    0.000000
      2          8           0       -0.205061   -1.244939    0.000000
      3          8           0       -0.205061    1.075061   -0.000000
      4          8           0       -0.205061    2.235061   -0.000000
 ---------------------------------------------------------------------

 SCF Done:  E(RHF) =  -299.182669441     A.U. after   18 cycles
 E2 =    -0.9227594841D+00 EUMP2 =    -0.30010542892509D+03
 CCSD(T)
 CCSD(T)= -0.30014759755D+03

 The electronic state is 1-A'.
 Alpha  occ. eigenvalues --  -20.73038 -20.72909 -20.72674 -20.72448  -1.70092
 Alpha  occ. eigenvalues --   -1.69597  -1.10194  -1.07244  -0.78828  -0.78418
 Alpha  occ. eigenvalues --   -0.77373  -0.73167  -0.67565  -0.66848  -0.44988
 Alpha  occ. eigenvalues --   -0.44566
 Alpha virt. eigenvalues --    0.04789   0.05432   0.43739   0.48630   0.66024
 Alpha virt. eigenvalues --    0.66727   0.71314   0.72711   0.73418   0.77444
 Alpha virt. eigenvalues --    0.79555   0.80323   0.81410   0.86883   0.89870

 Mulliken charges:
               1
     1  O   -0.004550
     2  O    0.003225
     3  O    0.012117
     4  O   -0.010792
 Sum of Mulliken charges =  -0.00000

 Dipole moment (field-independent basis, Debye):
    X=             -0.0357    Y=              0.0656    Z=             -0.0000  Tot=              0.0747
 Quadrupole moment (field-independent basis, Debye-Ang):
   XX=            -20.4857   YY=            -20.4233   ZZ=            -19.7616
   XY=              0.7323   XZ=              0.0000   YZ=             -0.0000

 P4DQ=-300.0971498\MP4SDQ=-300.1099953\CCSD=-300.1063685\CCSD(T)=-300.1
 Normal termination of Gaussian 16 at Fri Feb  9 19:07:32 2024.
