 Gaussian 16, Revision A.03,
 Gaussian 16:  ES64L-G16RevA.03 25-Dec-2016

 ------------------
 #p CCSD(T)/cc-pVTZ
 ------------------

 ---------
 O2_O2_131
 ---------
 Symbolic Z-matrix:
 Charge =  0 Multiplicity = 1

                         Standard orientation:
 ---------------------------------------------------------------------
 Center     Atomic      Atomic             Coordinates (Angstroms)
 Number     Number       Type             X           Y           Z
 ---------------------------------------------------------------------
      1          8           0       -0.870000   -1.650000    0.000000
      2          8           0        0.290000   -1.650000    0.000000
      3          8           0        0.290000    1.070000    0.000000
      4          8           0        0.290000    2.230000    0.000000
 ---------------------------------------------------------------------

 SCF Done:  E(RHF) =  -299.187566563     A.U. after   20 cycles
 E2 =    -0.9205613996D+00 EUMP2 =    -0.30010812796213D+03
 CCSD(T)
 CCSD(T)= -0.30015099073D+03

 The electronic state is 1-A'.
 Alpha  occ. eigenvalues --  -20.72909 -20.72776 -20.72649 -20.72526  -1.69876
 Alpha  occ. eigenvalues --   -1.69597  -1.08719  -1.08184  -0.79043  -0.78406
 Alpha  occ. eigenvalues --   -0.75403  -0.74258  -0.67367  -0.67155  -0.44795
 Alpha  occ. eigenvalues --   -0.44562
 Alpha virt. eigenvalues --    0.04982   0.05207   0.42466   0.45203   0.65440
 Alpha virt. eigenvalues --    0.67155   0.68805   0.72652   0.72772   0.76888
 Alpha virt. eigenvalues --    0.78192   0.79858   0.81781   0.82887   0.86477

 Mulliken charges:
               1
     1  O   -0.001844
     2  O    0.002837
     3  O    0.004073
     4  O   -0.005066
 Sum of Mulliken charges =  -0.00000

 Dipole moment (field-independent basis, Debye):
    X=              0.0191    Y=             -0.0316    Z=              0.0000  Tot=              0.0369
 Quadrupole moment (field-independent basis, Debye-Ang):
   XX=            -19.5685   YY=            -21.3699   ZZ=            -19.7627
   XY=             -0.0326   XZ=              0.0000   YZ=              0.0000

 DQ=-300.1133676\CCSD=-300.1099319\CCSD(T)=-300.1509907\RMSD=5.814e-09\
 Normal termination of Gaussian 16 at Fri Feb  9 19:30:55 2024.
