 Gaussian 16, Revision A.03,
 Gaussian 16:  ES64L-G16RevA.03 25-Dec-2016

 ------------------
 #p CCSD(T)/cc-pVTZ
 ------------------

 --------
 O2_O2_74
 --------
 Symbolic Z-matrix:
 Charge =  0 Multiplicity = 1

                         Standard orientation:
 ---------------------------------------------------------------------
 Center     Atomic      Atomic             Coordinates (Angstroms)
 Number     Number       Type             X           Y           Z
 ---------------------------------------------------------------------
      1          8           0       -0.870000   -1.270000    0.000000
      2          8           0        0.290000   -1.270000    0.000000
      3          8           0        0.290000    0.690000    0.000000
      4          8           0        0.290000    1.850000    0.000000
 ---------------------------------------------------------------------

 SCF Done:  E(RHF) =  -299.148976925     A.U. after   28 cycles
 E2 =    -0.9332755514D+00 EUMP2 =    -0.30008225247684D+03
 CCSD(T)
 CCSD(T)= -0.30012290739D+03

 The electronic state is 1-A'.
 Alpha  occ. eigenvalues --  -20.73960 -20.73433 -20.72090 -20.70941  -1.71377
 Alpha  occ. eigenvalues --   -1.68907  -1.11954  -1.06934  -0.80170  -0.79416
 Alpha  occ. eigenvalues --   -0.77964  -0.73791  -0.68383  -0.62773  -0.45859
 Alpha  occ. eigenvalues --   -0.43853
 Alpha virt. eigenvalues --    0.03798   0.06032   0.43528   0.47478   0.66153
 Alpha virt. eigenvalues --    0.69119   0.69920   0.72182   0.74252   0.75381
 Alpha virt. eigenvalues --    0.78819   0.81016   0.82231   0.87269   0.89119

 Mulliken charges:
               1
     1  O   -0.017076
     2  O    0.000120
     3  O    0.020955
     4  O   -0.004000
 Sum of Mulliken charges =  -0.00000

 Dipole moment (field-independent basis, Debye):
    X=              0.1515    Y=              0.3357    Z=              0.0000  Tot=              0.3683
 Quadrupole moment (field-independent basis, Debye-Ang):
   XX=            -21.2447   YY=            -19.8469   ZZ=            -19.7307
   XY=             -0.1296   XZ=              0.0000   YZ=              0.0000

 SDQ=-300.0839072\CCSD=-300.0801833\CCSD(T)=-300.1229074\RMSD=2.505e-09
 Normal termination of Gaussian 16 at Fri Feb  9 18:45:33 2024.
