 Gaussian 16, Revision A.03,
 Gaussian 16:  ES64L-G16RevA.03 25-Dec-2016

 ------------------
 #p CCSD(T)/cc-pVTZ
 ------------------

 --------
 O2_O2_43
 --------
 Symbolic Z-matrix:
 Charge =  0 Multiplicity = 1

                         Standard orientation:
 ---------------------------------------------------------------------
 Center     Atomic      Atomic             Coordinates (Angstroms)
 Number     Number       Type             X           Y           Z
 ---------------------------------------------------------------------
      1          8           0        0.615183   -1.685183    0.000000
      2          8           0       -0.205061   -0.864939    0.000000
      3          8           0       -0.205061    0.695062   -0.000000
      4          8           0       -0.205061    1.855060   -0.000000
 ---------------------------------------------------------------------

 SCF Done:  E(RHF) =  -299.062455787     A.U. after   17 cycles
 E2 =    -0.9515628363D+00 EUMP2 =    -0.30001401862345D+03
 CCSD(T)
 CCSD(T)= -0.30005982317D+03

 The electronic state is 1-A'.
 Alpha  occ. eigenvalues --  -20.74254 -20.74084 -20.73102 -20.68571  -1.72569
 Alpha  occ. eigenvalues --   -1.68722  -1.22197  -1.02273  -0.82975  -0.80850
 Alpha  occ. eigenvalues --   -0.78854  -0.70424  -0.68608  -0.58118  -0.46009
 Alpha  occ. eigenvalues --   -0.43448
 Alpha virt. eigenvalues --    0.03891   0.07727   0.46894   0.50197   0.65929
 Alpha virt. eigenvalues --    0.67229   0.71201   0.74105   0.74249   0.76266
 Alpha virt. eigenvalues --    0.79414   0.81371   0.83523   0.85972   0.95757

 Mulliken charges:
               1
     1  O   -0.089003
     2  O    0.059917
     3  O    0.061775
     4  O   -0.032689
 Sum of Mulliken charges =  -0.00000

 Dipole moment (field-independent basis, Debye):
    X=             -0.3074    Y=              0.5829    Z=             -0.0000  Tot=              0.6590
 Quadrupole moment (field-independent basis, Debye-Ang):
   XX=            -20.7288   YY=            -21.8068   ZZ=            -19.6663
   XY=              1.1322   XZ=              0.0000   YZ=              0.0000

 Q=-299.9948126\MP4SDQ=-300.0111858\CCSD=-300.0088441\CCSD(T)=-300.0598
 Normal termination of Gaussian 16 at Fri Feb  9 18:20:23 2024.
