 Gaussian 16, Revision A.03,
 Gaussian 16:  ES64L-G16RevA.03 25-Dec-2016

 ------------------
 #p CCSD(T)/cc-pVTZ
 ------------------

 ---------
 O2_O2_102
 ---------
 Symbolic Z-matrix:
 Charge =  0 Multiplicity = 1

                         Standard orientation:
 ---------------------------------------------------------------------
 Center     Atomic      Atomic             Coordinates (Angstroms)
 Number     Number       Type             X           Y           Z
 ---------------------------------------------------------------------
      1          8           0        0.000000    0.000000    2.340000
      2          8           0        0.000000    0.000000    1.180000
      3          8           0        0.000000    0.000000   -1.180000
      4          8           0        0.000000    0.000000   -2.340000
 ---------------------------------------------------------------------

 SCF Done:  E(RHF) =  -298.882707023     A.U. after   10 cycles
 E2 =    -0.1724480398D+01 EUMP2 =    -0.30060718742040D+03
 CCSD(T)
 CCSD(T)= -0.30022482711D+03

 The electronic state is 1-SGG.
 Alpha  occ. eigenvalues --  -20.79454 -20.79449 -20.75026 -20.75025  -1.72725
 Alpha  occ. eigenvalues --   -1.72435  -1.12459  -1.09077  -0.79591  -0.75615
 Alpha  occ. eigenvalues --   -0.75615  -0.74962  -0.74074  -0.74074  -0.29970
 Alpha  occ. eigenvalues --   -0.29970
 Alpha virt. eigenvalues --   -0.11922  -0.11922   0.43099   0.48968   0.65830
 Alpha virt. eigenvalues --    0.65830   0.70206   0.71672   0.71672   0.76104
 Alpha virt. eigenvalues --    0.78353   0.78353   0.83086   0.84776   0.86578

 Mulliken charges:
               1
     1  O   -0.053703
     2  O    0.053703
     3  O    0.053703
     4  O   -0.053703
 Sum of Mulliken charges =  -0.00000

 Dipole moment (field-independent basis, Debye):
    X=             -0.0000    Y=             -0.0000    Z=             -0.0000  Tot=              0.0000
 Quadrupole moment (field-independent basis, Debye-Ang):
   XX=            -20.2114   YY=            -20.2114   ZZ=            -21.9561
   XY=              0.0000   XZ=              0.0000   YZ=              0.0000

 4SDQ=-300.3319789\CCSD=-300.0413589\CCSD(T)=-300.2248271\RMSD=2.683e-0
 Normal termination of Gaussian 16 at Fri Feb  9 19:09:07 2024.
