 Gaussian 16, Revision A.03,
 Gaussian 16:  ES64L-G16RevA.03 25-Dec-2016

 ------------------
 #p CCSD(T)/cc-pVTZ
 ------------------

 --------
 O2_O2_28
 --------
 Symbolic Z-matrix:
 Charge =  0 Multiplicity = 1

                         Standard orientation:
 ---------------------------------------------------------------------
 Center     Atomic      Atomic             Coordinates (Angstroms)
 Number     Number       Type             X           Y           Z
 ---------------------------------------------------------------------
      1          8           0        0.615183   -1.585183   -0.000000
      2          8           0       -0.205061   -0.764939   -0.000000
      3          8           0       -0.205061    0.595061    0.000000
      4          8           0       -0.205061    1.755061    0.000000
 ---------------------------------------------------------------------

 SCF Done:  E(RHF) =  -298.958608069     A.U. after   18 cycles
 E2 =    -0.9839806532D+00 EUMP2 =    -0.29994258872183D+03
 CCSD(T)
 CCSD(T)= -0.29999738428D+03

 The electronic state is 1-A'.
 Alpha  occ. eigenvalues --  -20.79584 -20.78805 -20.73830 -20.63733  -1.77475
 Alpha  occ. eigenvalues --   -1.69036  -1.32689  -1.00261  -0.85448  -0.84088
 Alpha  occ. eigenvalues --   -0.82307  -0.71740  -0.69624  -0.50933  -0.47918
 Alpha  occ. eigenvalues --   -0.41767
 Alpha virt. eigenvalues --    0.01725   0.09767   0.47051   0.51454   0.65124
 Alpha virt. eigenvalues --    0.65966   0.67643   0.71189   0.74780   0.76025
 Alpha virt. eigenvalues --    0.80418   0.81308   0.84877   0.86590   0.94572

 Mulliken charges:
               1
     1  O   -0.221724
     2  O    0.140480
     3  O    0.146452
     4  O   -0.065208
 Sum of Mulliken charges =  -0.00000

 Dipole moment (field-independent basis, Debye):
    X=             -0.6542    Y=              1.2709    Z=              0.0000  Tot=              1.4294
 Quadrupole moment (field-independent basis, Debye-Ang):
   XX=            -21.1188   YY=            -23.3798   ZZ=            -19.5526
   XY=              1.5647   XZ=              0.0000   YZ=             -0.0000

 4DQ=-299.9053262\MP4SDQ=-299.9339174\CCSD=-299.9319574\CCSD(T)=-299.99
 Normal termination of Gaussian 16 at Fri Feb  9 18:07:45 2024.
