 Gaussian 16, Revision A.03,
 Gaussian 16:  ES64L-G16RevA.03 25-Dec-2016

 ------------------
 #p CCSD(T)/cc-pVTZ
 ------------------

 ---------
 O2_O2_246
 ---------
 Symbolic Z-matrix:
 Charge =  0 Multiplicity = 1

                         Standard orientation:
 ---------------------------------------------------------------------
 Center     Atomic      Atomic             Coordinates (Angstroms)
 Number     Number       Type             X           Y           Z
 ---------------------------------------------------------------------
      1          8           0        0.000000    0.000000    3.300000
      2          8           0        0.000000    0.000000    2.140000
      3          8           0        0.000000    0.000000   -2.140000
      4          8           0        0.000000    0.000000   -3.300000
 ---------------------------------------------------------------------

 SCF Done:  E(RHF) =  -298.789578749     A.U. after   10 cycles
 E2 =    -0.2644172151D+01 EUMP2 =    -0.30143375089999D+03
 CCSD(T)
 CCSD(T)= -0.30030531875D+03

 The electronic state is 1-SGG.
 Alpha  occ. eigenvalues --  -20.76739 -20.76738 -20.75611 -20.75611  -1.71792
 Alpha  occ. eigenvalues --   -1.71784  -1.10131  -1.10013  -0.76843  -0.76761
 Alpha  occ. eigenvalues --   -0.74377  -0.74377  -0.74123  -0.74123  -0.25621
 Alpha  occ. eigenvalues --   -0.25621
 Alpha virt. eigenvalues --   -0.15595  -0.15595   0.39920   0.45047   0.69746
 Alpha virt. eigenvalues --    0.69746   0.69796   0.69916   0.69916   0.73759
 Alpha virt. eigenvalues --    0.77376   0.80624   0.82507   0.82507   0.83041

 Mulliken charges:
               1
     1  O   -0.013718
     2  O    0.013718
     3  O    0.013718
     4  O   -0.013718
 Sum of Mulliken charges =  -0.00000

 Dipole moment (field-independent basis, Debye):
    X=             -0.0000    Y=             -0.0000    Z=              0.0000  Tot=              0.0000
 Quadrupole moment (field-independent basis, Debye-Ang):
   XX=            -20.0769   YY=            -20.0769   ZZ=            -22.0090
   XY=              0.0000   XZ=              0.0000   YZ=              0.0000

 4SDQ=-310.7722933\CCSD=-300.0249878\CCSD(T)=-300.3053187\RMSD=1.771e-0
 Normal termination of Gaussian 16 at Fri Feb  9 20:56:43 2024.
