 Gaussian 16, Revision A.03,
 Gaussian 16:  ES64L-G16RevA.03 25-Dec-2016

 ------------------
 #p CCSD(T)/cc-pVTZ
 ------------------

 --------
 O2_O2_86
 --------
 Symbolic Z-matrix:
 Charge =  0 Multiplicity = 1

                         Standard orientation:
 ---------------------------------------------------------------------
 Center     Atomic      Atomic             Coordinates (Angstroms)
 Number     Number       Type             X           Y           Z
 ---------------------------------------------------------------------
      1          8           0       -0.870000   -1.350000    0.000000
      2          8           0        0.290000   -1.350000    0.000000
      3          8           0        0.290000    0.770000    0.000000
      4          8           0        0.290000    1.930000    0.000000
 ---------------------------------------------------------------------

 SCF Done:  E(RHF) =  -298.914476148     A.U. after   17 cycles
 E2 =    -0.1507308888D+01 EUMP2 =    -0.30042178503507D+03
 CCSD(T)
 CCSD(T)= -0.30019475254D+03

 The electronic state is 1-A'.
 Alpha  occ. eigenvalues --  -20.79598 -20.78011 -20.76232 -20.73862  -1.73058
 Alpha  occ. eigenvalues --   -1.71877  -1.12447  -1.09566  -0.80740  -0.77440
 Alpha  occ. eigenvalues --   -0.75928  -0.74604  -0.73706  -0.70628  -0.32721
 Alpha  occ. eigenvalues --   -0.31369
 Alpha virt. eigenvalues --   -0.10599  -0.08757   0.42026   0.46957   0.64923
 Alpha virt. eigenvalues --    0.68105   0.70108   0.71347   0.73352   0.74187
 Alpha virt. eigenvalues --    0.77321   0.78466   0.81698   0.86651   0.87502

 Mulliken charges:
               1
     1  O   -0.010349
     2  O    0.023196
     3  O    0.061727
     4  O   -0.074575
 Sum of Mulliken charges =  -0.00000

 Dipole moment (field-independent basis, Debye):
    X=              0.0763    Y=             -0.3317    Z=              0.0000  Tot=              0.3404
 Quadrupole moment (field-independent basis, Debye-Ang):
   XX=            -20.8050   YY=            -21.1091   ZZ=            -20.1211
   XY=             -0.0319   XZ=              0.0000   YZ=              0.0000

 DQ=-300.0173988\CCSD=-300.0427745\CCSD(T)=-300.1947525\RMSD=5.475e-09\
 Normal termination of Gaussian 16 at Fri Feb  9 18:55:04 2024.
