 Gaussian 16, Revision A.03,
 Gaussian 16:  ES64L-G16RevA.03 25-Dec-2016

 ------------------
 #p CCSD(T)/cc-pVTZ
 ------------------

 ---------
 O2_O2_234
 ---------
 Symbolic Z-matrix:
 Charge =  0 Multiplicity = 1

                         Standard orientation:
 ---------------------------------------------------------------------
 Center     Atomic      Atomic             Coordinates (Angstroms)
 Number     Number       Type             X           Y           Z
 ---------------------------------------------------------------------
      1          8           0        0.000000    0.000000    3.220000
      2          8           0        0.000000    0.000000    2.060000
      3          8           0        0.000000    0.000000   -2.060000
      4          8           0        0.000000    0.000000   -3.220000
 ---------------------------------------------------------------------

 SCF Done:  E(RHF) =  -298.793111418     A.U. after   10 cycles
 E2 =    -0.2572894502D+01 EUMP2 =    -0.30136600591949D+03
 CCSD(T)
 CCSD(T)= -0.30030218186D+03

 The electronic state is 1-SGG.
 Alpha  occ. eigenvalues --  -20.76798 -20.76797 -20.75586 -20.75586  -1.71806
 Alpha  occ. eigenvalues --   -1.71795  -1.10152  -1.10011  -0.76869  -0.76754
 Alpha  occ. eigenvalues --   -0.74400  -0.74400  -0.74120  -0.74120  -0.25795
 Alpha  occ. eigenvalues --   -0.25795
 Alpha virt. eigenvalues --   -0.15432  -0.15432   0.39065   0.45671   0.68935
 Alpha virt. eigenvalues --    0.69694   0.69694   0.69955   0.69955   0.74228
 Alpha virt. eigenvalues --    0.77261   0.81707   0.82365   0.82365   0.83186

 Mulliken charges:
               1
     1  O   -0.014477
     2  O    0.014477
     3  O    0.014477
     4  O   -0.014477
 Sum of Mulliken charges =   0.00000

 Dipole moment (field-independent basis, Debye):
    X=             -0.0000    Y=              0.0000    Z=              0.0000  Tot=              0.0000
 Quadrupole moment (field-independent basis, Debye-Ang):
   XX=            -20.0792   YY=            -20.0792   ZZ=            -22.0197
   XY=              0.0000   XZ=              0.0000   YZ=              0.0000

 SDQ=-309.105372\CCSD=-300.0253263\CCSD(T)=-300.3021819\RMSD=1.754e-09\
 Normal termination of Gaussian 16 at Fri Feb  9 20:48:05 2024.
