 Gaussian 16, Revision A.03,
 Gaussian 16:  ES64L-G16RevA.03 25-Dec-2016

 ------------------
 #p CCSD(T)/cc-pVTZ
 ------------------

 --------
 O2_O2_55
 --------
 Symbolic Z-matrix:
 Charge =  0 Multiplicity = 1

                         Standard orientation:
 ---------------------------------------------------------------------
 Center     Atomic      Atomic             Coordinates (Angstroms)
 Number     Number       Type             X           Y           Z
 ---------------------------------------------------------------------
      1          8           0        0.615183   -1.765183    0.000000
      2          8           0       -0.205061   -0.944939    0.000000
      3          8           0       -0.205061    0.775061   -0.000000
      4          8           0       -0.205061    1.935061   -0.000000
 ---------------------------------------------------------------------

 SCF Done:  E(RHF) =  -299.117511284     A.U. after   18 cycles
 E2 =    -0.9386009844D+00 EUMP2 =    -0.30005611226882D+03
 CCSD(T)
 CCSD(T)= -0.30009712675D+03

 The electronic state is 1-A'.
 Alpha  occ. eigenvalues --  -20.73099 -20.73032 -20.72913 -20.70442  -1.71189
 Alpha  occ. eigenvalues --   -1.68949  -1.17124  -1.03838  -0.81562  -0.79626
 Alpha  occ. eigenvalues --   -0.78343  -0.70518  -0.68050  -0.62187  -0.45408
 Alpha  occ. eigenvalues --   -0.43957
 Alpha virt. eigenvalues --    0.04454   0.06819   0.46365   0.49722   0.65929
 Alpha virt. eigenvalues --    0.67241   0.73001   0.73842   0.74077   0.77358
 Alpha virt. eigenvalues --    0.78723   0.81573   0.82290   0.86042   0.95829

 Mulliken charges:
               1
     1  O   -0.044711
     2  O    0.030361
     3  O    0.037993
     4  O   -0.023643
 Sum of Mulliken charges =  -0.00000

 Dipole moment (field-independent basis, Debye):
    X=             -0.1802    Y=              0.3177    Z=              0.0000  Tot=              0.3652
 Quadrupole moment (field-independent basis, Debye-Ang):
   XX=            -20.5998   YY=            -21.2172   ZZ=            -19.7151
   XY=              0.9465   XZ=              0.0000   YZ=             -0.0000

 4DQ=-300.0421412\MP4SDQ=-300.0563507\CCSD=-300.0524925\CCSD(T)=-300.09
 Normal termination of Gaussian 16 at Fri Feb  9 18:30:23 2024.
