 Gaussian 16, Revision A.03,
 Gaussian 16:  ES64L-G16RevA.03 25-Dec-2016

 ------------------
 #p CCSD(T)/cc-pVTZ
 ------------------

 ---------
 O2_O2_279
 ---------
 Symbolic Z-matrix:
 Charge =  0 Multiplicity = 1

                         Standard orientation:
 ---------------------------------------------------------------------
 Center     Atomic      Atomic             Coordinates (Angstroms)
 Number     Number       Type             X           Y           Z
 ---------------------------------------------------------------------
      1          8           0        0.000000    0.000000    3.520000
      2          8           0        0.000000    0.000000    2.360000
      3          8           0        0.000000    0.000000   -2.360000
      4          8           0        0.000000    0.000000   -3.520000
 ---------------------------------------------------------------------

 SCF Done:  E(RHF) =  -298.781280082     A.U. after   10 cycles
 E2 =    -0.2837729748D+01 EUMP2 =    -0.30161900982966D+03
 CCSD(T)
 CCSD(T)= -0.30031263918D+03

 The electronic state is 1-SGG.
 Alpha  occ. eigenvalues --  -20.76625 -20.76624 -20.75679 -20.75679  -1.71774
 Alpha  occ. eigenvalues --   -1.71769  -1.10100  -1.10020  -0.76806  -0.76774
 Alpha  occ. eigenvalues --   -0.74335  -0.74335  -0.74138  -0.74138  -0.25210
 Alpha  occ. eigenvalues --   -0.25210
 Alpha virt. eigenvalues --   -0.15991  -0.15991   0.41599   0.43711   0.69814
 Alpha virt. eigenvalues --    0.69814   0.69862   0.69862   0.71326   0.72741
 Alpha virt. eigenvalues --    0.77854   0.79108   0.82702   0.82702   0.82847

 Mulliken charges:
               1
     1  O   -0.011759
     2  O    0.011759
     3  O    0.011759
     4  O   -0.011759
 Sum of Mulliken charges =  -0.00000

 Dipole moment (field-independent basis, Debye):
    X=             -0.0000    Y=             -0.0000    Z=              0.0000  Tot=              0.0000
 Quadrupole moment (field-independent basis, Debye-Ang):
   XX=            -20.0737   YY=            -20.0737   ZZ=            -21.9708
   XY=              0.0000   XZ=              0.0000   YZ=              0.0000

 4SDQ=-316.3013577\CCSD=-300.02428\CCSD(T)=-300.3126392\RMSD=1.724e-09\
 Normal termination of Gaussian 16 at Fri Feb  9 21:22:14 2024.
