 Gaussian 16, Revision A.03,
 Gaussian 16:  ES64L-G16RevA.03 25-Dec-2016

 ------------------
 #p CCSD(T)/cc-pVTZ
 ------------------

 --------
 O2_O2_63
 --------
 Symbolic Z-matrix:
 Charge =  0 Multiplicity = 1

                         Standard orientation:
 ---------------------------------------------------------------------
 Center     Atomic      Atomic             Coordinates (Angstroms)
 Number     Number       Type             X           Y           Z
 ---------------------------------------------------------------------
      1          8           0        0.000000    0.000000    2.080000
      2          8           0        0.000000    0.000000    0.920000
      3          8           0        0.000000    0.000000   -0.920000
      4          8           0        0.000000    0.000000   -2.080000
 ---------------------------------------------------------------------

 SCF Done:  E(RHF) =  -298.929834239     A.U. after   10 cycles
 E2 =    -0.1465453337D+01 EUMP2 =    -0.30039528757520D+03
 CCSD(T)
 CCSD(T)= -0.30017731490D+03

 The electronic state is 1-SGG.
 Alpha  occ. eigenvalues --  -20.81147 -20.81139 -20.73559 -20.73559  -1.73583
 Alpha  occ. eigenvalues --   -1.72327  -1.17870  -1.06248  -0.82964  -0.77047
 Alpha  occ. eigenvalues --   -0.77047  -0.73278  -0.73278  -0.69773  -0.33165
 Alpha  occ. eigenvalues --   -0.33165
 Alpha virt. eigenvalues --   -0.08651  -0.08651   0.45624   0.49019   0.66035
 Alpha virt. eigenvalues --    0.66035   0.72164   0.72511   0.72511   0.76254
 Alpha virt. eigenvalues --    0.80050   0.80050   0.84123   0.84943   0.94460

 Mulliken charges:
               1
     1  O   -0.100765
     2  O    0.100765
     3  O    0.100765
     4  O   -0.100765
 Sum of Mulliken charges =  -0.00000

 Dipole moment (field-independent basis, Debye):
    X=             -0.0000    Y=             -0.0000    Z=             -0.0000  Tot=              0.0000
 Quadrupole moment (field-independent basis, Debye-Ang):
   XX=            -20.2119   YY=            -20.2119   ZZ=            -22.7951
   XY=              0.0000   XZ=              0.0000   YZ=              0.0000

 DQ=-300.0551614\CCSD=-300.0448143\CCSD(T)=-300.1773149\RMSD=4.826e-09\
 Normal termination of Gaussian 16 at Fri Feb  9 18:36:51 2024.
