 Gaussian 16, Revision A.03,
 Gaussian 16:  ES64L-G16RevA.03 25-Dec-2016

 ------------------
 #p CCSD(T)/cc-pVTZ
 ------------------

 --------
 O2_O2_29
 --------
 Symbolic Z-matrix:
 Charge =  0 Multiplicity = 1

                         Standard orientation:
 ---------------------------------------------------------------------
 Center     Atomic      Atomic             Coordinates (Angstroms)
 Number     Number       Type             X           Y           Z
 ---------------------------------------------------------------------
      1          8           0       -0.870000   -0.970000    0.000000
      2          8           0        0.290000   -0.970000    0.000000
      3          8           0        0.290000    0.390000    0.000000
      4          8           0        0.290000    1.550000    0.000000
 ---------------------------------------------------------------------

 SCF Done:  E(RHF) =  -298.899062324     A.U. after   18 cycles
 E2 =    -0.9691104936D+00 EUMP2 =    -0.29986817281772D+03
 CCSD(T)
 CCSD(T)= -0.29994040420D+03

 The electronic state is 1-A'.
 Alpha  occ. eigenvalues --  -20.80041 -20.78378 -20.76781 -20.57646  -1.80973
 Alpha  occ. eigenvalues --   -1.69016  -1.25884  -1.04951  -0.88197  -0.83407
 Alpha  occ. eigenvalues --   -0.83202  -0.72304  -0.68834  -0.51517  -0.44590
 Alpha  occ. eigenvalues --   -0.40238
 Alpha virt. eigenvalues --    0.00192   0.09978   0.43570   0.46849   0.61675
 Alpha virt. eigenvalues --    0.65860   0.68657   0.71246   0.74287   0.75186
 Alpha virt. eigenvalues --    0.82436   0.83995   0.86186   0.88669   0.89455

 Mulliken charges:
               1
     1  O   -0.322917
     2  O    0.163235
     3  O    0.181431
     4  O   -0.021749
 Sum of Mulliken charges =  -0.00000

 Dipole moment (field-independent basis, Debye):
    X=              1.9057    Y=              1.3244    Z=              0.0000  Tot=              2.3207
 Quadrupole moment (field-independent basis, Debye-Ang):
   XX=            -22.0489   YY=            -21.1396   ZZ=            -19.5043
   XY=             -1.6718   XZ=              0.0000   YZ=              0.0000

 DQ=-299.8645688\CCSD=-299.8715225\CCSD(T)=-299.9404042\RMSD=3.518e-09\
 Normal termination of Gaussian 16 at Fri Feb  9 18:08:49 2024.
