 Gaussian 16, Revision A.03,
 Gaussian 16:  ES64L-G16RevA.03 25-Dec-2016

 ------------------
 #p CCSD(T)/cc-pVTZ
 ------------------

 ---------
 O2_O2_245
 ---------
 Symbolic Z-matrix:
 Charge =  0 Multiplicity = 1

                         Standard orientation:
 ---------------------------------------------------------------------
 Center     Atomic      Atomic             Coordinates (Angstroms)
 Number     Number       Type             X           Y           Z
 ---------------------------------------------------------------------
      1          8           0       -0.870000   -2.410000    0.000000
      2          8           0        0.290000   -2.410000    0.000000
      3          8           0        0.290000    1.830000    0.000000
      4          8           0        0.290000    2.990000    0.000000
 ---------------------------------------------------------------------

 SCF Done:  E(RHF) =  -299.188903702     A.U. after   17 cycles
 E2 =    -0.9190355718D+00 EUMP2 =    -0.30010793927398D+03
 CCSD(T)
 CCSD(T)= -0.30015094241D+03

 The electronic state is 1-A'.
 Alpha  occ. eigenvalues --  -20.72925 -20.72875 -20.72809 -20.72758  -1.69856
 Alpha  occ. eigenvalues --   -1.69811  -1.08547  -1.08492  -0.78632  -0.78588
 Alpha  occ. eigenvalues --   -0.75173  -0.75106  -0.67385  -0.67339  -0.44802
 Alpha  occ. eigenvalues --   -0.44755
 Alpha virt. eigenvalues --    0.04972   0.05023   0.42948   0.43482   0.68911
 Alpha virt. eigenvalues --    0.70370   0.70621   0.70672   0.72558   0.73888
 Alpha virt. eigenvalues --    0.79808   0.80203   0.82271   0.82537   0.84739

 Mulliken charges:
               1
     1  O   -0.000282
     2  O    0.000353
     3  O    0.000816
     4  O   -0.000886
 Sum of Mulliken charges =  -0.00000

 Dipole moment (field-independent basis, Debye):
    X=              0.0015    Y=             -0.0082    Z=              0.0000  Tot=              0.0083
 Quadrupole moment (field-independent basis, Debye-Ang):
   XX=            -19.5536   YY=            -21.2197   ZZ=            -19.7593
   XY=             -0.0072   XZ=              0.0000   YZ=              0.0000

 SDQ=-300.1134706\CCSD=-300.1100751\CCSD(T)=-300.1509424\RMSD=6.900e-09
 Normal termination of Gaussian 16 at Fri Feb  9 20:56:08 2024.
