 Gaussian 16, Revision A.03,
 Gaussian 16:  ES64L-G16RevA.03 25-Dec-2016

 ------------------
 #p CCSD(T)/cc-pVTZ
 ------------------

 --------
 O2_O2_56
 --------
 Symbolic Z-matrix:
 Charge =  0 Multiplicity = 1

                         Standard orientation:
 ---------------------------------------------------------------------
 Center     Atomic      Atomic             Coordinates (Angstroms)
 Number     Number       Type             X           Y           Z
 ---------------------------------------------------------------------
      1          8           0       -0.870000   -1.150000    0.000000
      2          8           0        0.290000   -1.150000    0.000000
      3          8           0        0.290000    0.570000    0.000000
      4          8           0        0.290000    1.730000    0.000000
 ---------------------------------------------------------------------

 SCF Done:  E(RHF) =  -299.094040438     A.U. after   23 cycles
 E2 =    -0.9451722475D+00 EUMP2 =    -0.30003921268556D+03
 CCSD(T)
 CCSD(T)= -0.30008107538D+03

 The electronic state is 1-A'.
 Alpha  occ. eigenvalues --  -20.74359 -20.73687 -20.72503 -20.68835  -1.72707
 Alpha  occ. eigenvalues --   -1.68499  -1.15078  -1.05905  -0.82378  -0.80325
 Alpha  occ. eigenvalues --   -0.78131  -0.73314  -0.68651  -0.58619  -0.46271
 Alpha  occ. eigenvalues --   -0.43292
 Alpha virt. eigenvalues --    0.03260   0.06788   0.43750   0.47698   0.66719
 Alpha virt. eigenvalues --    0.66776   0.69777   0.71797   0.74959   0.76144
 Alpha virt. eigenvalues --    0.80160   0.82601   0.82827   0.87968   0.89300

 Mulliken charges:
               1
     1  O   -0.056276
     2  O    0.020327
     3  O    0.039150
     4  O   -0.003201
 Sum of Mulliken charges =   0.00000

 Dipole moment (field-independent basis, Debye):
    X=              0.3964    Y=              0.5408    Z=              0.0000  Tot=              0.6706
 Quadrupole moment (field-independent basis, Debye-Ang):
   XX=            -21.3329   YY=            -20.1456   ZZ=            -19.6842
   XY=             -0.3526   XZ=              0.0000   YZ=              0.0000

 SDQ=-300.0376843\CCSD=-300.0346351\CCSD(T)=-300.0810754\RMSD=2.210e-09
 Normal termination of Gaussian 16 at Fri Feb  9 18:31:23 2024.
