 Gaussian 16, Revision A.03,
 Gaussian 16:  ES64L-G16RevA.03 25-Dec-2016

 ------------------
 #p CCSD(T)/cc-pVTZ
 ------------------

 --------
 O2_O2_79
 --------
 Symbolic Z-matrix:
 Charge =  0 Multiplicity = 1

                         Standard orientation:
 ---------------------------------------------------------------------
 Center     Atomic      Atomic             Coordinates (Angstroms)
 Number     Number       Type             X           Y           Z
 ---------------------------------------------------------------------
      1          8           0        0.615183   -1.925183    0.000000
      2          8           0       -0.205061   -1.104939   -0.000000
      3          8           0       -0.205061    0.935061   -0.000000
      4          8           0       -0.205061    2.095061   -0.000000
 ---------------------------------------------------------------------

 SCF Done:  E(RHF) =  -299.168468702     A.U. after   18 cycles
 E2 =    -0.9267355114D+00 EUMP2 =    -0.30009520421328D+03
 CCSD(T)
 CCSD(T)= -0.30013651582D+03

 The electronic state is 1-A'.
 Alpha  occ. eigenvalues --  -20.72992 -20.72833 -20.72591 -20.71980  -1.70294
 Alpha  occ. eigenvalues --   -1.69381  -1.12027  -1.06103  -0.79026  -0.78865
 Alpha  occ. eigenvalues --   -0.78309  -0.71867  -0.67651  -0.65924  -0.45059
 Alpha  occ. eigenvalues --   -0.44389
 Alpha virt. eigenvalues --    0.04739   0.05854   0.45014   0.49103   0.65731
 Alpha virt. eigenvalues --    0.66725   0.73086   0.73192   0.74041   0.77691
 Alpha virt. eigenvalues --    0.79825   0.80353   0.81313   0.86621   0.94585

 Mulliken charges:
               1
     1  O   -0.012286
     2  O    0.007706
     3  O    0.022209
     4  O   -0.017628
 Sum of Mulliken charges =  -0.00000

 Dipole moment (field-independent basis, Debye):
    X=             -0.0715    Y=              0.1227    Z=              0.0000  Tot=              0.1420
 Quadrupole moment (field-independent basis, Debye-Ang):
   XX=            -20.5098   YY=            -20.6436   ZZ=            -19.7545
   XY=              0.7819   XZ=             -0.0000   YZ=             -0.0000

 DQ=-300.0855697\MP4SDQ=-300.0986565\CCSD=-300.0948095\CCSD(T)=-300.136
 Normal termination of Gaussian 16 at Fri Feb  9 18:49:21 2024.
