 Gaussian 16, Revision A.03,
 Gaussian 16:  ES64L-G16RevA.03 25-Dec-2016

 ------------------
 #p CCSD(T)/cc-pVTZ
 ------------------

 ---------
 O2_O2_287
 ---------
 Symbolic Z-matrix:
 Charge =  0 Multiplicity = 1

                         Standard orientation:
 ---------------------------------------------------------------------
 Center     Atomic      Atomic             Coordinates (Angstroms)
 Number     Number       Type             X           Y           Z
 ---------------------------------------------------------------------
      1          8           0       -0.870000   -2.690000    0.000000
      2          8           0        0.290000   -2.690000    0.000000
      3          8           0        0.290000    2.110000    0.000000
      4          8           0        0.290000    3.270000    0.000000
 ---------------------------------------------------------------------

 SCF Done:  E(RHF) =  -299.188875537     A.U. after   18 cycles
 E2 =    -0.9189629633D+00 EUMP2 =    -0.30010783849984D+03
 CCSD(T)
 CCSD(T)= -0.30015085337D+03

 The electronic state is 1-A'.
 Alpha  occ. eigenvalues --  -20.72929 -20.72898 -20.72813 -20.72782  -1.69862
 Alpha  occ. eigenvalues --   -1.69834  -1.08552  -1.08518  -0.78638  -0.78611
 Alpha  occ. eigenvalues --   -0.75173  -0.75137  -0.67391  -0.67362  -0.44808
 Alpha  occ. eigenvalues --   -0.44778
 Alpha virt. eigenvalues --    0.04967   0.04999   0.43236   0.43385   0.70262
 Alpha virt. eigenvalues --    0.70437   0.70584   0.70610   0.72554   0.72747
 Alpha virt. eigenvalues --    0.79912   0.80021   0.82249   0.82250   0.84728

 Mulliken charges:
               1
     1  O   -0.000193
     2  O    0.000200
     3  O    0.000615
     4  O   -0.000622
 Sum of Mulliken charges =  -0.00000

 Dipole moment (field-independent basis, Debye):
    X=              0.0011    Y=             -0.0046    Z=              0.0000  Tot=              0.0047
 Quadrupole moment (field-independent basis, Debye-Ang):
   XX=            -19.5528   YY=            -21.2127   ZZ=            -19.7590
   XY=             -0.0052   XZ=              0.0000   YZ=              0.0000

 SDQ=-300.1133873\CCSD=-300.1099938\CCSD(T)=-300.1508534\RMSD=6.728e-09
 Normal termination of Gaussian 16 at Fri Feb  9 21:27:35 2024.
