 Gaussian 16, Revision A.03,
 Gaussian 16:  ES64L-G16RevA.03 25-Dec-2016

 ------------------
 #p CCSD(T)/cc-pVTZ
 ------------------

 ---------
 O2_O2_276
 ---------
 Symbolic Z-matrix:
 Charge =  0 Multiplicity = 1

                         Standard orientation:
 ---------------------------------------------------------------------
 Center     Atomic      Atomic             Coordinates (Angstroms)
 Number     Number       Type             X           Y           Z
 ---------------------------------------------------------------------
      1          8           0        0.000000    0.000000    3.500000
      2          8           0        0.000000    0.000000    2.340000
      3          8           0        0.000000    0.000000   -2.340000
      4          8           0        0.000000    0.000000   -3.500000
 ---------------------------------------------------------------------

 SCF Done:  E(RHF) =  -298.781964117     A.U. after   10 cycles
 E2 =    -0.2820244757D+01 EUMP2 =    -0.30160220887421D+03
 CCSD(T)
 CCSD(T)= -0.30031203644D+03

 The electronic state is 1-SGG.
 Alpha  occ. eigenvalues --  -20.76633 -20.76633 -20.75673 -20.75673  -1.71775
 Alpha  occ. eigenvalues --   -1.71770  -1.10102  -1.10019  -0.76808  -0.76773
 Alpha  occ. eigenvalues --   -0.74338  -0.74338  -0.74137  -0.74137  -0.25243
 Alpha  occ. eigenvalues --   -0.25243
 Alpha virt. eigenvalues --   -0.15958  -0.15958   0.41490   0.43804   0.69811
 Alpha virt. eigenvalues --    0.69811   0.69865   0.69865   0.71237   0.72810
 Alpha virt. eigenvalues --    0.77810   0.79188   0.82692   0.82692   0.82856

 Mulliken charges:
               1
     1  O   -0.011924
     2  O    0.011924
     3  O    0.011924
     4  O   -0.011924
 Sum of Mulliken charges =  -0.00000

 Dipole moment (field-independent basis, Debye):
    X=             -0.0000    Y=              0.0000    Z=              0.0000  Tot=              0.0000
 Quadrupole moment (field-independent basis, Debye-Ang):
   XX=            -20.0739   YY=            -20.0739   ZZ=            -21.9745
   XY=              0.0000   XZ=              0.0000   YZ=              0.0000

 P4SDQ=-315.7381526\CCSD=-300.0243336\CCSD(T)=-300.3120364\RMSD=1.727e-
 Normal termination of Gaussian 16 at Fri Feb  9 21:20:09 2024.
