 Gaussian 16, Revision A.03,
 Gaussian 16:  ES64L-G16RevA.03 25-Dec-2016

 ------------------
 #p CCSD(T)/cc-pVTZ
 ------------------

 ---------
 O2_O2_204
 ---------
 Symbolic Z-matrix:
 Charge =  0 Multiplicity = 1

                         Standard orientation:
 ---------------------------------------------------------------------
 Center     Atomic      Atomic             Coordinates (Angstroms)
 Number     Number       Type             X           Y           Z
 ---------------------------------------------------------------------
      1          8           0        0.000000    0.000000    3.020000
      2          8           0        0.000000    0.000000    1.860000
      3          8           0        0.000000    0.000000   -1.860000
      4          8           0        0.000000    0.000000   -3.020000
 ---------------------------------------------------------------------

 SCF Done:  E(RHF) =  -298.803688015     A.U. after   10 cycles
 E2 =    -0.2391489445D+01 EUMP2 =    -0.30119517745978D+03
 CCSD(T)
 CCSD(T)= -0.30029268791D+03

 The electronic state is 1-SGG.
 Alpha  occ. eigenvalues --  -20.77017 -20.77016 -20.75525 -20.75525  -1.71866
 Alpha  occ. eigenvalues --   -1.71849  -1.10243  -1.10007  -0.76989  -0.76723
 Alpha  occ. eigenvalues --   -0.74489  -0.74489  -0.74121  -0.74121  -0.26315
 Alpha  occ. eigenvalues --   -0.26315
 Alpha virt. eigenvalues --   -0.14971  -0.14971   0.36967   0.47253   0.66586
 Alpha virt. eigenvalues --    0.69428   0.69428   0.70135   0.70135   0.75257
 Alpha virt. eigenvalues --    0.77289   0.81723   0.81723   0.83877   0.83877

 Mulliken charges:
               1
     1  O   -0.016420
     2  O    0.016420
     3  O    0.016420
     4  O   -0.016420
 Sum of Mulliken charges =  -0.00000

 Dipole moment (field-independent basis, Debye):
    X=             -0.0000    Y=             -0.0000    Z=              0.0000  Tot=              0.0000
 Quadrupole moment (field-independent basis, Debye-Ang):
   XX=            -20.0894   YY=            -20.0894   ZZ=            -22.0310
   XY=              0.0000   XZ=              0.0000   YZ=              0.0000

 4SDQ=-305.6632153\CCSD=-300.0264822\CCSD(T)=-300.2926879\RMSD=1.881e-0
 Normal termination of Gaussian 16 at Fri Feb  9 20:26:05 2024.
