 Gaussian 16, Revision A.03,
 Gaussian 16:  ES64L-G16RevA.03 25-Dec-2016

 ------------------
 #p CCSD(T)/cc-pVTZ
 ------------------

 ---------
 O2_O2_120
 ---------
 Symbolic Z-matrix:
 Charge =  0 Multiplicity = 1

                         Standard orientation:
 ---------------------------------------------------------------------
 Center     Atomic      Atomic             Coordinates (Angstroms)
 Number     Number       Type             X           Y           Z
 ---------------------------------------------------------------------
      1          8           0        0.000000    0.000000    2.460000
      2          8           0        0.000000    0.000000    1.300000
      3          8           0        0.000000    0.000000   -1.300000
      4          8           0        0.000000    0.000000   -2.460000
 ---------------------------------------------------------------------

 SCF Done:  E(RHF) =  -298.861106489     A.U. after   10 cycles
 E2 =    -0.1847020891D+01 EUMP2 =    -0.30070812738000D+03
 CCSD(T)
 CCSD(T)= -0.30024207179D+03

 The electronic state is 1-SGG.
 Alpha  occ. eigenvalues --  -20.78760 -20.78757 -20.75250 -20.75250  -1.72470
 Alpha  occ. eigenvalues --   -1.72313  -1.11536  -1.09569  -0.78632  -0.75806
 Alpha  occ. eigenvalues --   -0.75259  -0.75259  -0.74154  -0.74154  -0.28976
 Alpha  occ. eigenvalues --   -0.28976
 Alpha virt. eigenvalues --   -0.12795  -0.12795   0.41303   0.48953   0.66487
 Alpha virt. eigenvalues --    0.66487   0.67777   0.71360   0.71360   0.75941
 Alpha virt. eigenvalues --    0.78475   0.78475   0.80662   0.85314   0.86746

 Mulliken charges:
               1
     1  O   -0.039221
     2  O    0.039221
     3  O    0.039221
     4  O   -0.039221
 Sum of Mulliken charges =  -0.00000

 Dipole moment (field-independent basis, Debye):
    X=             -0.0000    Y=             -0.0000    Z=              0.0000  Tot=              0.0000
 Quadrupole moment (field-independent basis, Debye-Ang):
   XX=            -20.1814   YY=            -20.1814   ZZ=            -21.9024
   XY=              0.0000   XZ=              0.0000   YZ=              0.0000

 SDQ=-300.6880351\CCSD=-300.0365026\CCSD(T)=-300.2420718\RMSD=2.449e-09
 Normal termination of Gaussian 16 at Fri Feb  9 19:22:44 2024.
