 Gaussian 16, Revision A.03,
 Gaussian 16:  ES64L-G16RevA.03 25-Dec-2016

 ------------------
 #p CCSD(T)/cc-pVTZ
 ------------------

 ---------
 O2_O2_257
 ---------
 Symbolic Z-matrix:
 Charge =  0 Multiplicity = 1

                         Standard orientation:
 ---------------------------------------------------------------------
 Center     Atomic      Atomic             Coordinates (Angstroms)
 Number     Number       Type             X           Y           Z
 ---------------------------------------------------------------------
      1          8           0       -0.870000   -2.490000    0.000000
      2          8           0        0.290000   -2.490000    0.000000
      3          8           0        0.290000    1.910000    0.000000
      4          8           0        0.290000    3.070000    0.000000
 ---------------------------------------------------------------------

 SCF Done:  E(RHF) =  -299.188891907     A.U. after   19 cycles
 E2 =    -0.9190063762D+00 EUMP2 =    -0.30010789828333D+03
 CCSD(T)
 CCSD(T)= -0.30015090610D+03

 The electronic state is 1-A'.
 Alpha  occ. eigenvalues --  -20.72926 -20.72883 -20.72810 -20.72766  -1.69858
 Alpha  occ. eigenvalues --   -1.69819  -1.08548  -1.08501  -0.78634  -0.78596
 Alpha  occ. eigenvalues --   -0.75172  -0.75117  -0.67386  -0.67346  -0.44803
 Alpha  occ. eigenvalues --   -0.44762
 Alpha virt. eigenvalues --    0.04971   0.05015   0.43081   0.43453   0.69521
 Alpha virt. eigenvalues --    0.70410   0.70622   0.70627   0.72556   0.73391
 Alpha virt. eigenvalues --    0.79851   0.80132   0.82264   0.82395   0.84734

 Mulliken charges:
               1
     1  O   -0.000255
     2  O    0.000295
     3  O    0.000767
     4  O   -0.000806
 Sum of Mulliken charges =  -0.00000

 Dipole moment (field-independent basis, Debye):
    X=              0.0014    Y=             -0.0068    Z=              0.0000  Tot=              0.0070
 Quadrupole moment (field-independent basis, Debye-Ang):
   XX=            -19.5534   YY=            -21.2179   ZZ=            -19.7592
   XY=             -0.0066   XZ=              0.0000   YZ=              0.0000

 SDQ=-300.1134363\CCSD=-300.1100418\CCSD(T)=-300.1509061\RMSD=7.090e-09
 Normal termination of Gaussian 16 at Fri Feb  9 21:06:20 2024.
