 Gaussian 16, Revision A.03,
 Gaussian 16:  ES64L-G16RevA.03 25-Dec-2016

 ------------------
 #p CCSD(T)/cc-pVTZ
 ------------------

 ---------
 O2_O2_101
 ---------
 Symbolic Z-matrix:
 Charge =  0 Multiplicity = 1

                         Standard orientation:
 ---------------------------------------------------------------------
 Center     Atomic      Atomic             Coordinates (Angstroms)
 Number     Number       Type             X           Y           Z
 ---------------------------------------------------------------------
      1          8           0       -0.870000   -1.450000    0.000000
      2          8           0        0.290000   -1.450000    0.000000
      3          8           0        0.290000    0.870000    0.000000
      4          8           0        0.290000    2.030000    0.000000
 ---------------------------------------------------------------------

 SCF Done:  E(RHF) =  -298.898698729     A.U. after   17 cycles
 E2 =    -0.1594239815D+01 EUMP2 =    -0.30049293854413D+03
 CCSD(T)
 CCSD(T)= -0.30021264541D+03

 The electronic state is 1-A'.
 Alpha  occ. eigenvalues --  -20.79240 -20.77742 -20.76476 -20.74412  -1.72728
 Alpha  occ. eigenvalues --   -1.72063  -1.11597  -1.09896  -0.79497  -0.77304
 Alpha  occ. eigenvalues --   -0.75498  -0.74614  -0.74048  -0.72265  -0.31535
 Alpha  occ. eigenvalues --   -0.30462
 Alpha virt. eigenvalues --   -0.11544  -0.10027   0.41987   0.46122   0.64950
 Alpha virt. eigenvalues --    0.67078   0.70737   0.71581   0.72861   0.73206
 Alpha virt. eigenvalues --    0.76737   0.77828   0.81607   0.83820   0.86730

 Mulliken charges:
               1
     1  O   -0.006124
     2  O    0.016314
     3  O    0.048007
     4  O   -0.058197
 Sum of Mulliken charges =  -0.00000

 Dipole moment (field-independent basis, Debye):
    X=              0.0345    Y=             -0.2775    Z=              0.0000  Tot=              0.2796
 Quadrupole moment (field-independent basis, Debye-Ang):
   XX=            -20.8214   YY=            -20.9430   ZZ=            -20.1237
   XY=              0.0078   XZ=              0.0000   YZ=              0.0000

 4SDQ=-300.0689488\CCSD=-300.0424356\CCSD(T)=-300.2126454\RMSD=9.136e-0
 Normal termination of Gaussian 16 at Fri Feb  9 19:08:30 2024.
