 Gaussian 16, Revision A.03,
 Gaussian 16:  ES64L-G16RevA.03 25-Dec-2016

 ------------------
 #p CCSD(T)/cc-pVTZ
 ------------------

 -------
 O2_O2_4
 -------
 Symbolic Z-matrix:
 Charge =  0 Multiplicity = 1

                         Standard orientation:
 ---------------------------------------------------------------------
 Center     Atomic      Atomic             Coordinates (Angstroms)
 Number     Number       Type             X           Y           Z
 ---------------------------------------------------------------------
      1          8           0        0.615183   -1.425183    0.000000
      2          8           0       -0.205061   -0.604939   -0.000000
      3          8           0       -0.205061    0.435061   -0.000000
      4          8           0       -0.205061    1.595061   -0.000000
 ---------------------------------------------------------------------

 SCF Done:  E(RHF) =  -298.831814744     A.U. after   15 cycles
 E2 =    -0.9501498638D+00 EUMP2 =    -0.29978196460818D+03
 CCSD(T)
 CCSD(T)= -0.29981229082D+03

 The electronic state is 1-A'.
 Alpha  occ. eigenvalues --  -20.92565 -20.85456 -20.65813 -20.61969  -2.03078
 Alpha  occ. eigenvalues --   -1.68726  -1.51894  -1.05076  -0.99975  -0.92773
 Alpha  occ. eigenvalues --   -0.86072  -0.72602  -0.67526  -0.52133  -0.43188
 Alpha  occ. eigenvalues --   -0.42956
 Alpha virt. eigenvalues --    0.05743   0.26912   0.46897   0.52897   0.60806
 Alpha virt. eigenvalues --    0.61090   0.62915   0.67267   0.76113   0.79071
 Alpha virt. eigenvalues --    0.80466   0.84112   0.84159   0.88167   0.92173

 Mulliken charges:
               1
     1  O   -0.365877
     2  O    0.339690
     3  O    0.315701
     4  O   -0.289513
 Sum of Mulliken charges =   0.00000

 Dipole moment (field-independent basis, Debye):
    X=             -1.0816    Y=              0.1049    Z=             -0.0000  Tot=              1.0867
 Quadrupole moment (field-independent basis, Debye-Ang):
   XX=            -21.1313   YY=            -26.9612   ZZ=            -19.0251
   XY=              1.8224   XZ=             -0.0000   YZ=              0.0000

 DQ=-299.7520103\MP4SDQ=-299.768981\CCSD=-299.7658607\CCSD(T)=-299.8122
 Normal termination of Gaussian 16 at Fri Feb  9 17:45:56 2024.
