 Gaussian 16, Revision A.03,
 Gaussian 16:  ES64L-G16RevA.03 25-Dec-2016

 ------------------
 #p CCSD(T)/cc-pVTZ
 ------------------

 ---------
 O2_O2_138
 ---------
 Symbolic Z-matrix:
 Charge =  0 Multiplicity = 1

                         Standard orientation:
 ---------------------------------------------------------------------
 Center     Atomic      Atomic             Coordinates (Angstroms)
 Number     Number       Type             X           Y           Z
 ---------------------------------------------------------------------
      1          8           0        0.000000    0.000000    2.580000
      2          8           0        0.000000    0.000000    1.420000
      3          8           0        0.000000    0.000000   -1.420000
      4          8           0        0.000000    0.000000   -2.580000
 ---------------------------------------------------------------------

 SCF Done:  E(RHF) =  -298.843398573     A.U. after   10 cycles
 E2 =    -0.1968395865D+01 EUMP2 =    -0.30081179443892D+03
 CCSD(T)
 CCSD(T)= -0.30025705112D+03

 The electronic state is 1-SGG.
 Alpha  occ. eigenvalues --  -20.78186 -20.78183 -20.75364 -20.75363  -1.72266
 Alpha  occ. eigenvalues --   -1.72176  -1.10988  -1.09819  -0.77978  -0.76262
 Alpha  occ. eigenvalues --   -0.74994  -0.74994  -0.74168  -0.74168  -0.28178
 Alpha  occ. eigenvalues --   -0.28178
 Alpha virt. eigenvalues --   -0.13455  -0.13455   0.39275   0.48893   0.65962
 Alpha virt. eigenvalues --    0.67360   0.67360   0.71049   0.71049   0.75917
 Alpha virt. eigenvalues --    0.78991   0.78991   0.79279   0.85761   0.86907

 Mulliken charges:
               1
     1  O   -0.029542
     2  O    0.029542
     3  O    0.029542
     4  O   -0.029542
 Sum of Mulliken charges =  -0.00000

 Dipole moment (field-independent basis, Debye):
    X=             -0.0000    Y=             -0.0000    Z=             -0.0000  Tot=              0.0000
 Quadrupole moment (field-independent basis, Debye-Ang):
   XX=            -20.1524   YY=            -20.1524   ZZ=            -21.9239
   XY=              0.0000   XZ=              0.0000   YZ=              0.0000

 SDQ=-301.2555863\CCSD=-300.0328126\CCSD(T)=-300.2570511\RMSD=2.298e-09
 Normal termination of Gaussian 16 at Fri Feb  9 19:35:54 2024.
