 Gaussian 16, Revision A.03,
 Gaussian 16:  ES64L-G16RevA.03 25-Dec-2016

 ------------------
 #p CCSD(T)/cc-pVTZ
 ------------------

 ---------
 O2_O2_189
 ---------
 Symbolic Z-matrix:
 Charge =  0 Multiplicity = 1

                         Standard orientation:
 ---------------------------------------------------------------------
 Center     Atomic      Atomic             Coordinates (Angstroms)
 Number     Number       Type             X           Y           Z
 ---------------------------------------------------------------------
      1          8           0        0.000000    0.000000    2.920000
      2          8           0        0.000000    0.000000    1.760000
      3          8           0        0.000000    0.000000   -1.760000
      4          8           0        0.000000    0.000000   -2.920000
 ---------------------------------------------------------------------

 SCF Done:  E(RHF) =  -298.810245408     A.U. after   10 cycles
 E2 =    -0.2298553128D+01 EUMP2 =    -0.30110879853557D+03
 CCSD(T)
 CCSD(T)= -0.30028674192D+03

 The electronic state is 1-SGG.
 Alpha  occ. eigenvalues --  -20.77181 -20.77179 -20.75496 -20.75495  -1.71918
 Alpha  occ. eigenvalues --   -1.71894  -1.10322  -1.10001  -0.77096  -0.76690
 Alpha  occ. eigenvalues --   -0.74558  -0.74558  -0.74128  -0.74128  -0.26633
 Alpha  occ. eigenvalues --   -0.26633
 Alpha virt. eigenvalues --   -0.14703  -0.14703   0.36427   0.47905   0.65669
 Alpha virt. eigenvalues --    0.69179   0.69179   0.70283   0.70283   0.75597
 Alpha virt. eigenvalues --    0.77491   0.81214   0.81214   0.84488   0.84488

 Mulliken charges:
               1
     1  O   -0.017633
     2  O    0.017633
     3  O    0.017633
     4  O   -0.017633
 Sum of Mulliken charges =  -0.00000

 Dipole moment (field-independent basis, Debye):
    X=             -0.0000    Y=             -0.0000    Z=             -0.0000  Tot=              0.0000
 Quadrupole moment (field-independent basis, Debye-Ang):
   XX=            -20.0980   YY=            -20.0980   ZZ=            -22.0236
   XY=              0.0000   XZ=              0.0000   YZ=              0.0000

 P4SDQ=-304.3023704\CCSD=-300.0273101\CCSD(T)=-300.2867419\RMSD=1.963e-
 Normal termination of Gaussian 16 at Fri Feb  9 20:14:52 2024.
