 Gaussian 16, Revision A.03,
 Gaussian 16:  ES64L-G16RevA.03 25-Dec-2016

 ------------------
 #p CCSD(T)/cc-pVTZ
 ------------------

 ---------
 O2_O2_112
 ---------
 Symbolic Z-matrix:
 Charge =  0 Multiplicity = 1

                         Standard orientation:
 ---------------------------------------------------------------------
 Center     Atomic      Atomic             Coordinates (Angstroms)
 Number     Number       Type             X           Y           Z
 ---------------------------------------------------------------------
      1          8           0        0.615183   -2.145183    0.000000
      2          8           0       -0.205061   -1.324939    0.000000
      3          8           0       -0.205061    1.155061   -0.000000
      4          8           0       -0.205061    2.315061   -0.000000
 ---------------------------------------------------------------------

 SCF Done:  E(RHF) =  -299.185886632     A.U. after   18 cycles
 E2 =    -0.9215881815D+00 EUMP2 =    -0.30010747481362D+03
 CCSD(T)
 CCSD(T)= -0.30014992038D+03

 The electronic state is 1-A'.
 Alpha  occ. eigenvalues --  -20.73051 -20.72931 -20.72733 -20.72573  -1.70044
 Alpha  occ. eigenvalues --   -1.69670  -1.09639  -1.07651  -0.78800  -0.78469
 Alpha  occ. eigenvalues --   -0.76767  -0.73712  -0.67543  -0.67059  -0.44967
 Alpha  occ. eigenvalues --   -0.44627
 Alpha virt. eigenvalues --    0.04806   0.05282   0.42911   0.48341   0.66411
 Alpha virt. eigenvalues --    0.67036   0.69743   0.72447   0.73113   0.77274
 Alpha virt. eigenvalues --    0.79435   0.80141   0.81255   0.86719   0.88171

 Mulliken charges:
               1
     1  O   -0.002784
     2  O    0.002057
     3  O    0.006922
     4  O   -0.006195
 Sum of Mulliken charges =   0.00000

 Dipole moment (field-independent basis, Debye):
    X=             -0.0253    Y=              0.0485    Z=             -0.0000  Tot=              0.0548
 Quadrupole moment (field-independent basis, Debye-Ang):
   XX=            -20.4790   YY=            -20.3573   ZZ=            -19.7616
   XY=              0.7205   XZ=             -0.0000   YZ=              0.0000

 P4DQ=-300.0995737\MP4SDQ=-300.1123601\CCSD=-300.1088065\CCSD(T)=-300.1
 Normal termination of Gaussian 16 at Fri Feb  9 19:16:45 2024.
