 Gaussian 16, Revision A.03,
 Gaussian 16:  ES64L-G16RevA.03 25-Dec-2016

 ------------------
 #p CCSD(T)/cc-pVTZ
 ------------------

 --------
 O2_O2_18
 --------
 Symbolic Z-matrix:
 Charge =  0 Multiplicity = 1

                         Standard orientation:
 ---------------------------------------------------------------------
 Center     Atomic      Atomic             Coordinates (Angstroms)
 Number     Number       Type             X           Y           Z
 ---------------------------------------------------------------------
      1          8           0        0.000000    0.000000    1.780000
      2          8           0        0.000000    0.000000    0.620000
      3          8           0        0.000000    0.000000   -0.620000
      4          8           0        0.000000    0.000000   -1.780000
 ---------------------------------------------------------------------

 SCF Done:  E(RHF) =  -298.708321946     A.U. after   12 cycles
 E2 =    -0.1265672418D+01 EUMP2 =    -0.29997399436382D+03
 CCSD(T)
 CCSD(T)= -0.29988359284D+03

 The electronic state is 1-SGG.
 Alpha  occ. eigenvalues --  -20.85168 -20.85110 -20.67013 -20.67013  -1.82046
 Alpha  occ. eigenvalues --   -1.70370  -1.43497  -0.97913  -0.86345  -0.86345
 Alpha  occ. eigenvalues --   -0.86182  -0.69702  -0.69702  -0.41888  -0.39883
 Alpha  occ. eigenvalues --   -0.39883
 Alpha virt. eigenvalues --   -0.00051  -0.00051   0.44604   0.50968   0.61329
 Alpha virt. eigenvalues --    0.65161   0.65161   0.67839   0.74643   0.74643
 Alpha virt. eigenvalues --    0.82947   0.84769   0.84769   0.99085   1.00199

 Mulliken charges:
               1
     1  O   -0.192213
     2  O    0.192213
     3  O    0.192213
     4  O   -0.192213
 Sum of Mulliken charges =  -0.00000

 Dipole moment (field-independent basis, Debye):
    X=             -0.0000    Y=             -0.0000    Z=              0.0000  Tot=              0.0000
 Quadrupole moment (field-independent basis, Debye-Ang):
   XX=            -19.7573   YY=            -19.7573   ZZ=            -27.0293
   XY=              0.0000   XZ=              0.0000   YZ=              0.0000

 Q=-299.8333085\CCSD=-299.7882413\CCSD(T)=-299.8835928\RMSD=2.568e-09\P
 Normal termination of Gaussian 16 at Fri Feb  9 17:56:50 2024.
