 Gaussian 16, Revision A.03,
 Gaussian 16:  ES64L-G16RevA.03 25-Dec-2016

 ------------------
 #p CCSD(T)/cc-pVTZ
 ------------------

 ---------
 O2_O2_168
 ---------
 Symbolic Z-matrix:
 Charge =  0 Multiplicity = 1

                         Standard orientation:
 ---------------------------------------------------------------------
 Center     Atomic      Atomic             Coordinates (Angstroms)
 Number     Number       Type             X           Y           Z
 ---------------------------------------------------------------------
      1          8           0        0.000000    0.000000    2.780000
      2          8           0        0.000000    0.000000    1.620000
      3          8           0        0.000000    0.000000   -1.620000
      4          8           0        0.000000    0.000000   -2.780000
 ---------------------------------------------------------------------

 SCF Done:  E(RHF) =  -298.821464023     A.U. after   10 cycles
 E2 =    -0.2165349603D+01 EUMP2 =    -0.30098681362585D+03
 CCSD(T)
 CCSD(T)= -0.30027655586D+03

 The electronic state is 1-SGG.
 Alpha  occ. eigenvalues --  -20.77497 -20.77495 -20.75454 -20.75454  -1.72024
 Alpha  occ. eigenvalues --   -1.71985  -1.10499  -1.09974  -0.77336  -0.76599
 Alpha  occ. eigenvalues --   -0.74692  -0.74692  -0.74145  -0.74145  -0.27168
 Alpha  occ. eigenvalues --   -0.27168
 Alpha virt. eigenvalues --   -0.14266  -0.14266   0.36753   0.48532   0.65041
 Alpha virt. eigenvalues --    0.68626   0.68626   0.70559   0.70559   0.75863
 Alpha virt. eigenvalues --    0.77992   0.80313   0.80313   0.85764   0.85764

 Mulliken charges:
               1
     1  O   -0.020498
     2  O    0.020498
     3  O    0.020498
     4  O   -0.020498
 Sum of Mulliken charges =   0.00000

 Dipole moment (field-independent basis, Debye):
    X=             -0.0000    Y=             -0.0000    Z=              0.0000  Tot=              0.0000
 Quadrupole moment (field-independent basis, Debye-Ang):
   XX=            -20.1152   YY=            -20.1152   ZZ=            -21.9936
   XY=              0.0000   XZ=              0.0000   YZ=              0.0000

 Q=-302.7670486\CCSD=-300.0289311\CCSD(T)=-300.2765559\RMSD=2.088e-09\P
 Normal termination of Gaussian 16 at Fri Feb  9 19:58:07 2024.
