 Gaussian 16, Revision A.03,
 Gaussian 16:  ES64L-G16RevA.03 25-Dec-2016

 ------------------
 #p CCSD(T)/cc-pVTZ
 ------------------

 ---------
 O2_O2_116
 ---------
 Symbolic Z-matrix:
 Charge =  0 Multiplicity = 1

                         Standard orientation:
 ---------------------------------------------------------------------
 Center     Atomic      Atomic             Coordinates (Angstroms)
 Number     Number       Type             X           Y           Z
 ---------------------------------------------------------------------
      1          8           0       -0.870000   -1.550000    0.000000
      2          8           0        0.290000   -1.550000    0.000000
      3          8           0        0.290000    0.970000    0.000000
      4          8           0        0.290000    2.130000    0.000000
 ---------------------------------------------------------------------

 SCF Done:  E(RHF) =  -299.185185978     A.U. after   27 cycles
 E2 =    -0.9213410438D+00 EUMP2 =    -0.30010652702144D+03
 CCSD(T)
 CCSD(T)= -0.30014928878D+03

 The electronic state is 1-A'.
 Alpha  occ. eigenvalues --  -20.72904 -20.72718 -20.72532 -20.72411  -1.69925
 Alpha  occ. eigenvalues --   -1.69488  -1.08903  -1.08027  -0.79459  -0.78339
 Alpha  occ. eigenvalues --   -0.75454  -0.73713  -0.67371  -0.67089  -0.44788
 Alpha  occ. eigenvalues --   -0.44486
 Alpha virt. eigenvalues --    0.04979   0.05288   0.42710   0.46336   0.66494
 Alpha virt. eigenvalues --    0.66947   0.69523   0.72692   0.73018   0.76243
 Alpha virt. eigenvalues --    0.77590   0.79645   0.83076   0.83226   0.87171

 Mulliken charges:
               1
     1  O   -0.002952
     2  O    0.004907
     3  O    0.007998
     4  O   -0.009952
 Sum of Mulliken charges =   0.00000

 Dipole moment (field-independent basis, Debye):
    X=              0.0300    Y=             -0.0414    Z=              0.0000  Tot=              0.0511
 Quadrupole moment (field-independent basis, Debye-Ang):
   XX=            -19.5744   YY=            -21.4451   ZZ=            -19.7631
   XY=             -0.0442   XZ=              0.0000   YZ=              0.0000

 =-300.1115898\CCSD=-300.1081307\CCSD(T)=-300.1492888\RMSD=1.321e-09\PG
 Normal termination of Gaussian 16 at Fri Feb  9 19:19:51 2024.
