 Gaussian 16, Revision A.03,
 Gaussian 16:  ES64L-G16RevA.03 25-Dec-2016

 ------------------
 #p CCSD(T)/cc-pVTZ
 ------------------

 ---------
 O2_O2_140
 ---------
 Symbolic Z-matrix:
 Charge =  0 Multiplicity = 1

                         Standard orientation:
 ---------------------------------------------------------------------
 Center     Atomic      Atomic             Coordinates (Angstroms)
 Number     Number       Type             X           Y           Z
 ---------------------------------------------------------------------
      1          8           0       -0.870000   -1.710000    0.000000
      2          8           0        0.290000   -1.710000    0.000000
      3          8           0        0.290000    1.130000    0.000000
      4          8           0        0.290000    2.290000    0.000000
 ---------------------------------------------------------------------

 SCF Done:  E(RHF) =  -299.188248482     A.U. after   21 cycles
 E2 =    -0.9202380497D+00 EUMP2 =    -0.30010848653153D+03
 CCSD(T)
 CCSD(T)= -0.30015138627D+03

 The electronic state is 1-A'.
 Alpha  occ. eigenvalues --  -20.72915 -20.72793 -20.72696 -20.72573  -1.69863
 Alpha  occ. eigenvalues --   -1.69641  -1.08656  -1.08251  -0.78893  -0.78437
 Alpha  occ. eigenvalues --   -0.75370  -0.74474  -0.67368  -0.67186  -0.44796
 Alpha  occ. eigenvalues --   -0.44595
 Alpha virt. eigenvalues --    0.04981   0.05172   0.42224   0.44643   0.64692
 Alpha virt. eigenvalues --    0.67610   0.68855   0.72430   0.72779   0.76924
 Alpha virt. eigenvalues --    0.78692   0.80193   0.81228   0.82777   0.86084

 Mulliken charges:
               1
     1  O   -0.001406
     2  O    0.002071
     3  O    0.002605
     4  O   -0.003271
 Sum of Mulliken charges =   0.00000

 Dipole moment (field-independent basis, Debye):
    X=              0.0145    Y=             -0.0280    Z=              0.0000  Tot=              0.0316
 Quadrupole moment (field-independent basis, Debye-Ang):
   XX=            -19.5655   YY=            -21.3366   ZZ=            -19.7622
   XY=             -0.0275   XZ=              0.0000   YZ=              0.0000

 DQ=-300.1137944\CCSD=-300.1103681\CCSD(T)=-300.1513863\RMSD=2.112e-09\
 Normal termination of Gaussian 16 at Fri Feb  9 19:37:35 2024.
