 Gaussian 16, Revision A.03,
 Gaussian 16:  ES64L-G16RevA.03 25-Dec-2016

 ------------------
 #p CCSD(T)/cc-pVTZ
 ------------------

 --------
 O2_O2_16
 --------
 Symbolic Z-matrix:
 Charge =  0 Multiplicity = 1

                         Standard orientation:
 ---------------------------------------------------------------------
 Center     Atomic      Atomic             Coordinates (Angstroms)
 Number     Number       Type             X           Y           Z
 ---------------------------------------------------------------------
      1          8           0        0.615183   -1.505183    0.000000
      2          8           0       -0.205061   -0.684939    0.000000
      3          8           0       -0.205061    0.515061   -0.000000
      4          8           0       -0.205061    1.675061   -0.000000
 ---------------------------------------------------------------------

 SCF Done:  E(RHF) =  -298.898688307     A.U. after   17 cycles
 E2 =    -0.1005241225D+01 EUMP2 =    -0.29990392953175D+03
 CCSD(T)
 CCSD(T)= -0.29992689761D+03

 The electronic state is 1-A'.
 Alpha  occ. eigenvalues --  -20.90085 -20.83953 -20.69505 -20.62685  -1.87470
 Alpha  occ. eigenvalues --   -1.69697  -1.43668  -0.99561  -0.91374  -0.90537
 Alpha  occ. eigenvalues --   -0.85031  -0.74298  -0.69499  -0.50971  -0.46250
 Alpha  occ. eigenvalues --   -0.40695
 Alpha virt. eigenvalues --    0.00638   0.15477   0.46919   0.52955   0.63238
 Alpha virt. eigenvalues --    0.63593   0.64385   0.66573   0.75304   0.77451
 Alpha virt. eigenvalues --    0.80439   0.82947   0.84699   0.86150   0.92820

 Mulliken charges:
               1
     1  O   -0.319103
     2  O    0.264706
     3  O    0.257953
     4  O   -0.203556
 Sum of Mulliken charges =   0.00000

 Dipole moment (field-independent basis, Debye):
    X=             -0.8547    Y=              0.5854    Z=             -0.0000  Tot=              1.0360
 Quadrupole moment (field-independent basis, Debye-Ang):
   XX=            -21.3058   YY=            -25.7891   ZZ=            -19.3511
   XY=              1.7238   XZ=             -0.0000   YZ=              0.0000

 4DQ=-299.8467377\MP4SDQ=-299.8751132\CCSD=-299.8674795\CCSD(T)=-299.92
 Normal termination of Gaussian 16 at Fri Feb  9 17:55:16 2024.
