 Gaussian 16, Revision A.03,
 Gaussian 16:  ES64L-G16RevA.03 25-Dec-2016

 ------------------
 #p CCSD(T)/cc-pVTZ
 ------------------

 ---------
 O2_O2_221
 ---------
 Symbolic Z-matrix:
 Charge =  0 Multiplicity = 1

                         Standard orientation:
 ---------------------------------------------------------------------
 Center     Atomic      Atomic             Coordinates (Angstroms)
 Number     Number       Type             X           Y           Z
 ---------------------------------------------------------------------
      1          8           0       -0.870000   -2.250000    0.000000
      2          8           0        0.290000   -2.250000    0.000000
      3          8           0        0.290000    1.670000    0.000000
      4          8           0        0.290000    2.830000    0.000000
 ---------------------------------------------------------------------

 SCF Done:  E(RHF) =  -299.188937336     A.U. after   19 cycles
 E2 =    -0.9191264212D+00 EUMP2 =    -0.30010806375683D+03
 CCSD(T)
 CCSD(T)= -0.30015105529D+03

 The electronic state is 1-A'.
 Alpha  occ. eigenvalues --  -20.72926 -20.72856 -20.72810 -20.72739  -1.69855
 Alpha  occ. eigenvalues --   -1.69792  -1.08547  -1.08471  -0.78631  -0.78570
 Alpha  occ. eigenvalues --   -0.75182  -0.75072  -0.67383  -0.67320  -0.44800
 Alpha  occ. eigenvalues --   -0.44735
 Alpha virt. eigenvalues --    0.04974   0.05043   0.42470   0.43540   0.67175
 Alpha virt. eigenvalues --    0.70197   0.70575   0.70842   0.72568   0.75168
 Alpha virt. eigenvalues --    0.79660   0.80337   0.82293   0.82976   0.84764

 Mulliken charges:
               1
     1  O   -0.000352
     2  O    0.000529
     3  O    0.000833
     4  O   -0.001010
 Sum of Mulliken charges =   0.00000

 Dipole moment (field-independent basis, Debye):
    X=              0.0018    Y=             -0.0120    Z=              0.0000  Tot=              0.0121
 Quadrupole moment (field-independent basis, Debye-Ang):
   XX=            -19.5544   YY=            -21.2239   ZZ=            -19.7595
   XY=             -0.0088   XZ=              0.0000   YZ=              0.0000

 4SDQ=-300.1135759\CCSD=-300.1101776\CCSD(T)=-300.1510553\RMSD=7.117e-0
 Normal termination of Gaussian 16 at Fri Feb  9 20:38:43 2024.
