 Gaussian 16, Revision A.03,
 Gaussian 16:  ES64L-G16RevA.03 25-Dec-2016

 ------------------
 #p CCSD(T)/cc-pVTZ
 ------------------

 ---------
 O2_O2_264
 ---------
 Symbolic Z-matrix:
 Charge =  0 Multiplicity = 1

                         Standard orientation:
 ---------------------------------------------------------------------
 Center     Atomic      Atomic             Coordinates (Angstroms)
 Number     Number       Type             X           Y           Z
 ---------------------------------------------------------------------
      1          8           0        0.000000    0.000000    3.420000
      2          8           0        0.000000    0.000000    2.260000
      3          8           0        0.000000    0.000000   -2.260000
      4          8           0        0.000000    0.000000   -3.420000
 ---------------------------------------------------------------------

 SCF Done:  E(RHF) =  -298.784829578     A.U. after   10 cycles
 E2 =    -0.2750111841D+01 EUMP2 =    -0.30153494141910D+03
 CCSD(T)
 CCSD(T)= -0.30030951431D+03

 The electronic state is 1-SGG.
 Alpha  occ. eigenvalues --  -20.76670 -20.76669 -20.75649 -20.75649  -1.71780
 Alpha  occ. eigenvalues --   -1.71774  -1.10111  -1.10016  -0.76818  -0.76769
 Alpha  occ. eigenvalues --   -0.74351  -0.74351  -0.74131  -0.74131  -0.25385
 Alpha  occ. eigenvalues --   -0.25385
 Alpha virt. eigenvalues --   -0.15819  -0.15819   0.40971   0.44235   0.69793
 Alpha virt. eigenvalues --    0.69793   0.69879   0.69879   0.70788   0.73134
 Alpha virt. eigenvalues --    0.77629   0.79601   0.82640   0.82640   0.82908

 Mulliken charges:
               1
     1  O   -0.012615
     2  O    0.012615
     3  O    0.012615
     4  O   -0.012615
 Sum of Mulliken charges =  -0.00000

 Dipole moment (field-independent basis, Debye):
    X=             -0.0000    Y=              0.0000    Z=             -0.0000  Tot=              0.0000
 Quadrupole moment (field-independent basis, Debye-Ang):
   XX=            -20.0747   YY=            -20.0747   ZZ=            -21.9892
   XY=              0.0000   XZ=              0.0000   YZ=              0.0000

 P4SDQ=-313.6093472\CCSD=-300.0245688\CCSD(T)=-300.3095143\RMSD=1.740e-
 Normal termination of Gaussian 16 at Fri Feb  9 21:11:16 2024.
