 Gaussian 16, Revision A.03,
 Gaussian 16:  ES64L-G16RevA.03 25-Dec-2016

 ------------------
 #p CCSD(T)/cc-pVTZ
 ------------------

 --------
 O2_O2_98
 --------
 Symbolic Z-matrix:
 Charge =  0 Multiplicity = 1

                         Standard orientation:
 ---------------------------------------------------------------------
 Center     Atomic      Atomic             Coordinates (Angstroms)
 Number     Number       Type             X           Y           Z
 ---------------------------------------------------------------------
      1          8           0       -0.870000   -1.430000    0.000000
      2          8           0        0.290000   -1.430000    0.000000
      3          8           0        0.290000    0.850000    0.000000
      4          8           0        0.290000    2.010000    0.000000
 ---------------------------------------------------------------------

 SCF Done:  E(RHF) =  -298.902027565     A.U. after   17 cycles
 E2 =    -0.1576730162D+01 EUMP2 =    -0.30047875772699D+03
 CCSD(T)
 CCSD(T)= -0.30020938807D+03

 The electronic state is 1-A'.
 Alpha  occ. eigenvalues --  -20.79317 -20.77793 -20.76445 -20.74321  -1.72783
 Alpha  occ. eigenvalues --   -1.72038  -1.11731  -1.09844  -0.79717  -0.77328
 Alpha  occ. eigenvalues --   -0.75571  -0.74617  -0.73995  -0.71998  -0.31756
 Alpha  occ. eigenvalues --   -0.30630
 Alpha virt. eigenvalues --   -0.11376  -0.09797   0.42001   0.46303   0.64909
 Alpha virt. eigenvalues --    0.67280   0.71057   0.71456   0.72954   0.73117
 Alpha virt. eigenvalues --    0.76870   0.77860   0.81620   0.84395   0.86751

 Mulliken charges:
               1
     1  O   -0.006664
     2  O    0.017328
     3  O    0.050611
     4  O   -0.061275
 Sum of Mulliken charges =  -0.00000

 Dipole moment (field-independent basis, Debye):
    X=              0.0406    Y=             -0.2870    Z=              0.0000  Tot=              0.2898
 Quadrupole moment (field-independent basis, Debye-Ang):
   XX=            -20.8197   YY=            -20.9684   ZZ=            -20.1243
   XY=              0.0031   XZ=              0.0000   YZ=              0.0000

 SDQ=-300.0548055\CCSD=-300.0427875\CCSD(T)=-300.2093881\RMSD=6.831e-09
 Normal termination of Gaussian 16 at Fri Feb  9 19:06:05 2024.
