 Gaussian 16, Revision A.03,
 Gaussian 16:  ES64L-G16RevA.03 25-Dec-2016

 ------------------
 #p CCSD(T)/cc-pVTZ
 ------------------

 ---------
 O2_O2_181
 ---------
 Symbolic Z-matrix:
 Charge =  0 Multiplicity = 1

                         Standard orientation:
 ---------------------------------------------------------------------
 Center     Atomic      Atomic             Coordinates (Angstroms)
 Number     Number       Type             X           Y           Z
 ---------------------------------------------------------------------
      1          8           0        0.615183   -2.605183   -0.000000
      2          8           0       -0.205061   -1.784939    0.000000
      3          8           0       -0.205061    1.615061    0.000000
      4          8           0       -0.205061    2.775061    0.000000
 ---------------------------------------------------------------------

 SCF Done:  E(RHF) =  -299.188888027     A.U. after   17 cycles
 E2 =    -0.9194141191D+00 EUMP2 =    -0.30010830214571D+03
 CCSD(T)
 CCSD(T)= -0.30015123601D+03

 The electronic state is 1-A'.
 Alpha  occ. eigenvalues --  -20.72930 -20.72818 -20.72813 -20.72700  -1.69859
 Alpha  occ. eigenvalues --   -1.69759  -1.08598  -1.08378  -0.78639  -0.78536
 Alpha  occ. eigenvalues --   -0.75319  -0.74881  -0.67385  -0.67288  -0.44793
 Alpha  occ. eigenvalues --   -0.44699
 Alpha virt. eigenvalues --    0.04976   0.05072   0.38837   0.47000   0.65792
 Alpha virt. eigenvalues --    0.69763   0.69932   0.71147   0.71696   0.75883
 Alpha virt. eigenvalues --    0.78810   0.80349   0.81398   0.85551   0.85979

 Mulliken charges:
               1
     1  O    0.000053
     2  O    0.000683
     3  O   -0.000132
     4  O   -0.000604
 Sum of Mulliken charges =  -0.00000

 Dipole moment (field-independent basis, Debye):
    X=             -0.0013    Y=             -0.0215    Z=              0.0000  Tot=              0.0216
 Quadrupole moment (field-independent basis, Debye-Ang):
   XX=            -19.6575   YY=            -21.1473   ZZ=            -19.7602
   XY=             -0.0904   XZ=              0.0000   YZ=             -0.0000

 4DQ=-300.1010334\MP4SDQ=-300.1137461\CCSD=-300.110325\CCSD(T)=-300.151
 Normal termination of Gaussian 16 at Fri Feb  9 20:09:04 2024.
