 Gaussian 16, Revision A.03,
 Gaussian 16:  ES64L-G16RevA.03 25-Dec-2016

 ------------------
 #p CCSD(T)/cc-pVTZ
 ------------------

 ---------
 O2_O2_193
 ---------
 Symbolic Z-matrix:
 Charge =  0 Multiplicity = 1

                         Standard orientation:
 ---------------------------------------------------------------------
 Center     Atomic      Atomic             Coordinates (Angstroms)
 Number     Number       Type             X           Y           Z
 ---------------------------------------------------------------------
      1          8           0        0.615183   -2.685183   -0.000000
      2          8           0       -0.205061   -1.864939   -0.000000
      3          8           0       -0.205061    1.695061    0.000000
      4          8           0       -0.205061    2.855061    0.000000
 ---------------------------------------------------------------------

 SCF Done:  E(RHF) =  -299.188936485     A.U. after   16 cycles
 E2 =    -0.9193051354D+00 EUMP2 =    -0.30010824162065D+03
 CCSD(T)
 CCSD(T)= -0.30015118864D+03

 The electronic state is 1-A'.
 Alpha  occ. eigenvalues --  -20.72936 -20.72837 -20.72819 -20.72720  -1.69864
 Alpha  occ. eigenvalues --   -1.69776  -1.08578  -1.08420  -0.78640  -0.78553
 Alpha  occ. eigenvalues --   -0.75270  -0.74958  -0.67390  -0.67305  -0.44799
 Alpha  occ. eigenvalues --   -0.44717
 Alpha virt. eigenvalues --    0.04971   0.05057   0.38977   0.46712   0.66388
 Alpha virt. eigenvalues --    0.69994   0.70195   0.70984   0.71498   0.75597
 Alpha virt. eigenvalues --    0.78643   0.80494   0.81722   0.85233   0.85485

 Mulliken charges:
               1
     1  O    0.000054
     2  O    0.000542
     3  O   -0.000002
     4  O   -0.000595
 Sum of Mulliken charges =  -0.00000

 Dipole moment (field-independent basis, Debye):
    X=             -0.0010    Y=             -0.0189    Z=              0.0000  Tot=              0.0189
 Quadrupole moment (field-independent basis, Debye-Ang):
   XX=            -19.6571   YY=            -21.1356   ZZ=            -19.7600
   XY=             -0.0925   XZ=             -0.0000   YZ=             -0.0000

 =-300.1010019\MP4SDQ=-300.1137072\CCSD=-300.1102917\CCSD(T)=-300.15118
 Normal termination of Gaussian 16 at Fri Feb  9 20:17:49 2024.
