 Gaussian 16, Revision A.03,
 Gaussian 16:  ES64L-G16RevA.03 25-Dec-2016

 ------------------
 #p CCSD(T)/cc-pVTZ
 ------------------

 --------
 O2_O2_27
 --------
 Symbolic Z-matrix:
 Charge =  0 Multiplicity = 1

                         Standard orientation:
 ---------------------------------------------------------------------
 Center     Atomic      Atomic             Coordinates (Angstroms)
 Number     Number       Type             X           Y           Z
 ---------------------------------------------------------------------
      1          8           0        0.000000    0.000000    1.840000
      2          8           0        0.000000    0.000000    0.680000
      3          8           0        0.000000    0.000000   -0.680000
      4          8           0        0.000000    0.000000   -1.840000
 ---------------------------------------------------------------------

 SCF Done:  E(RHF) =  -298.822635406     A.U. after   11 cycles
 E2 =    -0.1282738141D+01 EUMP2 =    -0.30010537354681D+03
 CCSD(T)
 CCSD(T)= -0.30000234173D+03

 The electronic state is 1-SGG.
 Alpha  occ. eigenvalues --  -20.83366 -20.83333 -20.69078 -20.69078  -1.77638
 Alpha  occ. eigenvalues --   -1.70932  -1.35872  -0.99929  -0.85917  -0.82427
 Alpha  occ. eigenvalues --   -0.82427  -0.70736  -0.70736  -0.51367  -0.38304
 Alpha  occ. eigenvalues --   -0.38304
 Alpha virt. eigenvalues --   -0.02311  -0.02311   0.45786   0.50399   0.65019
 Alpha virt. eigenvalues --    0.66044   0.66044   0.70355   0.74062   0.74062
 Alpha virt. eigenvalues --    0.83226   0.83994   0.83994   0.92686   0.99935

 Mulliken charges:
               1
     1  O   -0.178810
     2  O    0.178810
     3  O    0.178810
     4  O   -0.178810
 Sum of Mulliken charges =  -0.00000

 Dipole moment (field-independent basis, Debye):
    X=             -0.0000    Y=              0.0000    Z=              0.0000  Tot=              0.0000
 Quadrupole moment (field-independent basis, Debye-Ang):
   XX=            -19.9106   YY=            -19.9106   ZZ=            -25.6593
   XY=              0.0000   XZ=              0.0000   YZ=              0.0000

 4SDQ=-299.9308476\CCSD=-299.9032579\CCSD(T)=-300.0023417\RMSD=5.416e-0
 Normal termination of Gaussian 16 at Fri Feb  9 18:06:41 2024.
