 Gaussian 16, Revision A.03,
 Gaussian 16:  ES64L-G16RevA.03 25-Dec-2016

 ------------------
 #p CCSD(T)/cc-pVTZ
 ------------------

 ---------
 O2_O2_175
 ---------
 Symbolic Z-matrix:
 Charge =  0 Multiplicity = 1

                         Standard orientation:
 ---------------------------------------------------------------------
 Center     Atomic      Atomic             Coordinates (Angstroms)
 Number     Number       Type             X           Y           Z
 ---------------------------------------------------------------------
      1          8           0        0.615183   -2.565183    0.000000
      2          8           0       -0.205061   -1.744939    0.000000
      3          8           0       -0.205061    1.575062   -0.000000
      4          8           0       -0.205061    2.735060   -0.000000
 ---------------------------------------------------------------------

 SCF Done:  E(RHF) =  -299.188843115     A.U. after   18 cycles
 E2 =    -0.9194774565D+00 EUMP2 =    -0.30010832057164D+03
 CCSD(T)
 CCSD(T)= -0.30015124759D+03

 The electronic state is 1-A'.
 Alpha  occ. eigenvalues --  -20.72925 -20.72808 -20.72807 -20.72689  -1.69856
 Alpha  occ. eigenvalues --   -1.69750  -1.08612  -1.08350  -0.78638  -0.78526
 Alpha  occ. eigenvalues --   -0.75350  -0.74832  -0.67381  -0.67278  -0.44788
 Alpha  occ. eigenvalues --   -0.44688
 Alpha virt. eigenvalues --    0.04979   0.05080   0.38892   0.47123   0.65597
 Alpha virt. eigenvalues --    0.69619   0.69767   0.71241   0.71815   0.76008
 Alpha virt. eigenvalues --    0.78928   0.80268   0.81208   0.85753   0.86294

 Mulliken charges:
               1
     1  O   -0.000003
     2  O    0.000797
     3  O   -0.000120
     4  O   -0.000674
 Sum of Mulliken charges =  -0.00000

 Dipole moment (field-independent basis, Debye):
    X=             -0.0015    Y=             -0.0225    Z=             -0.0000  Tot=              0.0226
 Quadrupole moment (field-independent basis, Debye-Ang):
   XX=            -19.6578   YY=            -21.1554   ZZ=            -19.7604
   XY=             -0.0891   XZ=              0.0000   YZ=              0.0000

 4DQ=-300.1010355\MP4SDQ=-300.1137524\CCSD=-300.1103282\CCSD(T)=-300.15
 Normal termination of Gaussian 16 at Fri Feb  9 20:04:33 2024.
