 Gaussian 16, Revision A.03,
 Gaussian 16:  ES64L-G16RevA.03 25-Dec-2016

 ------------------
 #p CCSD(T)/cc-pVTZ
 ------------------

 ---------
 O2_O2_194
 ---------
 Symbolic Z-matrix:
 Charge =  0 Multiplicity = 1

                         Standard orientation:
 ---------------------------------------------------------------------
 Center     Atomic      Atomic             Coordinates (Angstroms)
 Number     Number       Type             X           Y           Z
 ---------------------------------------------------------------------
      1          8           0       -0.870000   -2.070000    0.000000
      2          8           0        0.290000   -2.070000    0.000000
      3          8           0        0.290000    1.490000    0.000000
      4          8           0        0.290000    2.650000    0.000000
 ---------------------------------------------------------------------

 SCF Done:  E(RHF) =  -299.188982246     A.U. after   18 cycles
 E2 =    -0.9193039455D+00 EUMP2 =    -0.30010828619134D+03
 CCSD(T)
 CCSD(T)= -0.30015126250D+03

 The electronic state is 1-A'.
 Alpha  occ. eigenvalues --  -20.72927 -20.72826 -20.72811 -20.72708  -1.69852
 Alpha  occ. eigenvalues --   -1.69764  -1.08550  -1.08435  -0.78640  -0.78542
 Alpha  occ. eigenvalues --   -0.75212  -0.74997  -0.67380  -0.67291  -0.44798
 Alpha  occ. eigenvalues --   -0.44706
 Alpha virt. eigenvalues --    0.04976   0.05070   0.41694   0.43626   0.65062
 Alpha virt. eigenvalues --    0.69754   0.70326   0.71207   0.72608   0.76449
 Alpha virt. eigenvalues --    0.79277   0.80375   0.82349   0.83062   0.84873

 Mulliken charges:
               1
     1  O   -0.000477
     2  O    0.000808
     3  O    0.000655
     4  O   -0.000986
 Sum of Mulliken charges =  -0.00000

 Dipole moment (field-independent basis, Debye):
    X=              0.0030    Y=             -0.0171    Z=              0.0000  Tot=              0.0174
 Quadrupole moment (field-independent basis, Debye-Ang):
   XX=            -19.5560   YY=            -21.2360   ZZ=            -19.7600
   XY=             -0.0121   XZ=              0.0000   YZ=              0.0000

 4SDQ=-300.1137662\CCSD=-300.1103631\CCSD(T)=-300.1512625\RMSD=7.637e-0
 Normal termination of Gaussian 16 at Fri Feb  9 20:18:39 2024.
