 Gaussian 16, Revision A.03,
 Gaussian 16:  ES64L-G16RevA.03 25-Dec-2016

 ------------------
 #p CCSD(T)/cc-pVTZ
 ------------------

 ---------
 O2_O2_161
 ---------
 Symbolic Z-matrix:
 Charge =  0 Multiplicity = 1

                         Standard orientation:
 ---------------------------------------------------------------------
 Center     Atomic      Atomic             Coordinates (Angstroms)
 Number     Number       Type             X           Y           Z
 ---------------------------------------------------------------------
      1          8           0       -0.870000   -1.850000    0.000000
      2          8           0        0.290000   -1.850000    0.000000
      3          8           0        0.290000    1.270000    0.000000
      4          8           0        0.290000    2.430000    0.000000
 ---------------------------------------------------------------------

 SCF Done:  E(RHF) =  -299.188881700     A.U. after   19 cycles
 E2 =    -0.9197271931D+00 EUMP2 =    -0.30010860889277D+03
 CCSD(T)
 CCSD(T)= -0.30015155651D+03

 The electronic state is 1-A'.
 Alpha  occ. eigenvalues --  -20.72924 -20.72808 -20.72767 -20.72646  -1.69852
 Alpha  occ. eigenvalues --   -1.69707  -1.08580  -1.08354  -0.78714  -0.78490
 Alpha  occ. eigenvalues --   -0.75293  -0.74784  -0.67373  -0.67238  -0.44797
 Alpha  occ. eigenvalues --   -0.44652
 Alpha virt. eigenvalues --    0.04979   0.05118   0.41572   0.43931   0.63927
 Alpha virt. eigenvalues --    0.68638   0.69457   0.71910   0.72724   0.76998
 Alpha virt. eigenvalues --    0.78924   0.80573   0.81611   0.82549   0.85376

 Mulliken charges:
               1
     1  O   -0.000787
     2  O    0.001195
     3  O    0.000889
     4  O   -0.001296
 Sum of Mulliken charges =  -0.00000

 Dipole moment (field-independent basis, Debye):
    X=              0.0077    Y=             -0.0229    Z=              0.0000  Tot=              0.0241
 Quadrupole moment (field-independent basis, Debye-Ang):
   XX=            -19.5604   YY=            -21.2811   ZZ=            -19.7611
   XY=             -0.0194   XZ=              0.0000   YZ=              0.0000

 4SDQ=-300.1140157\CCSD=-300.1106029\CCSD(T)=-300.1515565\RMSD=8.189e-0
 Normal termination of Gaussian 16 at Fri Feb  9 19:53:05 2024.
