 Gaussian 16, Revision A.03,
 Gaussian 16:  ES64L-G16RevA.03 25-Dec-2016

 ------------------
 #p CCSD(T)/cc-pVTZ
 ------------------

 ---------
 O2_O2_184
 ---------
 Symbolic Z-matrix:
 Charge =  0 Multiplicity = 1

                         Standard orientation:
 ---------------------------------------------------------------------
 Center     Atomic      Atomic             Coordinates (Angstroms)
 Number     Number       Type             X           Y           Z
 ---------------------------------------------------------------------
      1          8           0        0.615183   -2.625183    0.000000
      2          8           0       -0.205061   -1.804939    0.000000
      3          8           0       -0.205061    1.635061   -0.000000
      4          8           0       -0.205061    2.795061   -0.000000
 ---------------------------------------------------------------------

 SCF Done:  E(RHF) =  -299.188904603     A.U. after   17 cycles
 E2 =    -0.9193847459D+00 EUMP2 =    -0.30010828934932D+03
 CCSD(T)
 CCSD(T)= -0.30015122657D+03

 The electronic state is 1-A'.
 Alpha  occ. eigenvalues --  -20.72932 -20.72823 -20.72815 -20.72705  -1.69861
 Alpha  occ. eigenvalues --   -1.69764  -1.08592  -1.08390  -0.78639  -0.78540
 Alpha  occ. eigenvalues --   -0.75305  -0.74903  -0.67386  -0.67292  -0.44795
 Alpha  occ. eigenvalues --   -0.44703
 Alpha virt. eigenvalues --    0.04974   0.05068   0.38842   0.46934   0.65917
 Alpha virt. eigenvalues --    0.69828   0.70006   0.71104   0.71642   0.75816
 Alpha virt. eigenvalues --    0.78760   0.80388   0.81487   0.85460   0.85839

 Mulliken charges:
               1
     1  O    0.000066
     2  O    0.000638
     3  O   -0.000114
     4  O   -0.000589
 Sum of Mulliken charges =  -0.00000

 Dipole moment (field-independent basis, Debye):
    X=             -0.0012    Y=             -0.0210    Z=             -0.0000  Tot=              0.0210
 Quadrupole moment (field-independent basis, Debye-Ang):
   XX=            -19.6574   YY=            -21.1438   ZZ=            -19.7602
   XY=             -0.0910   XZ=             -0.0000   YZ=              0.0000

 P4DQ=-300.1010283\MP4SDQ=-300.1137391\CCSD=-300.1103194\CCSD(T)=-300.1
 Normal termination of Gaussian 16 at Fri Feb  9 20:11:13 2024.
