 Gaussian 16, Revision A.03,
 Gaussian 16:  ES64L-G16RevA.03 25-Dec-2016

 ------------------
 #p CCSD(T)/cc-pVTZ
 ------------------

 ---------
 O2_O2_153
 ---------
 Symbolic Z-matrix:
 Charge =  0 Multiplicity = 1

                         Standard orientation:
 ---------------------------------------------------------------------
 Center     Atomic      Atomic             Coordinates (Angstroms)
 Number     Number       Type             X           Y           Z
 ---------------------------------------------------------------------
      1          8           0        0.000000    0.000000    2.680000
      2          8           0        0.000000    0.000000    1.520000
      3          8           0        0.000000    0.000000   -1.520000
      4          8           0        0.000000    0.000000   -2.680000
 ---------------------------------------------------------------------

 SCF Done:  E(RHF) =  -298.831398085     A.U. after   10 cycles
 E2 =    -0.2067828602D+01 EUMP2 =    -0.30089922668726D+03
 CCSD(T)
 CCSD(T)= -0.30026762028D+03

 The electronic state is 1-SGG.
 Alpha  occ. eigenvalues --  -20.77802 -20.77800 -20.75417 -20.75417  -1.72130
 Alpha  occ. eigenvalues --   -1.72072  -1.10697  -1.09923  -0.77601  -0.76475
 Alpha  occ. eigenvalues --   -0.74824  -0.74824  -0.74159  -0.74159  -0.27630
 Alpha  occ. eigenvalues --   -0.27630
 Alpha virt. eigenvalues --   -0.13896  -0.13896   0.37775   0.48774   0.65194
 Alpha virt. eigenvalues --    0.68057   0.68057   0.70795   0.70795   0.75922
 Alpha virt. eigenvalues --    0.78531   0.79618   0.79618   0.86051   0.87010

 Mulliken charges:
               1
     1  O   -0.024111
     2  O    0.024111
     3  O    0.024111
     4  O   -0.024111
 Sum of Mulliken charges =  -0.00000

 Dipole moment (field-independent basis, Debye):
    X=             -0.0000    Y=              0.0000    Z=             -0.0000  Tot=              0.0000
 Quadrupole moment (field-independent basis, Debye-Ang):
   XX=            -20.1319   YY=            -20.1319   ZZ=            -21.9597
   XY=              0.0000   XZ=              0.0000   YZ=              0.0000

 4SDQ=-301.9167087\CCSD=-300.0305787\CCSD(T)=-300.2676203\RMSD=2.188e-0
 Normal termination of Gaussian 16 at Fri Feb  9 19:47:12 2024.
