 Gaussian 16, Revision A.03,
 Gaussian 16:  ES64L-G16RevA.03 25-Dec-2016

 ------------------
 #p CCSD(T)/cc-pVTZ
 ------------------

 ---------
 O2_O2_232
 ---------
 Symbolic Z-matrix:
 Charge =  0 Multiplicity = 1

                         Standard orientation:
 ---------------------------------------------------------------------
 Center     Atomic      Atomic             Coordinates (Angstroms)
 Number     Number       Type             X           Y           Z
 ---------------------------------------------------------------------
      1          8           0        0.615183   -2.945183    0.000000
      2          8           0       -0.205061   -2.124939    0.000000
      3          8           0       -0.205061    1.955061   -0.000000
      4          8           0       -0.205061    3.115061   -0.000000
 ---------------------------------------------------------------------

 SCF Done:  E(RHF) =  -299.188923780     A.U. after   17 cycles
 E2 =    -0.9190755028D+00 EUMP2 =    -0.30010799928292D+03
 CCSD(T)
 CCSD(T)= -0.30015098469D+03

 The electronic state is 1-A'.
 Alpha  occ. eigenvalues --  -20.72932 -20.72880 -20.72816 -20.72763  -1.69863
 Alpha  occ. eigenvalues --   -1.69816  -1.08553  -1.08492  -0.78638  -0.78593
 Alpha  occ. eigenvalues --   -0.75194  -0.75089  -0.67390  -0.67345  -0.44804
 Alpha  occ. eigenvalues --   -0.44759
 Alpha virt. eigenvalues --    0.04970   0.05017   0.40754   0.45432   0.69110
 Alpha virt. eigenvalues --    0.70362   0.70575   0.70668   0.71286   0.74348
 Alpha virt. eigenvalues --    0.78738   0.80682   0.82198   0.84646   0.84818

 Mulliken charges:
               1
     1  O   -0.000258
     2  O    0.000432
     3  O    0.000552
     4  O   -0.000727
 Sum of Mulliken charges =  -0.00000

 Dipole moment (field-independent basis, Debye):
    X=             -0.0008    Y=             -0.0089    Z=             -0.0000  Tot=              0.0089
 Quadrupole moment (field-independent basis, Debye-Ang):
   XX=            -19.6567   YY=            -21.1218   ZZ=            -19.7595
   XY=             -0.0961   XZ=             -0.0000   YZ=              0.0000

 DQ=-300.1008268\MP4SDQ=-300.1135168\CCSD=-300.1101141\CCSD(T)=-300.150
 Normal termination of Gaussian 16 at Fri Feb  9 20:46:42 2024.
