 Gaussian 16, Revision A.03,
 Gaussian 16:  ES64L-G16RevA.03 25-Dec-2016

 ------------------
 #p CCSD(T)/cc-pVTZ
 ------------------

 ---------
 O2_O2_155
 ---------
 Symbolic Z-matrix:
 Charge =  0 Multiplicity = 1

                         Standard orientation:
 ---------------------------------------------------------------------
 Center     Atomic      Atomic             Coordinates (Angstroms)
 Number     Number       Type             X           Y           Z
 ---------------------------------------------------------------------
      1          8           0       -0.870000   -1.810000    0.000000
      2          8           0        0.290000   -1.810000    0.000000
      3          8           0        0.290000    1.230000    0.000000
      4          8           0        0.290000    2.390000    0.000000
 ---------------------------------------------------------------------

 SCF Done:  E(RHF) =  -299.188784827     A.U. after   19 cycles
 E2 =    -0.9198464373D+00 EUMP2 =    -0.30010863126420D+03
 CCSD(T)
 CCSD(T)= -0.30015156898D+03

 The electronic state is 1-A'.
 Alpha  occ. eigenvalues --  -20.72922 -20.72806 -20.72751 -20.72629  -1.69853
 Alpha  occ. eigenvalues --   -1.69692  -1.08595  -1.08330  -0.78748  -0.78477
 Alpha  occ. eigenvalues --   -0.75314  -0.74716  -0.67371  -0.67225  -0.44797
 Alpha  occ. eigenvalues --   -0.44638
 Alpha virt. eigenvalues --    0.04980   0.05131   0.41734   0.44062   0.64008
 Alpha virt. eigenvalues --    0.68361   0.69256   0.72057   0.72746   0.76983
 Alpha virt. eigenvalues --    0.78924   0.80687   0.81195   0.82607   0.85544

 Mulliken charges:
               1
     1  O   -0.000912
     2  O    0.001346
     3  O    0.001187
     4  O   -0.001622
 Sum of Mulliken charges =  -0.00000

 Dipole moment (field-independent basis, Debye):
    X=              0.0092    Y=             -0.0241    Z=              0.0000  Tot=              0.0258
 Quadrupole moment (field-independent basis, Debye-Ang):
   XX=            -19.5616   YY=            -21.2944   ZZ=            -19.7614
   XY=             -0.0213   XZ=              0.0000   YZ=              0.0000

 SDQ=-300.1140161\CCSD=-300.1106003\CCSD(T)=-300.151569\RMSD=8.786e-09\
 Normal termination of Gaussian 16 at Fri Feb  9 19:48:43 2024.
