 Gaussian 16, Revision A.03,
 Gaussian 16:  ES64L-G16RevA.03 25-Dec-2016

 ------------------
 #p CCSD(T)/cc-pVTZ
 ------------------

 ---------
 O2_O2_183
 ---------
 Symbolic Z-matrix:
 Charge =  0 Multiplicity = 1

                         Standard orientation:
 ---------------------------------------------------------------------
 Center     Atomic      Atomic             Coordinates (Angstroms)
 Number     Number       Type             X           Y           Z
 ---------------------------------------------------------------------
      1          8           0        0.000000    0.000000    2.880000
      2          8           0        0.000000    0.000000    1.720000
      3          8           0        0.000000    0.000000   -1.720000
      4          8           0        0.000000    0.000000   -2.880000
 ---------------------------------------------------------------------

 SCF Done:  E(RHF) =  -298.813179478     A.U. after   10 cycles
 E2 =    -0.2260880531D+01 EUMP2 =    -0.30107406000867D+03
 CCSD(T)
 CCSD(T)= -0.30028407571D+03

 The electronic state is 1-SGG.
 Alpha  occ. eigenvalues --  -20.77260 -20.77258 -20.75484 -20.75484  -1.71944
 Alpha  occ. eigenvalues --   -1.71916  -1.10364  -1.09997  -0.77153  -0.76671
 Alpha  occ. eigenvalues --   -0.74591  -0.74591  -0.74132  -0.74132  -0.26774
 Alpha  occ. eigenvalues --   -0.26774
 Alpha virt. eigenvalues --   -0.14586  -0.14586   0.36382   0.48120   0.65402
 Alpha virt. eigenvalues --    0.69048   0.69048   0.70354   0.70354   0.75697
 Alpha virt. eigenvalues --    0.77607   0.80975   0.80975   0.84798   0.84798

 Mulliken charges:
               1
     1  O   -0.018263
     2  O    0.018263
     3  O    0.018263
     4  O   -0.018263
 Sum of Mulliken charges =  -0.00000

 Dipole moment (field-independent basis, Debye):
    X=             -0.0000    Y=              0.0000    Z=              0.0000  Tot=              0.0000
 Quadrupole moment (field-independent basis, Debye-Ang):
   XX=            -20.1023   YY=            -20.1023   ZZ=            -22.0175
   XY=              0.0000   XZ=              0.0000   YZ=              0.0000

 DQ=-303.8208945\CCSD=-300.0277092\CCSD(T)=-300.2840757\RMSD=1.997e-09\
 Normal termination of Gaussian 16 at Fri Feb  9 20:10:24 2024.
