 Gaussian 16, Revision A.03,
 Gaussian 16:  ES64L-G16RevA.03 25-Dec-2016

 ------------------
 #p CCSD(T)/cc-pVTZ
 ------------------

 ---------
 O2_O2_202
 ---------
 Symbolic Z-matrix:
 Charge =  0 Multiplicity = 1

                         Standard orientation:
 ---------------------------------------------------------------------
 Center     Atomic      Atomic             Coordinates (Angstroms)
 Number     Number       Type             X           Y           Z
 ---------------------------------------------------------------------
      1          8           0        0.615183   -2.745183   -0.000000
      2          8           0       -0.205061   -1.924939   -0.000000
      3          8           0       -0.205061    1.755061    0.000000
      4          8           0       -0.205061    2.915061    0.000000
 ---------------------------------------------------------------------

 SCF Done:  E(RHF) =  -299.188948843     A.U. after   18 cycles
 E2 =    -0.9192367863D+00 EUMP2 =    -0.30010818562916D+03
 CCSD(T)
 CCSD(T)= -0.30015114238D+03

 The electronic state is 1-A'.
 Alpha  occ. eigenvalues --  -20.72937 -20.72849 -20.72820 -20.72732  -1.69865
 Alpha  occ. eigenvalues --   -1.69788  -1.08569  -1.08443  -0.78639  -0.78564
 Alpha  occ. eigenvalues --   -0.75244  -0.75001  -0.67391  -0.67316  -0.44802
 Alpha  occ. eigenvalues --   -0.44729
 Alpha virt. eigenvalues --    0.04970   0.05046   0.39264   0.46457   0.66973
 Alpha virt. eigenvalues --    0.70123   0.70340   0.70883   0.71385   0.75349
 Alpha virt. eigenvalues --    0.78578   0.80578   0.81907   0.85068   0.85221

 Mulliken charges:
               1
     1  O   -0.000007
     2  O    0.000490
     3  O    0.000156
     4  O   -0.000639
 Sum of Mulliken charges =   0.00000

 Dipole moment (field-independent basis, Debye):
    X=             -0.0009    Y=             -0.0165    Z=              0.0000  Tot=              0.0165
 Quadrupole moment (field-independent basis, Debye-Ang):
   XX=            -19.6570   YY=            -21.1300   ZZ=            -19.7599
   XY=             -0.0937   XZ=              0.0000   YZ=             -0.0000

 4DQ=-300.1009649\MP4SDQ=-300.1136656\CCSD=-300.1102537\CCSD(T)=-300.15
 Normal termination of Gaussian 16 at Fri Feb  9 20:24:43 2024.
