 Gaussian 16, Revision A.03,
 Gaussian 16:  ES64L-G16RevA.03 25-Dec-2016

 ------------------
 #p CCSD(T)/cc-pVTZ
 ------------------

 ---------
 O2_O2_172
 ---------
 Symbolic Z-matrix:
 Charge =  0 Multiplicity = 1

                         Standard orientation:
 ---------------------------------------------------------------------
 Center     Atomic      Atomic             Coordinates (Angstroms)
 Number     Number       Type             X           Y           Z
 ---------------------------------------------------------------------
      1          8           0        0.615183   -2.545183    0.000000
      2          8           0       -0.205061   -1.724939    0.000000
      3          8           0       -0.205061    1.555061    0.000000
      4          8           0       -0.205061    2.715061    0.000000
 ---------------------------------------------------------------------

 SCF Done:  E(RHF) =  -299.188813475     A.U. after   18 cycles
 E2 =    -0.9195123752D+00 EUMP2 =    -0.30010832584969D+03
 CCSD(T)
 CCSD(T)= -0.30015124921D+03

 The electronic state is 1-A'.
 Alpha  occ. eigenvalues --  -20.72922 -20.72805 -20.72801 -20.72683  -1.69853
 Alpha  occ. eigenvalues --   -1.69745  -1.08620  -1.08335  -0.78638  -0.78521
 Alpha  occ. eigenvalues --   -0.75368  -0.74804  -0.67378  -0.67273  -0.44786
 Alpha  occ. eigenvalues --   -0.44683
 Alpha virt. eigenvalues --    0.04982   0.05084   0.38953   0.47180   0.65529
 Alpha virt. eigenvalues --    0.69539   0.69675   0.71291   0.71879   0.76067
 Alpha virt. eigenvalues --    0.78996   0.80227   0.81107   0.85864   0.86469

 Mulliken charges:
               1
     1  O   -0.000049
     2  O    0.000868
     3  O   -0.000086
     4  O   -0.000734
 Sum of Mulliken charges =  -0.00000

 Dipole moment (field-independent basis, Debye):
    X=             -0.0016    Y=             -0.0229    Z=             -0.0000  Tot=              0.0230
 Quadrupole moment (field-independent basis, Debye-Ang):
   XX=            -19.6581   YY=            -21.1601   ZZ=            -19.7605
   XY=             -0.0884   XZ=             -0.0000   YZ=              0.0000

 =-300.1010319\MP4SDQ=-300.1137511\CCSD=-300.1103251\CCSD(T)=-300.15124
 Normal termination of Gaussian 16 at Fri Feb  9 20:01:34 2024.
