 Gaussian 16, Revision A.03,
 Gaussian 16:  ES64L-G16RevA.03 25-Dec-2016

 ------------------
 #p CCSD(T)/cc-pVTZ
 ------------------

 ---------
 O2_O2_240
 ---------
 Symbolic Z-matrix:
 Charge =  0 Multiplicity = 1

                         Standard orientation:
 ---------------------------------------------------------------------
 Center     Atomic      Atomic             Coordinates (Angstroms)
 Number     Number       Type             X           Y           Z
 ---------------------------------------------------------------------
      1          8           0        0.000000    0.000000    3.260000
      2          8           0        0.000000    0.000000    2.100000
      3          8           0        0.000000    0.000000   -2.100000
      4          8           0        0.000000    0.000000   -3.260000
 ---------------------------------------------------------------------

 SCF Done:  E(RHF) =  -298.791304012     A.U. after   10 cycles
 E2 =    -0.2608608363D+01 EUMP2 =    -0.30139991237507D+03
 CCSD(T)
 CCSD(T)= -0.30030378879D+03

 The electronic state is 1-SGG.
 Alpha  occ. eigenvalues --  -20.76767 -20.76766 -20.75599 -20.75598  -1.71798
 Alpha  occ. eigenvalues --   -1.71789  -1.10141  -1.10012  -0.76855  -0.76758
 Alpha  occ. eigenvalues --   -0.74388  -0.74388  -0.74121  -0.74121  -0.25706
 Alpha  occ. eigenvalues --   -0.25706
 Alpha virt. eigenvalues --   -0.15515  -0.15515   0.39504   0.45353   0.69382
 Alpha virt. eigenvalues --    0.69723   0.69723   0.69934   0.69934   0.73992
 Alpha virt. eigenvalues --    0.77311   0.81118   0.82443   0.82443   0.83107

 Mulliken charges:
               1
     1  O   -0.014096
     2  O    0.014096
     3  O    0.014096
     4  O   -0.014096
 Sum of Mulliken charges =  -0.00000

 Dipole moment (field-independent basis, Debye):
    X=             -0.0000    Y=             -0.0000    Z=              0.0000  Tot=              0.0000
 Quadrupole moment (field-independent basis, Debye-Ang):
   XX=            -20.0780   YY=            -20.0780   ZZ=            -22.0147
   XY=              0.0000   XZ=              0.0000   YZ=              0.0000

 DQ=-309.9171052\CCSD=-300.0251502\CCSD(T)=-300.3037888\RMSD=1.737e-09\
 Normal termination of Gaussian 16 at Fri Feb  9 20:52:23 2024.
