 Gaussian 16, Revision A.03,
 Gaussian 16:  ES64L-G16RevA.03 25-Dec-2016

 ------------------
 #p CCSD(T)/cc-pVTZ
 ------------------

 ---------
 O2_O2_177
 ---------
 Symbolic Z-matrix:
 Charge =  0 Multiplicity = 1

                         Standard orientation:
 ---------------------------------------------------------------------
 Center     Atomic      Atomic             Coordinates (Angstroms)
 Number     Number       Type             X           Y           Z
 ---------------------------------------------------------------------
      1          8           0        0.000000    0.000000    2.840000
      2          8           0        0.000000    0.000000    1.680000
      3          8           0        0.000000    0.000000   -1.680000
      4          8           0        0.000000    0.000000   -2.840000
 ---------------------------------------------------------------------

 SCF Done:  E(RHF) =  -298.816319719     A.U. after   10 cycles
 E2 =    -0.2222903907D+01 EUMP2 =    -0.30103922362596D+03
 CCSD(T)
 CCSD(T)= -0.30028122191D+03

 The electronic state is 1-SGG.
 Alpha  occ. eigenvalues --  -20.77347 -20.77346 -20.75472 -20.75472  -1.71973
 Alpha  occ. eigenvalues --   -1.71942  -1.10412  -1.09990  -0.77218  -0.76647
 Alpha  occ. eigenvalues --   -0.74628  -0.74628  -0.74137  -0.74137  -0.26924
 Alpha  occ. eigenvalues --   -0.26924
 Alpha virt. eigenvalues --   -0.14463  -0.14463   0.36447   0.48307   0.65202
 Alpha virt. eigenvalues --    0.68896   0.68896   0.70431   0.70431   0.75778
 Alpha virt. eigenvalues --    0.77745   0.80720   0.80720   0.85150   0.85150

 Mulliken charges:
               1
     1  O   -0.019026
     2  O    0.019026
     3  O    0.019026
     4  O   -0.019026
 Sum of Mulliken charges =  -0.00000

 Dipole moment (field-independent basis, Debye):
    X=             -0.0000    Y=              0.0000    Z=              0.0000  Tot=              0.0000
 Quadrupole moment (field-independent basis, Debye-Ang):
   XX=            -20.1070   YY=            -20.1070   ZZ=            -22.0093
   XY=              0.0000   XZ=              0.0000   YZ=              0.0000

 SDQ=-303.3740836\CCSD=-300.0281557\CCSD(T)=-300.2812219\RMSD=2.033e-09
 Normal termination of Gaussian 16 at Fri Feb  9 20:05:59 2024.
