 Gaussian 16, Revision A.03,
 Gaussian 16:  ES64L-G16RevA.03 25-Dec-2016

 ------------------
 #p CCSD(T)/cc-pVTZ
 ------------------

 ---------
 O2_O2_119
 ---------
 Symbolic Z-matrix:
 Charge =  0 Multiplicity = 1

                         Standard orientation:
 ---------------------------------------------------------------------
 Center     Atomic      Atomic             Coordinates (Angstroms)
 Number     Number       Type             X           Y           Z
 ---------------------------------------------------------------------
      1          8           0       -0.870000   -1.570000    0.000000
      2          8           0        0.290000   -1.570000    0.000000
      3          8           0        0.290000    0.990000    0.000000
      4          8           0        0.290000    2.150000    0.000000
 ---------------------------------------------------------------------

 SCF Done:  E(RHF) =  -299.185840682     A.U. after   26 cycles
 E2 =    -0.9211532787D+00 EUMP2 =    -0.30010699396020D+03
 CCSD(T)
 CCSD(T)= -0.30014978110D+03

 The electronic state is 1-A'.
 Alpha  occ. eigenvalues --  -20.72904 -20.72734 -20.72560 -20.72439  -1.69912
 Alpha  occ. eigenvalues --   -1.69514  -1.08856  -1.08064  -0.79356  -0.78355
 Alpha  occ. eigenvalues --   -0.75445  -0.73845  -0.67369  -0.67104  -0.44790
 Alpha  occ. eigenvalues --   -0.44503
 Alpha virt. eigenvalues --    0.04980   0.05269   0.42675   0.46105   0.66610
 Alpha virt. eigenvalues --    0.66659   0.69262   0.72715   0.72945   0.76487
 Alpha virt. eigenvalues --    0.77599   0.79673   0.82876   0.83038   0.87034

 Mulliken charges:
               1
     1  O   -0.002671
     2  O    0.004390
     3  O    0.007038
     4  O   -0.008757
 Sum of Mulliken charges =  -0.00000

 Dipole moment (field-independent basis, Debye):
    X=              0.0274    Y=             -0.0389    Z=              0.0000  Tot=              0.0476
 Quadrupole moment (field-independent basis, Debye-Ang):
   XX=            -19.5731   YY=            -21.4277   ZZ=            -19.7631
   XY=             -0.0415   XZ=              0.0000   YZ=              0.0000

 DQ=-300.1121005\CCSD=-300.108647\CCSD(T)=-300.1497811\RMSD=2.620e-09\P
 Normal termination of Gaussian 16 at Fri Feb  9 19:22:06 2024.
