 Gaussian 16, Revision A.03,
 Gaussian 16:  ES64L-G16RevA.03 25-Dec-2016

 ------------------
 #p CCSD(T)/cc-pVTZ
 ------------------

 ---------
 O2_O2_160
 ---------
 Symbolic Z-matrix:
 Charge =  0 Multiplicity = 1

                         Standard orientation:
 ---------------------------------------------------------------------
 Center     Atomic      Atomic             Coordinates (Angstroms)
 Number     Number       Type             X           Y           Z
 ---------------------------------------------------------------------
      1          8           0        0.615183   -2.465183   -0.000000
      2          8           0       -0.205061   -1.644939    0.000000
      3          8           0       -0.205061    1.475061    0.000000
      4          8           0       -0.205061    2.635061    0.000000
 ---------------------------------------------------------------------

 SCF Done:  E(RHF) =  -299.188627212     A.U. after   21 cycles
 E2 =    -0.9196730042D+00 EUMP2 =    -0.30010830021593D+03
 CCSD(T)
 CCSD(T)= -0.30015120740D+03

 The electronic state is 1-A'.
 Alpha  occ. eigenvalues --  -20.72901 -20.72785 -20.72774 -20.72656  -1.69840
 Alpha  occ. eigenvalues --   -1.69722  -1.08667  -1.08257  -0.78638  -0.78499
 Alpha  occ. eigenvalues --   -0.75458  -0.74667  -0.67364  -0.67252  -0.44771
 Alpha  occ. eigenvalues --   -0.44659
 Alpha virt. eigenvalues --    0.04994   0.05102   0.39413   0.47392   0.65478
 Alpha virt. eigenvalues --    0.69164   0.69253   0.71505   0.72164   0.76280
 Alpha virt. eigenvalues --    0.79327   0.80076   0.80689   0.86295   0.87019

 Mulliken charges:
               1
     1  O   -0.000368
     2  O    0.001265
     3  O    0.000311
     4  O   -0.001207
 Sum of Mulliken charges =  -0.00000

 Dipole moment (field-independent basis, Debye):
    X=             -0.0024    Y=             -0.0236    Z=              0.0000  Tot=              0.0237
 Quadrupole moment (field-independent basis, Debye-Ang):
   XX=            -19.6594   YY=            -21.1835   ZZ=            -19.7608
   XY=             -0.0848   XZ=             -0.0000   YZ=             -0.0000

 P4DQ=-300.100966\MP4SDQ=-300.1136951\CCSD=-300.1102612\CCSD(T)=-300.15
 Normal termination of Gaussian 16 at Fri Feb  9 19:52:20 2024.
