 Gaussian 16, Revision A.03,
 Gaussian 16:  ES64L-G16RevA.03 25-Dec-2016

 ------------------
 #p CCSD(T)/cc-pVTZ
 ------------------

 ---------
 O2_O2_142
 ---------
 Symbolic Z-matrix:
 Charge =  0 Multiplicity = 1

                         Standard orientation:
 ---------------------------------------------------------------------
 Center     Atomic      Atomic             Coordinates (Angstroms)
 Number     Number       Type             X           Y           Z
 ---------------------------------------------------------------------
      1          8           0        0.615183   -2.345183    0.000000
      2          8           0       -0.205061   -1.524939    0.000000
      3          8           0       -0.205061    1.355062   -0.000000
      4          8           0       -0.205061    2.515060   -0.000000
 ---------------------------------------------------------------------

 SCF Done:  E(RHF) =  -299.187977096     A.U. after   27 cycles
 E2 =    -0.9200090445D+00 EUMP2 =    -0.30010798614019D+03
 CCSD(T)
 CCSD(T)= -0.30015085765D+03

 The electronic state is 1-A'.
 Alpha  occ. eigenvalues --  -20.72848 -20.72731 -20.72721 -20.72603  -1.69807
 Alpha  occ. eigenvalues --   -1.69680  -1.08798  -1.08075  -0.78648  -0.78459
 Alpha  occ. eigenvalues --   -0.75661  -0.74354  -0.67330  -0.67214  -0.44730
 Alpha  occ. eigenvalues --   -0.44616
 Alpha virt. eigenvalues --    0.05025   0.05130   0.40634   0.47719   0.66138
 Alpha virt. eigenvalues --    0.68448   0.68518   0.71863   0.72662   0.76562
 Alpha virt. eigenvalues --    0.79945   0.80051   0.80105   0.86234   0.87603

 Mulliken charges:
               1
     1  O   -0.001331
     2  O    0.002304
     3  O    0.002016
     4  O   -0.002989
 Sum of Mulliken charges =  -0.00000

 Dipole moment (field-independent basis, Debye):
    X=             -0.0042    Y=             -0.0211    Z=             -0.0000  Tot=              0.0215
 Quadrupole moment (field-independent basis, Debye-Ang):
   XX=            -19.6633   YY=            -21.2353   ZZ=            -19.7618
   XY=             -0.0770   XZ=             -0.0000   YZ=              0.0000

 P4DQ=-300.1005664\MP4SDQ=-300.1133151\CCSD=-300.1098646\CCSD(T)=-300.1
 Normal termination of Gaussian 16 at Fri Feb  9 19:38:59 2024.
