 Gaussian 16, Revision A.03,
 Gaussian 16:  ES64L-G16RevA.03 25-Dec-2016

 ------------------
 #p CCSD(T)/cc-pVTZ
 ------------------

 ---------
 O2_O2_260
 ---------
 Symbolic Z-matrix:
 Charge =  0 Multiplicity = 1

                         Standard orientation:
 ---------------------------------------------------------------------
 Center     Atomic      Atomic             Coordinates (Angstroms)
 Number     Number       Type             X           Y           Z
 ---------------------------------------------------------------------
      1          8           0       -0.870000   -2.510000    0.000000
      2          8           0        0.290000   -2.510000    0.000000
      3          8           0        0.290000    1.930000    0.000000
      4          8           0        0.290000    3.090000    0.000000
 ---------------------------------------------------------------------

 SCF Done:  E(RHF) =  -299.188889485     A.U. after   19 cycles
 E2 =    -0.9190003825D+00 EUMP2 =    -0.30010788986710D+03
 CCSD(T)
 CCSD(T)= -0.30015089871D+03

 The electronic state is 1-A'.
 Alpha  occ. eigenvalues --  -20.72926 -20.72884 -20.72810 -20.72768  -1.69858
 Alpha  occ. eigenvalues --   -1.69820  -1.08548  -1.08503  -0.78634  -0.78597
 Alpha  occ. eigenvalues --   -0.75172  -0.75120  -0.67387  -0.67348  -0.44804
 Alpha  occ. eigenvalues --   -0.44764
 Alpha virt. eigenvalues --    0.04970   0.05013   0.43106   0.43446   0.69643
 Alpha virt. eigenvalues --    0.70416   0.70619   0.70622   0.72556   0.73288
 Alpha virt. eigenvalues --    0.79859   0.80117   0.82262   0.82370   0.84733

 Mulliken charges:
               1
     1  O   -0.000249
     2  O    0.000283
     3  O    0.000752
     4  O   -0.000786
 Sum of Mulliken charges =  -0.00000

 Dipole moment (field-independent basis, Debye):
    X=              0.0014    Y=             -0.0065    Z=              0.0000  Tot=              0.0067
 Quadrupole moment (field-independent basis, Debye-Ang):
   XX=            -19.5533   YY=            -21.2174   ZZ=            -19.7592
   XY=             -0.0064   XZ=              0.0000   YZ=              0.0000

 SDQ=-300.1134293\CCSD=-300.110035\CCSD(T)=-300.1508987\RMSD=8.396e-09\
 Normal termination of Gaussian 16 at Fri Feb  9 21:08:31 2024.
