 Gaussian 16, Revision A.03,
 Gaussian 16:  ES64L-G16RevA.03 25-Dec-2016

 ------------------
 #p CCSD(T)/cc-pVTZ
 ------------------

 ---------
 O2_O2_144
 ---------
 Symbolic Z-matrix:
 Charge =  0 Multiplicity = 1

                         Standard orientation:
 ---------------------------------------------------------------------
 Center     Atomic      Atomic             Coordinates (Angstroms)
 Number     Number       Type             X           Y           Z
 ---------------------------------------------------------------------
      1          8           0        0.000000    0.000000    2.620000
      2          8           0        0.000000    0.000000    1.460000
      3          8           0        0.000000    0.000000   -1.460000
      4          8           0        0.000000    0.000000   -2.620000
 ---------------------------------------------------------------------

 SCF Done:  E(RHF) =  -298.838322347     A.U. after   10 cycles
 E2 =    -0.2008384103D+01 EUMP2 =    -0.30084670645073D+03
 CCSD(T)
 CCSD(T)= -0.30026148534D+03

 The electronic state is 1-SGG.
 Alpha  occ. eigenvalues --  -20.78022 -20.78020 -20.75388 -20.75388  -1.72208
 Alpha  occ. eigenvalues --   -1.72133  -1.10858  -1.09869  -0.77812  -0.76361
 Alpha  occ. eigenvalues --   -0.74921  -0.74921  -0.74166  -0.74166  -0.27948
 Alpha  occ. eigenvalues --   -0.27948
 Alpha virt. eigenvalues --   -0.13641  -0.13641   0.38634   0.48856   0.65575
 Alpha virt. eigenvalues --    0.67650   0.67650   0.70946   0.70946   0.75922
 Alpha virt. eigenvalues --    0.78949   0.79227   0.79227   0.85887   0.86951

 Mulliken charges:
               1
     1  O   -0.027126
     2  O    0.027126
     3  O    0.027126
     4  O   -0.027126
 Sum of Mulliken charges =  -0.00000

 Dipole moment (field-independent basis, Debye):
    X=             -0.0000    Y=             -0.0000    Z=             -0.0000  Tot=              0.0000
 Quadrupole moment (field-independent basis, Debye-Ang):
   XX=            -20.1438   YY=            -20.1438   ZZ=            -21.9376
   XY=              0.0000   XZ=              0.0000   YZ=              0.0000

 P4SDQ=-301.4983331\CCSD=-300.0318373\CCSD(T)=-300.2614853\RMSD=2.253e-
 Normal termination of Gaussian 16 at Fri Feb  9 19:40:25 2024.
