 Gaussian 16, Revision A.03,
 Gaussian 16:  ES64L-G16RevA.03 25-Dec-2016

 ------------------
 #p CCSD(T)/cc-pVTZ
 ------------------

 ---------
 O2_O2_278
 ---------
 Symbolic Z-matrix:
 Charge =  0 Multiplicity = 1

                         Standard orientation:
 ---------------------------------------------------------------------
 Center     Atomic      Atomic             Coordinates (Angstroms)
 Number     Number       Type             X           Y           Z
 ---------------------------------------------------------------------
      1          8           0       -0.870000   -2.630000    0.000000
      2          8           0        0.290000   -2.630000    0.000000
      3          8           0        0.290000    2.050000    0.000000
      4          8           0        0.290000    3.210000    0.000000
 ---------------------------------------------------------------------

 SCF Done:  E(RHF) =  -299.188878828     A.U. after   18 cycles
 E2 =    -0.9189726338D+00 EUMP2 =    -0.30010785146203D+03
 CCSD(T)
 CCSD(T)= -0.30015086516D+03

 The electronic state is 1-A'.
 Alpha  occ. eigenvalues --  -20.72928 -20.72894 -20.72812 -20.72778  -1.69861
 Alpha  occ. eigenvalues --   -1.69830  -1.08550  -1.08513  -0.78637  -0.78607
 Alpha  occ. eigenvalues --   -0.75173  -0.75132  -0.67389  -0.67358  -0.44806
 Alpha  occ. eigenvalues --   -0.44774
 Alpha virt. eigenvalues --    0.04968   0.05003   0.43207   0.43404   0.70136
 Alpha virt. eigenvalues --    0.70435   0.70591   0.70614   0.72554   0.72861
 Alpha virt. eigenvalues --    0.79899   0.80045   0.82253   0.82273   0.84729

 Mulliken charges:
               1
     1  O   -0.000211
     2  O    0.000223
     3  O    0.000661
     4  O   -0.000673
 Sum of Mulliken charges =  -0.00000

 Dipole moment (field-independent basis, Debye):
    X=              0.0012    Y=             -0.0051    Z=              0.0000  Tot=              0.0053
 Quadrupole moment (field-independent basis, Debye-Ang):
   XX=            -19.5529   YY=            -21.2143   ZZ=            -19.7591
   XY=             -0.0056   XZ=              0.0000   YZ=              0.0000

 4SDQ=-300.1133978\CCSD=-300.1100043\CCSD(T)=-300.1508652\RMSD=7.084e-0
 Normal termination of Gaussian 16 at Fri Feb  9 21:21:39 2024.
