 Gaussian 16, Revision A.03,
 Gaussian 16:  ES64L-G16RevA.03 25-Dec-2016

 ------------------
 #p CCSD(T)/cc-pVTZ
 ------------------

 ---------
 O2_O2_130
 ---------
 Symbolic Z-matrix:
 Charge =  0 Multiplicity = 1

                         Standard orientation:
 ---------------------------------------------------------------------
 Center     Atomic      Atomic             Coordinates (Angstroms)
 Number     Number       Type             X           Y           Z
 ---------------------------------------------------------------------
      1          8           0        0.615183   -2.265183   -0.000000
      2          8           0       -0.205061   -1.444939    0.000000
      3          8           0       -0.205061    1.275061    0.000000
      4          8           0       -0.205061    2.435061    0.000000
 ---------------------------------------------------------------------

 SCF Done:  E(RHF) =  -299.187976099     A.U. after   26 cycles
 E2 =    -0.9205457241D+00 EUMP2 =    -0.30010852182293D+03
 CCSD(T)
 CCSD(T)= -0.30015120469D+03

 The electronic state is 1-A'.
 Alpha  occ. eigenvalues --  -20.73056 -20.72940 -20.72802 -20.72674  -1.70006
 Alpha  occ. eigenvalues --   -1.69738  -1.09152  -1.08045  -0.78775  -0.78524
 Alpha  occ. eigenvalues --   -0.76148  -0.74283  -0.67521  -0.67215  -0.44946
 Alpha  occ. eigenvalues --   -0.44688
 Alpha virt. eigenvalues --    0.04827   0.05131   0.41461   0.47924   0.66743
 Alpha virt. eigenvalues --    0.67773   0.67982   0.72055   0.72704   0.77027
 Alpha virt. eigenvalues --    0.79620   0.79900   0.80428   0.86549   0.87323

 Mulliken charges:
               1
     1  O   -0.001416
     2  O    0.000960
     3  O    0.001725
     4  O   -0.001268
 Sum of Mulliken charges =  -0.00000

 Dipole moment (field-independent basis, Debye):
    X=             -0.0165    Y=              0.0325    Z=             -0.0000  Tot=              0.0364
 Quadrupole moment (field-independent basis, Debye-Ang):
   XX=            -20.4735   YY=            -20.3029   ZZ=            -19.7606
   XY=              0.7127   XZ=             -0.0000   YZ=              0.0000

 DQ=-300.1009389\MP4SDQ=-300.1136783\CCSD=-300.1101899\CCSD(T)=-300.151
 Normal termination of Gaussian 16 at Fri Feb  9 19:30:09 2024.
