 Gaussian 16, Revision A.03,
 Gaussian 16:  ES64L-G16RevA.03 25-Dec-2016

 ------------------
 #p CCSD(T)/cc-pVTZ
 ------------------

 ---------
 O2_O2_163
 ---------
 Symbolic Z-matrix:
 Charge =  0 Multiplicity = 1

                         Standard orientation:
 ---------------------------------------------------------------------
 Center     Atomic      Atomic             Coordinates (Angstroms)
 Number     Number       Type             X           Y           Z
 ---------------------------------------------------------------------
      1          8           0        0.615183   -2.485183   -0.000000
      2          8           0       -0.205061   -1.664939    0.000000
      3          8           0       -0.205061    1.495061    0.000000
      4          8           0       -0.205061    2.655061    0.000000
 ---------------------------------------------------------------------

 SCF Done:  E(RHF) =  -299.188686143     A.U. after   18 cycles
 E2 =    -0.9196291170D+00 EUMP2 =    -0.30010831526030D+03
 CCSD(T)
 CCSD(T)= -0.30015122685D+03

 The electronic state is 1-A'.
 Alpha  occ. eigenvalues --  -20.72907 -20.72791 -20.72781 -20.72663  -1.69844
 Alpha  occ. eigenvalues --   -1.69728  -1.08653  -1.08279  -0.78637  -0.78505
 Alpha  occ. eigenvalues --   -0.75432  -0.74706  -0.67368  -0.67257  -0.44775
 Alpha  occ. eigenvalues --   -0.44665
 Alpha virt. eigenvalues --    0.04990   0.05097   0.39267   0.47340   0.65456
 Alpha virt. eigenvalues --    0.69266   0.69367   0.71449   0.72089   0.76229
 Alpha virt. eigenvalues --    0.79235   0.80111   0.80794   0.86203   0.87008

 Mulliken charges:
               1
     1  O   -0.000266
     2  O    0.001147
     3  O    0.000167
     4  O   -0.001047
 Sum of Mulliken charges =   0.00000

 Dipole moment (field-independent basis, Debye):
    X=             -0.0022    Y=             -0.0235    Z=              0.0000  Tot=              0.0236
 Quadrupole moment (field-independent basis, Debye-Ang):
   XX=            -19.6590   YY=            -21.1769   ZZ=            -19.7607
   XY=             -0.0858   XZ=              0.0000   YZ=             -0.0000

 P4DQ=-300.1009921\MP4SDQ=-300.1137185\CCSD=-300.1102867\CCSD(T)=-300.1
 Normal termination of Gaussian 16 at Fri Feb  9 19:54:30 2024.
