 Gaussian 16, Revision A.03,
 Gaussian 16:  ES64L-G16RevA.03 25-Dec-2016

 ------------------
 #p CCSD(T)/cc-pVTZ
 ------------------

 ---------
 O2_O2_110
 ---------
 Symbolic Z-matrix:
 Charge =  0 Multiplicity = 1

                         Standard orientation:
 ---------------------------------------------------------------------
 Center     Atomic      Atomic             Coordinates (Angstroms)
 Number     Number       Type             X           Y           Z
 ---------------------------------------------------------------------
      1          8           0       -0.870000   -1.510000    0.000000
      2          8           0        0.290000   -1.510000    0.000000
      3          8           0        0.290000    0.930000    0.000000
      4          8           0        0.290000    2.090000    0.000000
 ---------------------------------------------------------------------

 SCF Done:  E(RHF) =  -299.183490650     A.U. after   26 cycles
 E2 =    -0.9217807432D+00 EUMP2 =    -0.30010527139300D+03
 CCSD(T)
 CCSD(T)= -0.30014797402D+03

 The electronic state is 1-A'.
 Alpha  occ. eigenvalues --  -20.72904 -20.72679 -20.72466 -20.72346  -1.69960
 Alpha  occ. eigenvalues --   -1.69426  -1.09018  -1.07943  -0.79703  -0.78305
 Alpha  occ. eigenvalues --   -0.75472  -0.73405  -0.67375  -0.67054  -0.44782
 Alpha  occ. eigenvalues --   -0.44445
 Alpha virt. eigenvalues --    0.04975   0.05333   0.42767   0.46787   0.66297
 Alpha virt. eigenvalues --    0.67455   0.70233   0.72642   0.73165   0.75662
 Alpha virt. eigenvalues --    0.77694   0.79596   0.83152   0.84036   0.87435

 Mulliken charges:
               1
     1  O   -0.003665
     2  O    0.006162
     3  O    0.010200
     4  O   -0.012697
 Sum of Mulliken charges =   0.00000

 Dipole moment (field-independent basis, Debye):
    X=              0.0359    Y=             -0.0478    Z=              0.0000  Tot=              0.0598
 Quadrupole moment (field-independent basis, Debye-Ang):
   XX=            -19.5768   YY=            -21.4842   ZZ=            -19.7628
   XY=             -0.0505   XZ=              0.0000   YZ=              0.0000

 SDQ=-300.1102298\CCSD=-300.1067581\CCSD(T)=-300.147974\RMSD=1.046e-09\
 Normal termination of Gaussian 16 at Fri Feb  9 19:15:21 2024.
