 Gaussian 16, Revision A.03,
 Gaussian 16:  ES64L-G16RevA.03 25-Dec-2016

 ------------------
 #p CCSD(T)/cc-pVTZ
 ------------------

 --------
 O2_O2_58
 --------
 Symbolic Z-matrix:
 Charge =  0 Multiplicity = 1

                         Standard orientation:
 ---------------------------------------------------------------------
 Center     Atomic      Atomic             Coordinates (Angstroms)
 Number     Number       Type             X           Y           Z
 ---------------------------------------------------------------------
      1          8           0        0.615183   -1.785183    0.000000
      2          8           0       -0.205061   -0.964939    0.000000
      3          8           0       -0.205061    0.795061   -0.000000
      4          8           0       -0.205061    1.955061   -0.000000
 ---------------------------------------------------------------------

 SCF Done:  E(RHF) =  -299.127441769     A.U. after   18 cycles
 E2 =    -0.9363422852D+00 EUMP2 =    -0.30006378405385D+03
 CCSD(T)
 CCSD(T)= -0.30010451235D+03

 The electronic state is 1-A'.
 Alpha  occ. eigenvalues --  -20.73018 -20.72889 -20.72888 -20.70748  -1.70989
 Alpha  occ. eigenvalues --   -1.69012  -1.16191  -1.04187  -0.81204  -0.79460
 Alpha  occ. eigenvalues --   -0.78303  -0.70622  -0.67961  -0.62934  -0.45325
 Alpha  occ. eigenvalues --   -0.44037
 Alpha virt. eigenvalues --    0.04526   0.06651   0.46208   0.49632   0.65897
 Alpha virt. eigenvalues --    0.67188   0.73287   0.73751   0.74022   0.77543
 Alpha virt. eigenvalues --    0.78691   0.81571   0.81996   0.86101   0.95772

 Mulliken charges:
               1
     1  O   -0.037862
     2  O    0.025496
     3  O    0.034690
     4  O   -0.022324
 Sum of Mulliken charges =  -0.00000

 Dipole moment (field-independent basis, Debye):
    X=             -0.1591    Y=              0.2770    Z=             -0.0000  Tot=              0.3195
 Quadrupole moment (field-independent basis, Debye-Ang):
   XX=            -20.5805   YY=            -21.1133   ZZ=            -19.7233
   XY=              0.9146   XZ=             -0.0000   YZ=              0.0000

 Q=-300.0506665\MP4SDQ=-300.0646094\CCSD=-300.0606525\CCSD(T)=-300.1045
 Normal termination of Gaussian 16 at Fri Feb  9 18:32:50 2024.
