 Gaussian 16, Revision A.03,
 Gaussian 16:  ES64L-G16RevA.03 25-Dec-2016

 ------------------
 #p CCSD(T)/cc-pVTZ
 ------------------

 ---------
 O2_O2_266
 ---------
 Symbolic Z-matrix:
 Charge =  0 Multiplicity = 1

                         Standard orientation:
 ---------------------------------------------------------------------
 Center     Atomic      Atomic             Coordinates (Angstroms)
 Number     Number       Type             X           Y           Z
 ---------------------------------------------------------------------
      1          8           0       -0.870000   -2.550000    0.000000
      2          8           0        0.290000   -2.550000    0.000000
      3          8           0        0.290000    1.970000    0.000000
      4          8           0        0.290000    3.130000    0.000000
 ---------------------------------------------------------------------

 SCF Done:  E(RHF) =  -299.188885230     A.U. after   18 cycles
 E2 =    -0.9189896244D+00 EUMP2 =    -0.30010787485454D+03
 CCSD(T)
 CCSD(T)= -0.30015088554D+03

 The electronic state is 1-A'.
 Alpha  occ. eigenvalues --  -20.72927 -20.72888 -20.72811 -20.72772  -1.69859
 Alpha  occ. eigenvalues --   -1.69824  -1.08549  -1.08507  -0.78635  -0.78601
 Alpha  occ. eigenvalues --   -0.75172  -0.75124  -0.67388  -0.67352  -0.44805
 Alpha  occ. eigenvalues --   -0.44768
 Alpha virt. eigenvalues --    0.04970   0.05010   0.43148   0.43431   0.69850
 Alpha virt. eigenvalues --    0.70426   0.70606   0.70620   0.72555   0.73112
 Alpha virt. eigenvalues --    0.79875   0.80089   0.82259   0.82327   0.84732

 Mulliken charges:
               1
     1  O   -0.000236
     2  O    0.000261
     3  O    0.000722
     4  O   -0.000747
 Sum of Mulliken charges =   0.00000

 Dipole moment (field-independent basis, Debye):
    X=              0.0013    Y=             -0.0060    Z=              0.0000  Tot=              0.0061
 Quadrupole moment (field-independent basis, Debye-Ang):
   XX=            -19.5532   YY=            -21.2164   ZZ=            -19.7591
   XY=             -0.0061   XZ=              0.0000   YZ=              0.0000

 4SDQ=-300.1134169\CCSD=-300.110023\CCSD(T)=-300.1508855\RMSD=4.364e-09
 Normal termination of Gaussian 16 at Fri Feb  9 21:12:47 2024.
