 Gaussian 16, Revision A.03,
 Gaussian 16:  ES64L-G16RevA.03 25-Dec-2016

 ------------------
 #p CCSD(T)/cc-pVTZ
 ------------------

 ---------
 O2_O2_127
 ---------
 Symbolic Z-matrix:
 Charge =  0 Multiplicity = 1

                         Standard orientation:
 ---------------------------------------------------------------------
 Center     Atomic      Atomic             Coordinates (Angstroms)
 Number     Number       Type             X           Y           Z
 ---------------------------------------------------------------------
      1          8           0        0.615183   -2.245183   -0.000000
      2          8           0       -0.205061   -1.424939   -0.000000
      3          8           0       -0.205061    1.255061    0.000000
      4          8           0       -0.205061    2.415061    0.000000
 ---------------------------------------------------------------------

 SCF Done:  E(RHF) =  -299.187763107     A.U. after   22 cycles
 E2 =    -0.9206796251D+00 EUMP2 =    -0.30010844273202D+03
 CCSD(T)
 CCSD(T)= -0.30015109626D+03

 The electronic state is 1-A'.
 Alpha  occ. eigenvalues --  -20.73056 -20.72940 -20.72793 -20.72662  -1.70011
 Alpha  occ. eigenvalues --   -1.69729  -1.09213  -1.07993  -0.78779  -0.78516
 Alpha  occ. eigenvalues --   -0.76232  -0.74205  -0.67524  -0.67197  -0.44949
 Alpha  occ. eigenvalues --   -0.44680
 Alpha virt. eigenvalues --    0.04824   0.05151   0.41715   0.47989   0.66801
 Alpha virt. eigenvalues --    0.67637   0.68100   0.72120   0.72771   0.77067
 Alpha virt. eigenvalues --    0.79563   0.79929   0.80575   0.86533   0.87480

 Mulliken charges:
               1
     1  O   -0.001581
     2  O    0.001094
     3  O    0.002376
     4  O   -0.001890
 Sum of Mulliken charges =  -0.00000

 Dipole moment (field-independent basis, Debye):
    X=             -0.0176    Y=              0.0346    Z=              0.0000  Tot=              0.0388
 Quadrupole moment (field-independent basis, Debye-Ang):
   XX=            -20.4741   YY=            -20.3094   ZZ=            -19.7608
   XY=              0.7135   XZ=             -0.0000   YZ=             -0.0000

 Q=-300.1008204\MP4SDQ=-300.1135654\CCSD=-300.1100688\CCSD(T)=-300.1510
 Normal termination of Gaussian 16 at Fri Feb  9 19:27:56 2024.
