 Gaussian 16, Revision A.03,
 Gaussian 16:  ES64L-G16RevA.03 25-Dec-2016

 ------------------
 #p CCSD(T)/cc-pVTZ
 ------------------

 --------
 O2_O2_78
 --------
 Symbolic Z-matrix:
 Charge =  0 Multiplicity = 1

                         Standard orientation:
 ---------------------------------------------------------------------
 Center     Atomic      Atomic             Coordinates (Angstroms)
 Number     Number       Type             X           Y           Z
 ---------------------------------------------------------------------
      1          8           0        0.000000    0.000000    2.180000
      2          8           0        0.000000    0.000000    1.020000
      3          8           0        0.000000    0.000000   -1.020000
      4          8           0        0.000000    0.000000   -2.180000
 ---------------------------------------------------------------------

 SCF Done:  E(RHF) =  -298.914845135     A.U. after   10 cycles
 E2 =    -0.1562592481D+01 EUMP2 =    -0.30047743761597D+03
 CCSD(T)
 CCSD(T)= -0.30019879469D+03

 The electronic state is 1-SGG.
 Alpha  occ. eigenvalues --  -20.80495 -20.80489 -20.74362 -20.74362  -1.73171
 Alpha  occ. eigenvalues --   -1.72472  -1.14904  -1.07731  -0.81477  -0.76323
 Alpha  occ. eigenvalues --   -0.76323  -0.73736  -0.73736  -0.72618  -0.31720
 Alpha  occ. eigenvalues --   -0.31720
 Alpha virt. eigenvalues --   -0.10214  -0.10214   0.44840   0.48949   0.65708
 Alpha virt. eigenvalues --    0.65708   0.72135   0.72135   0.72308   0.76422
 Alpha virt. eigenvalues --    0.79023   0.79023   0.84067   0.85518   0.89671

 Mulliken charges:
               1
     1  O   -0.079760
     2  O    0.079760
     3  O    0.079760
     4  O   -0.079760
 Sum of Mulliken charges =  -0.00000

 Dipole moment (field-independent basis, Debye):
    X=             -0.0000    Y=              0.0000    Z=             -0.0000  Tot=              0.0000
 Quadrupole moment (field-independent basis, Debye-Ang):
   XX=            -20.2320   YY=            -20.2320   ZZ=            -22.3012
   XY=              0.0000   XZ=              0.0000   YZ=              0.0000

 Q=-300.105776\CCSD=-300.0473993\CCSD(T)=-300.1987947\RMSD=3.561e-09\PG
 Normal termination of Gaussian 16 at Fri Feb  9 18:48:27 2024.
