 Gaussian 16, Revision A.03,
 Gaussian 16:  ES64L-G16RevA.03 25-Dec-2016

 ------------------
 #p CCSD(T)/cc-pVTZ
 ------------------

 --------
 O2_O2_82
 --------
 Symbolic Z-matrix:
 Charge =  0 Multiplicity = 1

                         Standard orientation:
 ---------------------------------------------------------------------
 Center     Atomic      Atomic             Coordinates (Angstroms)
 Number     Number       Type             X           Y           Z
 ---------------------------------------------------------------------
      1          8           0        0.615183   -1.945183    0.000000
      2          8           0       -0.205061   -1.124939    0.000000
      3          8           0       -0.205061    0.955061   -0.000000
      4          8           0       -0.205061    2.115061   -0.000000
 ---------------------------------------------------------------------

 SCF Done:  E(RHF) =  -299.171560343     A.U. after   18 cycles
 E2 =    -0.9259412292D+00 EUMP2 =    -0.30009750157219D+03
 CCSD(T)
 CCSD(T)= -0.30013896637D+03

 The electronic state is 1-A'.
 Alpha  occ. eigenvalues --  -20.73000 -20.72844 -20.72596 -20.72077  -1.70249
 Alpha  occ. eigenvalues --   -1.69421  -1.11667  -1.06308  -0.78940  -0.78654
 Alpha  occ. eigenvalues --   -0.78325  -0.72072  -0.67632  -0.66132  -0.45043
 Alpha  occ. eigenvalues --   -0.44422
 Alpha virt. eigenvalues --    0.04750   0.05777   0.44837   0.49035   0.65738
 Alpha virt. eigenvalues --    0.66684   0.72926   0.73120   0.73966   0.77663
 Alpha virt. eigenvalues --    0.80005   0.80188   0.81282   0.86685   0.94172

 Mulliken charges:
               1
     1  O   -0.010545
     2  O    0.006646
     3  O    0.020833
     4  O   -0.016934
 Sum of Mulliken charges =   0.00000

 Dipole moment (field-independent basis, Debye):
    X=             -0.0643    Y=              0.1111    Z=             -0.0000  Tot=              0.1284
 Quadrupole moment (field-independent basis, Debye-Ang):
   XX=            -20.5048   YY=            -20.6011   ZZ=            -19.7565
   XY=              0.7714   XZ=             -0.0000   YZ=              0.0000

 4DQ=-300.0881436\MP4SDQ=-300.1011772\CCSD=-300.0973692\CCSD(T)=-300.13
 Normal termination of Gaussian 16 at Fri Feb  9 18:51:41 2024.
