 Gaussian 16, Revision A.03,
 Gaussian 16:  ES64L-G16RevA.03 25-Dec-2016

 ------------------
 #p CCSD(T)/cc-pVTZ
 ------------------

 ---------
 O2_O2_277
 ---------
 Symbolic Z-matrix:
 Charge =  0 Multiplicity = 1

                         Standard orientation:
 ---------------------------------------------------------------------
 Center     Atomic      Atomic             Coordinates (Angstroms)
 Number     Number       Type             X           Y           Z
 ---------------------------------------------------------------------
      1          8           0        0.615183   -3.245183    0.000000
      2          8           0       -0.205061   -2.424939    0.000000
      3          8           0       -0.205061    2.255061   -0.000000
      4          8           0       -0.205061    3.415061   -0.000000
 ---------------------------------------------------------------------

 SCF Done:  E(RHF) =  -299.188875723     A.U. after   17 cycles
 E2 =    -0.9189722345D+00 EUMP2 =    -0.30010784795761D+03
 CCSD(T)
 CCSD(T)= -0.30015085659D+03

 The electronic state is 1-A'.
 Alpha  occ. eigenvalues --  -20.72930 -20.72906 -20.72814 -20.72790  -1.69864
 Alpha  occ. eigenvalues --   -1.69842  -1.08551  -1.08525  -0.78640  -0.78619
 Alpha  occ. eigenvalues --   -0.75175  -0.75142  -0.67392  -0.67370  -0.44809
 Alpha  occ. eigenvalues --   -0.44786
 Alpha virt. eigenvalues --    0.04967   0.04991   0.42516   0.44068   0.70345
 Alpha virt. eigenvalues --    0.70430   0.70582   0.70598   0.72057   0.73096
 Alpha virt. eigenvalues --    0.79495   0.80360   0.82240   0.82438   0.84733

 Mulliken charges:
               1
     1  O   -0.000311
     2  O    0.000328
     3  O    0.000536
     4  O   -0.000552
 Sum of Mulliken charges =  -0.00000

 Dipole moment (field-independent basis, Debye):
    X=             -0.0008    Y=             -0.0034    Z=              0.0000  Tot=              0.0035
 Quadrupole moment (field-independent basis, Debye-Ang):
   XX=            -19.6562   YY=            -21.1141   ZZ=            -19.7591
   XY=             -0.0980   XZ=              0.0000   YZ=              0.0000

 Q=-300.1007081\MP4SDQ=-300.1133929\CCSD=-300.1099963\CCSD(T)=-300.1508
 Normal termination of Gaussian 16 at Fri Feb  9 21:20:54 2024.
