 Gaussian 16, Revision A.03,
 Gaussian 16:  ES64L-G16RevA.03 25-Dec-2016

 ------------------
 #p CCSD(T)/cc-pVTZ
 ------------------

 --------
 O2_O2_33
 --------
 Symbolic Z-matrix:
 Charge =  0 Multiplicity = 1

                         Standard orientation:
 ---------------------------------------------------------------------
 Center     Atomic      Atomic             Coordinates (Angstroms)
 Number     Number       Type             X           Y           Z
 ---------------------------------------------------------------------
      1          8           0        0.000000    0.000000    1.880000
      2          8           0        0.000000    0.000000    0.720000
      3          8           0        0.000000    0.000000   -0.720000
      4          8           0        0.000000    0.000000   -1.880000
 ---------------------------------------------------------------------

 SCF Done:  E(RHF) =  -298.870654686     A.U. after   11 cycles
 E2 =    -0.1303517426D+01 EUMP2 =    -0.30017417211173D+03
 CCSD(T)
 CCSD(T)= -0.30005769041D+03

 The electronic state is 1-SGG.
 Alpha  occ. eigenvalues --  -20.82701 -20.82676 -20.70194 -20.70194  -1.76115
 Alpha  occ. eigenvalues --   -1.71284  -1.31381  -1.01228  -0.85620  -0.80748
 Alpha  occ. eigenvalues --   -0.80748  -0.71339  -0.71339  -0.56319  -0.37278
 Alpha  occ. eigenvalues --   -0.37278
 Alpha virt. eigenvalues --   -0.03674  -0.03674   0.46078   0.50003   0.66314
 Alpha virt. eigenvalues --    0.66314   0.67067   0.71956   0.73719   0.73719
 Alpha virt. eigenvalues --    0.83336   0.83336   0.83433   0.89838   0.99666

 Mulliken charges:
               1
     1  O   -0.165740
     2  O    0.165740
     3  O    0.165740
     4  O   -0.165740
 Sum of Mulliken charges =  -0.00000

 Dipole moment (field-independent basis, Debye):
    X=             -0.0000    Y=             -0.0000    Z=             -0.0000  Tot=              0.0000
 Quadrupole moment (field-independent basis, Debye-Ang):
   XX=            -19.9950   YY=            -19.9950   ZZ=            -24.9431
   XY=              0.0000   XZ=              0.0000   YZ=              0.0000

 SDQ=-299.9732293\CCSD=-299.9546113\CCSD(T)=-300.0576904\RMSD=2.802e-09
 Normal termination of Gaussian 16 at Fri Feb  9 18:11:53 2024.
