 Gaussian 16, Revision A.03,
 Gaussian 16:  ES64L-G16RevA.03 25-Dec-2016

 ------------------
 #p CCSD(T)/cc-pVTZ
 ------------------

 ---------
 O2_O2_271
 ---------
 Symbolic Z-matrix:
 Charge =  0 Multiplicity = 1

                         Standard orientation:
 ---------------------------------------------------------------------
 Center     Atomic      Atomic             Coordinates (Angstroms)
 Number     Number       Type             X           Y           Z
 ---------------------------------------------------------------------
      1          8           0        0.615183   -3.205183   -0.000000
      2          8           0       -0.205061   -2.384939   -0.000000
      3          8           0       -0.205061    2.215061    0.000000
      4          8           0       -0.205061    3.375061    0.000000
 ---------------------------------------------------------------------

 SCF Done:  E(RHF) =  -299.188879115     A.U. after   16 cycles
 E2 =    -0.9189798079D+00 EUMP2 =    -0.30010785892318D+03
 CCSD(T)
 CCSD(T)= -0.30015086563D+03

 The electronic state is 1-A'.
 Alpha  occ. eigenvalues --  -20.72930 -20.72903 -20.72814 -20.72787  -1.69863
 Alpha  occ. eigenvalues --   -1.69839  -1.08551  -1.08522  -0.78640  -0.78616
 Alpha  occ. eigenvalues --   -0.75175  -0.75137  -0.67392  -0.67368  -0.44808
 Alpha  occ. eigenvalues --   -0.44783
 Alpha virt. eigenvalues --    0.04968   0.04993   0.42358   0.44207   0.70307
 Alpha virt. eigenvalues --    0.70429   0.70585   0.70600   0.71946   0.73210
 Alpha virt. eigenvalues --    0.79406   0.80423   0.82241   0.82542   0.84735

 Mulliken charges:
               1
     1  O   -0.000320
     2  O    0.000344
     3  O    0.000557
     4  O   -0.000581
 Sum of Mulliken charges =  -0.00000

 Dipole moment (field-independent basis, Debye):
    X=             -0.0008    Y=             -0.0038    Z=              0.0000  Tot=              0.0038
 Quadrupole moment (field-independent basis, Debye-Ang):
   XX=            -19.6563   YY=            -21.1153   ZZ=            -19.7591
   XY=             -0.0978   XZ=              0.0000   YZ=             -0.0000

 P4DQ=-300.1007166\MP4SDQ=-300.1134018\CCSD=-300.1100046\CCSD(T)=-300.1
 Normal termination of Gaussian 16 at Fri Feb  9 21:16:32 2024.
