 Gaussian 16, Revision A.03,
 Gaussian 16:  ES64L-G16RevA.03 25-Dec-2016

 ------------------
 #p CCSD(T)/cc-pVTZ
 ------------------

 ---------
 O2_O2_258
 ---------
 Symbolic Z-matrix:
 Charge =  0 Multiplicity = 1

                         Standard orientation:
 ---------------------------------------------------------------------
 Center     Atomic      Atomic             Coordinates (Angstroms)
 Number     Number       Type             X           Y           Z
 ---------------------------------------------------------------------
      1          8           0        0.000000    0.000000    3.380000
      2          8           0        0.000000    0.000000    2.220000
      3          8           0        0.000000    0.000000   -2.220000
      4          8           0        0.000000    0.000000   -3.380000
 ---------------------------------------------------------------------

 SCF Done:  E(RHF) =  -298.786347464     A.U. after   10 cycles
 E2 =    -0.2714909904D+01 EUMP2 =    -0.30150125736865D+03
 CCSD(T)
 CCSD(T)= -0.30030817515D+03

 The electronic state is 1-SGG.
 Alpha  occ. eigenvalues --  -20.76690 -20.76690 -20.75637 -20.75636  -1.71783
 Alpha  occ. eigenvalues --   -1.71776  -1.10117  -1.10015  -0.76825  -0.76767
 Alpha  occ. eigenvalues --   -0.74358  -0.74358  -0.74128  -0.74128  -0.25461
 Alpha  occ. eigenvalues --   -0.25461
 Alpha virt. eigenvalues --   -0.15747  -0.15747   0.40656   0.44485   0.69781
 Alpha virt. eigenvalues --    0.69781   0.69889   0.69889   0.70501   0.73326
 Alpha virt. eigenvalues --    0.77539   0.79878   0.82605   0.82605   0.82944

 Mulliken charges:
               1
     1  O   -0.012975
     2  O    0.012975
     3  O    0.012975
     4  O   -0.012975
 Sum of Mulliken charges =  -0.00000

 Dipole moment (field-independent basis, Debye):
    X=             -0.0000    Y=              0.0000    Z=              0.0000  Tot=              0.0000
 Quadrupole moment (field-independent basis, Debye-Ang):
   XX=            -20.0753   YY=            -20.0753   ZZ=            -21.9961
   XY=              0.0000   XZ=              0.0000   YZ=              0.0000

 4SDQ=-312.6173127\CCSD=-300.0246982\CCSD(T)=-300.3081751\RMSD=1.749e-0
 Normal termination of Gaussian 16 at Fri Feb  9 21:06:57 2024.
