 Gaussian 16, Revision A.03,
 Gaussian 16:  ES64L-G16RevA.03 25-Dec-2016

 ------------------
 #p CCSD(T)/cc-pVTZ
 ------------------

 --------
 O2_O2_44
 --------
 Symbolic Z-matrix:
 Charge =  0 Multiplicity = 1

                         Standard orientation:
 ---------------------------------------------------------------------
 Center     Atomic      Atomic             Coordinates (Angstroms)
 Number     Number       Type             X           Y           Z
 ---------------------------------------------------------------------
      1          8           0       -0.870000   -1.070000    0.000000
      2          8           0        0.290000   -1.070000    0.000000
      3          8           0        0.290000    0.490000    0.000000
      4          8           0        0.290000    1.650000    0.000000
 ---------------------------------------------------------------------

 SCF Done:  E(RHF) =  -299.026392856     A.U. after   19 cycles
 E2 =    -0.9570108817D+00 EUMP2 =    -0.29998340373808D+03
 CCSD(T)
 CCSD(T)= -0.30003390891D+03

 The electronic state is 1-A'.
 Alpha  occ. eigenvalues --  -20.74953 -20.74516 -20.73986 -20.65823  -1.74744
 Alpha  occ. eigenvalues --   -1.68322  -1.18750  -1.05112  -0.84414  -0.81237
 Alpha  occ. eigenvalues --   -0.79036  -0.72952  -0.68800  -0.54500  -0.46680
 Alpha  occ. eigenvalues --   -0.42598
 Alpha virt. eigenvalues --    0.02508   0.07691   0.43814   0.47525   0.64579
 Alpha virt. eigenvalues --    0.66919   0.69648   0.71600   0.75449   0.75834
 Alpha virt. eigenvalues --    0.81039   0.82854   0.84200   0.88527   0.89296

 Mulliken charges:
               1
     1  O   -0.121215
     2  O    0.057222
     3  O    0.070580
     4  O   -0.006587
 Sum of Mulliken charges =  -0.00000

 Dipole moment (field-independent basis, Debye):
    X=              0.7855    Y=              0.7858    Z=              0.0000  Tot=              1.1111
 Quadrupole moment (field-independent basis, Debye-Ang):
   XX=            -21.4904   YY=            -20.4646   ZZ=            -19.6254
   XY=             -0.6898   XZ=              0.0000   YZ=              0.0000

 SDQ=-299.9791613\CCSD=-299.9792534\CCSD(T)=-300.0339089\RMSD=4.942e-09
 Normal termination of Gaussian 16 at Fri Feb  9 18:21:18 2024.
