 Gaussian 16, Revision A.03,
 Gaussian 16:  ES64L-G16RevA.03 25-Dec-2016

 ------------------
 #p CCSD(T)/cc-pVTZ
 ------------------

 ---------
 O2_O2_129
 ---------
 Symbolic Z-matrix:
 Charge =  0 Multiplicity = 1

                         Standard orientation:
 ---------------------------------------------------------------------
 Center     Atomic      Atomic             Coordinates (Angstroms)
 Number     Number       Type             X           Y           Z
 ---------------------------------------------------------------------
      1          8           0        0.000000    0.000000    2.520000
      2          8           0        0.000000    0.000000    1.360000
      3          8           0        0.000000    0.000000   -1.360000
      4          8           0        0.000000    0.000000   -2.520000
 ---------------------------------------------------------------------

 SCF Done:  E(RHF) =  -298.851768705     A.U. after   10 cycles
 E2 =    -0.1907939093D+01 EUMP2 =    -0.30075970779813D+03
 CCSD(T)
 CCSD(T)= -0.30024987162D+03

 The electronic state is 1-SGG.
 Alpha  occ. eigenvalues --  -20.78457 -20.78455 -20.75316 -20.75316  -1.72362
 Alpha  occ. eigenvalues --   -1.72244  -1.11228  -1.09716  -0.78273  -0.76069
 Alpha  occ. eigenvalues --   -0.75117  -0.75117  -0.74166  -0.74166  -0.28556
 Alpha  occ. eigenvalues --   -0.28556
 Alpha virt. eigenvalues --   -0.13147  -0.13147   0.40289   0.48930   0.66750
 Alpha virt. eigenvalues --    0.66915   0.66915   0.71204   0.71204   0.75917
 Alpha virt. eigenvalues --    0.78692   0.78692   0.79882   0.85550   0.86831

 Mulliken charges:
               1
     1  O   -0.033870
     2  O    0.033870
     3  O    0.033870
     4  O   -0.033870
 Sum of Mulliken charges =  -0.00000

 Dipole moment (field-independent basis, Debye):
    X=             -0.0000    Y=             -0.0000    Z=              0.0000  Tot=              0.0000
 Quadrupole moment (field-independent basis, Debye-Ang):
   XX=            -20.1664   YY=            -20.1664   ZZ=            -21.9079
   XY=              0.0000   XZ=              0.0000   YZ=              0.0000

 4SDQ=-300.9428791\CCSD=-300.0345066\CCSD(T)=-300.2498716\RMSD=2.370e-0
 Normal termination of Gaussian 16 at Fri Feb  9 19:29:21 2024.
