 Gaussian 16, Revision A.03,
 Gaussian 16:  ES64L-G16RevA.03 25-Dec-2016

 ------------------
 #p CCSD(T)/cc-pVTZ
 ------------------

 --------
 O2_O2_83
 --------
 Symbolic Z-matrix:
 Charge =  0 Multiplicity = 1

                         Standard orientation:
 ---------------------------------------------------------------------
 Center     Atomic      Atomic             Coordinates (Angstroms)
 Number     Number       Type             X           Y           Z
 ---------------------------------------------------------------------
      1          8           0       -0.870000   -1.330000    0.000000
      2          8           0        0.290000   -1.330000    0.000000
      3          8           0        0.290000    0.750000    0.000000
      4          8           0        0.290000    1.910000    0.000000
 ---------------------------------------------------------------------

 SCF Done:  E(RHF) =  -298.917161947     A.U. after   17 cycles
 E2 =    -0.1490139400D+01 EUMP2 =    -0.30040730134618D+03
 CCSD(T)
 CCSD(T)= -0.30019054105D+03

 The electronic state is 1-A'.
 Alpha  occ. eigenvalues --  -20.79658 -20.78071 -20.76149 -20.73719  -1.73146
 Alpha  occ. eigenvalues --   -1.71818  -1.12683  -1.09476  -0.81030  -0.77474
 Alpha  occ. eigenvalues --   -0.76037  -0.74592  -0.73611  -0.70197  -0.32983
 Alpha  occ. eigenvalues --   -0.31573
 Alpha virt. eigenvalues --   -0.10376  -0.08463   0.42024   0.47108   0.64973
 Alpha virt. eigenvalues --    0.68306   0.69705   0.71254   0.73462   0.74542
 Alpha virt. eigenvalues --    0.77377   0.78774   0.81723   0.86794   0.87663

 Mulliken charges:
               1
     1  O   -0.011732
     2  O    0.025284
     3  O    0.064518
     4  O   -0.078071
 Sum of Mulliken charges =  -0.00000

 Dipole moment (field-independent basis, Debye):
    X=              0.0888    Y=             -0.3450    Z=              0.0000  Tot=              0.3563
 Quadrupole moment (field-independent basis, Debye-Ang):
   XX=            -20.7990   YY=            -21.1555   ZZ=            -20.1183
   XY=             -0.0458   XZ=              0.0000   YZ=              0.0000

 SDQ=-300.0118507\CCSD=-300.0422205\CCSD(T)=-300.1905411\RMSD=5.937e-09
 Normal termination of Gaussian 16 at Fri Feb  9 18:52:34 2024.
