 Gaussian 16, Revision A.03,
 Gaussian 16:  ES64L-G16RevA.03 25-Dec-2016

 ------------------
 #p CCSD(T)/cc-pVTZ
 ------------------

 ---------
 O2_O2_209
 ---------
 Symbolic Z-matrix:
 Charge =  0 Multiplicity = 1

                         Standard orientation:
 ---------------------------------------------------------------------
 Center     Atomic      Atomic             Coordinates (Angstroms)
 Number     Number       Type             X           Y           Z
 ---------------------------------------------------------------------
      1          8           0       -0.870000   -2.170000    0.000000
      2          8           0        0.290000   -2.170000    0.000000
      3          8           0        0.290000    1.590000    0.000000
      4          8           0        0.290000    2.750000    0.000000
 ---------------------------------------------------------------------

 SCF Done:  E(RHF) =  -299.188957958     A.U. after   18 cycles
 E2 =    -0.9191931298D+00 EUMP2 =    -0.30010815108817D+03
 CCSD(T)
 CCSD(T)= -0.30015113572D+03

 The electronic state is 1-A'.
 Alpha  occ. eigenvalues --  -20.72927 -20.72844 -20.72810 -20.72726  -1.69854
 Alpha  occ. eigenvalues --   -1.69781  -1.08547  -1.08457  -0.78633  -0.78558
 Alpha  occ. eigenvalues --   -0.75192  -0.75045  -0.67382  -0.67308  -0.44799
 Alpha  occ. eigenvalues --   -0.44724
 Alpha virt. eigenvalues --    0.04974   0.05054   0.42127   0.43572   0.66188
 Alpha virt. eigenvalues --    0.70042   0.70504   0.70979   0.72580   0.75802
 Alpha virt. eigenvalues --    0.79523   0.80365   0.82311   0.83134   0.84795

 Mulliken charges:
               1
     1  O   -0.000401
     2  O    0.000649
     3  O    0.000776
     4  O   -0.001025
 Sum of Mulliken charges =  -0.00000

 Dipole moment (field-independent basis, Debye):
    X=              0.0022    Y=             -0.0142    Z=              0.0000  Tot=              0.0144
 Quadrupole moment (field-independent basis, Debye-Ang):
   XX=            -19.5550   YY=            -21.2276   ZZ=            -19.7597
   XY=             -0.0100   XZ=              0.0000   YZ=              0.0000

 SDQ=-300.1136506\CCSD=-300.1102503\CCSD(T)=-300.1511357\RMSD=5.185e-09
 Normal termination of Gaussian 16 at Fri Feb  9 20:29:52 2024.
