 Gaussian 16, Revision A.03,
 Gaussian 16:  ES64L-G16RevA.03 25-Dec-2016

 ------------------
 #p CCSD(T)/cc-pVTZ
 ------------------

 ---------
 O2_O2_182
 ---------
 Symbolic Z-matrix:
 Charge =  0 Multiplicity = 1

                         Standard orientation:
 ---------------------------------------------------------------------
 Center     Atomic      Atomic             Coordinates (Angstroms)
 Number     Number       Type             X           Y           Z
 ---------------------------------------------------------------------
      1          8           0       -0.870000   -1.990000    0.000000
      2          8           0        0.290000   -1.990000    0.000000
      3          8           0        0.290000    1.410000    0.000000
      4          8           0        0.290000    2.570000    0.000000
 ---------------------------------------------------------------------

 SCF Done:  E(RHF) =  -299.188989104     A.U. after   18 cycles
 E2 =    -0.9194221322D+00 EUMP2 =    -0.30010841123591D+03
 CCSD(T)
 CCSD(T)= -0.30015137991D+03

 The electronic state is 1-A'.
 Alpha  occ. eigenvalues --  -20.72927 -20.72811 -20.72809 -20.72690  -1.69851
 Alpha  occ. eigenvalues --   -1.69747  -1.08555  -1.08412  -0.78653  -0.78526
 Alpha  occ. eigenvalues --   -0.75235  -0.74942  -0.67377  -0.67274  -0.44797
 Alpha  occ. eigenvalues --   -0.44690
 Alpha virt. eigenvalues --    0.04977   0.05085   0.41459   0.43692   0.64381
 Alpha virt. eigenvalues --    0.69431   0.70087   0.71435   0.72643   0.76800
 Alpha virt. eigenvalues --    0.79069   0.80398   0.82399   0.82733   0.84989

 Mulliken charges:
               1
     1  O   -0.000552
     2  O    0.000926
     3  O    0.000581
     4  O   -0.000955
 Sum of Mulliken charges =  -0.00000

 Dipole moment (field-independent basis, Debye):
    X=              0.0041    Y=             -0.0193    Z=              0.0000  Tot=              0.0197
 Quadrupole moment (field-independent basis, Debye-Ang):
   XX=            -19.5572   YY=            -21.2475   ZZ=            -19.7603
   XY=             -0.0142   XZ=              0.0000   YZ=              0.0000

 Q=-300.1138712\CCSD=-300.1104654\CCSD(T)=-300.1513799\RMSD=7.115e-09\P
 Normal termination of Gaussian 16 at Fri Feb  9 20:09:50 2024.
