 Gaussian 16, Revision A.03,
 Gaussian 16:  ES64L-G16RevA.03 25-Dec-2016

 ------------------
 #p CCSD(T)/cc-pVTZ
 ------------------

 --------
 O2_O2_99
 --------
 Symbolic Z-matrix:
 Charge =  0 Multiplicity = 1

                         Standard orientation:
 ---------------------------------------------------------------------
 Center     Atomic      Atomic             Coordinates (Angstroms)
 Number     Number       Type             X           Y           Z
 ---------------------------------------------------------------------
      1          8           0        0.000000    0.000000    2.320000
      2          8           0        0.000000    0.000000    1.160000
      3          8           0        0.000000    0.000000   -1.160000
      4          8           0        0.000000    0.000000   -2.320000
 ---------------------------------------------------------------------

 SCF Done:  E(RHF) =  -298.886642092     A.U. after   10 cycles
 E2 =    -0.1704059808D+01 EUMP2 =    -0.30059070190002D+03
 CCSD(T)
 CCSD(T)= -0.30022177463D+03

 The electronic state is 1-SGG.
 Alpha  occ. eigenvalues --  -20.79579 -20.79574 -20.74971 -20.74970  -1.72773
 Alpha  occ. eigenvalues --   -1.72451  -1.12670  -1.08960  -0.79787  -0.75686
 Alpha  occ. eigenvalues --   -0.75686  -0.74764  -0.74049  -0.74049  -0.30159
 Alpha  occ. eigenvalues --   -0.30159
 Alpha virt. eigenvalues --   -0.11748  -0.11748   0.43355   0.48967   0.65762
 Alpha virt. eigenvalues --    0.65762   0.70591   0.71725   0.71725   0.76145
 Alpha virt. eigenvalues --    0.78380   0.78380   0.83625   0.84680   0.86571

 Mulliken charges:
               1
     1  O   -0.056602
     2  O    0.056602
     3  O    0.056602
     4  O   -0.056602
 Sum of Mulliken charges =  -0.00000

 Dipole moment (field-independent basis, Debye):
    X=             -0.0000    Y=             -0.0000    Z=              0.0000  Tot=              0.0000
 Quadrupole moment (field-independent basis, Debye-Ang):
   XX=            -20.2158   YY=            -20.2158   ZZ=            -21.9781
   XY=              0.0000   XZ=              0.0000   YZ=              0.0000

 4SDQ=-300.2901171\CCSD=-300.0422444\CCSD(T)=-300.2217746\RMSD=2.743e-0
 Normal termination of Gaussian 16 at Fri Feb  9 19:06:43 2024.
