 Gaussian 16, Revision A.03,
 Gaussian 16:  ES64L-G16RevA.03 25-Dec-2016

 ------------------
 #p CCSD(T)/cc-pVTZ
 ------------------

 ---------
 O2_O2_206
 ---------
 Symbolic Z-matrix:
 Charge =  0 Multiplicity = 1

                         Standard orientation:
 ---------------------------------------------------------------------
 Center     Atomic      Atomic             Coordinates (Angstroms)
 Number     Number       Type             X           Y           Z
 ---------------------------------------------------------------------
      1          8           0       -0.870000   -2.150000    0.000000
      2          8           0        0.290000   -2.150000    0.000000
      3          8           0        0.290000    1.570000    0.000000
      4          8           0        0.290000    2.730000    0.000000
 ---------------------------------------------------------------------

 SCF Done:  E(RHF) =  -299.188963215     A.U. after   18 cycles
 E2 =    -0.9192125822D+00 EUMP2 =    -0.30010817579722D+03
 CCSD(T)
 CCSD(T)= -0.30015115878D+03

 The electronic state is 1-A'.
 Alpha  occ. eigenvalues --  -20.72927 -20.72841 -20.72811 -20.72723  -1.69854
 Alpha  occ. eigenvalues --   -1.69778  -1.08548  -1.08453  -0.78634  -0.78555
 Alpha  occ. eigenvalues --   -0.75196  -0.75037  -0.67381  -0.67305  -0.44799
 Alpha  occ. eigenvalues --   -0.44720
 Alpha virt. eigenvalues --    0.04975   0.05057   0.42037   0.43581   0.65947
 Alpha virt. eigenvalues --    0.69993   0.70477   0.71020   0.72584   0.75947
 Alpha virt. eigenvalues --    0.79480   0.80368   0.82317   0.83148   0.84807

 Mulliken charges:
               1
     1  O   -0.000415
     2  O    0.000681
     3  O    0.000755
     4  O   -0.001021
 Sum of Mulliken charges =  -0.00000

 Dipole moment (field-independent basis, Debye):
    X=              0.0023    Y=             -0.0148    Z=              0.0000  Tot=              0.0150
 Quadrupole moment (field-independent basis, Debye-Ang):
   XX=            -19.5551   YY=            -21.2288   ZZ=            -19.7597
   XY=             -0.0104   XZ=              0.0000   YZ=              0.0000

 4SDQ=-300.1136718\CCSD=-300.1102709\CCSD(T)=-300.1511588\RMSD=6.639e-0
 Normal termination of Gaussian 16 at Fri Feb  9 20:27:39 2024.
