 Gaussian 16, Revision A.03,
 Gaussian 16:  ES64L-G16RevA.03 25-Dec-2016

 ------------------
 #p CCSD(T)/cc-pVTZ
 ------------------

 ---------
 O2_O2_237
 ---------
 Symbolic Z-matrix:
 Charge =  0 Multiplicity = 1

                         Standard orientation:
 ---------------------------------------------------------------------
 Center     Atomic      Atomic             Coordinates (Angstroms)
 Number     Number       Type             X           Y           Z
 ---------------------------------------------------------------------
      1          8           0        0.000000    0.000000    3.240000
      2          8           0        0.000000    0.000000    2.080000
      3          8           0        0.000000    0.000000   -2.080000
      4          8           0        0.000000    0.000000   -3.240000
 ---------------------------------------------------------------------

 SCF Done:  E(RHF) =  -298.792196981     A.U. after   10 cycles
 E2 =    -0.2590771180D+01 EUMP2 =    -0.30138296816085D+03
 CCSD(T)
 CCSD(T)= -0.30030299602D+03

 The electronic state is 1-SGG.
 Alpha  occ. eigenvalues --  -20.76782 -20.76781 -20.75592 -20.75592  -1.71802
 Alpha  occ. eigenvalues --   -1.71792  -1.10146  -1.10012  -0.76862  -0.76756
 Alpha  occ. eigenvalues --   -0.74394  -0.74394  -0.74121  -0.74121  -0.25750
 Alpha  occ. eigenvalues --   -0.25750
 Alpha virt. eigenvalues --   -0.15474  -0.15474   0.39287   0.45511   0.69162
 Alpha virt. eigenvalues --    0.69709   0.69709   0.69944   0.69944   0.74110
 Alpha virt. eigenvalues --    0.77284   0.81400   0.82406   0.82406   0.83144

 Mulliken charges:
               1
     1  O   -0.014286
     2  O    0.014286
     3  O    0.014286
     4  O   -0.014286
 Sum of Mulliken charges =  -0.00000

 Dipole moment (field-independent basis, Debye):
    X=             -0.0000    Y=              0.0000    Z=              0.0000  Tot=              0.0000
 Quadrupole moment (field-independent basis, Debye-Ang):
   XX=            -20.0786   YY=            -20.0786   ZZ=            -22.0173
   XY=              0.0000   XZ=              0.0000   YZ=              0.0000

 4SDQ=-309.5058721\CCSD=-300.0252368\CCSD(T)=-300.302996\RMSD=1.745e-09
 Normal termination of Gaussian 16 at Fri Feb  9 20:50:16 2024.
