 Gaussian 16, Revision A.03,
 Gaussian 16:  ES64L-G16RevA.03 25-Dec-2016

 ------------------
 #p CCSD(T)/cc-pVTZ
 ------------------

 ---------
 O2_O2_191
 ---------
 Symbolic Z-matrix:
 Charge =  0 Multiplicity = 1

                         Standard orientation:
 ---------------------------------------------------------------------
 Center     Atomic      Atomic             Coordinates (Angstroms)
 Number     Number       Type             X           Y           Z
 ---------------------------------------------------------------------
      1          8           0       -0.870000   -2.050000    0.000000
      2          8           0        0.290000   -2.050000    0.000000
      3          8           0        0.290000    1.470000    0.000000
      4          8           0        0.290000    2.630000    0.000000
 ---------------------------------------------------------------------

 SCF Done:  E(RHF) =  -299.188985750     A.U. after   18 cycles
 E2 =    -0.9193306041D+00 EUMP2 =    -0.30010831635416D+03
 CCSD(T)
 CCSD(T)= -0.30015129087D+03

 The electronic state is 1-A'.
 Alpha  occ. eigenvalues --  -20.72927 -20.72822 -20.72811 -20.72704  -1.69852
 Alpha  occ. eigenvalues --   -1.69760  -1.08551  -1.08430  -0.78642  -0.78538
 Alpha  occ. eigenvalues --   -0.75217  -0.74985  -0.67379  -0.67287  -0.44798
 Alpha  occ. eigenvalues --   -0.44702
 Alpha virt. eigenvalues --    0.04976   0.05074   0.41621   0.43640   0.64869
 Alpha virt. eigenvalues --    0.69682   0.70275   0.71261   0.72615   0.76552
 Alpha virt. eigenvalues --    0.79222   0.80378   0.82359   0.83003   0.84897

 Mulliken charges:
               1
     1  O   -0.000494
     2  O    0.000839
     3  O    0.000631
     4  O   -0.000975
 Sum of Mulliken charges =  -0.00000

 Dipole moment (field-independent basis, Debye):
    X=              0.0033    Y=             -0.0177    Z=              0.0000  Tot=              0.0180
 Quadrupole moment (field-independent basis, Debye-Ang):
   XX=            -19.5563   YY=            -21.2384   ZZ=            -19.7600
   XY=             -0.0126   XZ=              0.0000   YZ=              0.0000

 4SDQ=-300.1137918\CCSD=-300.1103881\CCSD(T)=-300.1512909\RMSD=9.206e-0
 Normal termination of Gaussian 16 at Fri Feb  9 20:16:26 2024.
