 Gaussian 16, Revision A.03,
 Gaussian 16:  ES64L-G16RevA.03 25-Dec-2016

 ------------------
 #p CCSD(T)/cc-pVTZ
 ------------------

 --------
 O2_O2_88
 --------
 Symbolic Z-matrix:
 Charge =  0 Multiplicity = 1

                         Standard orientation:
 ---------------------------------------------------------------------
 Center     Atomic      Atomic             Coordinates (Angstroms)
 Number     Number       Type             X           Y           Z
 ---------------------------------------------------------------------
      1          8           0        0.615183   -1.985183    0.000000
      2          8           0       -0.205061   -1.164939    0.000000
      3          8           0       -0.205061    0.995061   -0.000000
      4          8           0       -0.205061    2.155061   -0.000000
 ---------------------------------------------------------------------

 SCF Done:  E(RHF) =  -299.176476464     A.U. after   18 cycles
 E2 =    -0.9246181351D+00 EUMP2 =    -0.30010109459877D+03
 CCSD(T)
 CCSD(T)= -0.30014283794D+03

 The electronic state is 1-A'.
 Alpha  occ. eigenvalues --  -20.73015 -20.72868 -20.72615 -20.72235  -1.70179
 Alpha  occ. eigenvalues --   -1.69490  -1.11061  -1.06672  -0.78882  -0.78357
 Alpha  occ. eigenvalues --   -0.78178  -0.72469  -0.67602  -0.66453  -0.45019
 Alpha  occ. eigenvalues --   -0.44479
 Alpha virt. eigenvalues --    0.04767   0.05642   0.44481   0.48902   0.65788
 Alpha virt. eigenvalues --    0.66640   0.72521   0.72981   0.73783   0.77599
 Alpha virt. eigenvalues --    0.79911   0.80263   0.81272   0.86791   0.93077

 Mulliken charges:
               1
     1  O   -0.007847
     2  O    0.005086
     3  O    0.017987
     4  O   -0.015226
 Sum of Mulliken charges =  -0.00000

 Dipole moment (field-independent basis, Debye):
    X=             -0.0524    Y=              0.0921    Z=              0.0000  Tot=              0.1059
 Quadrupole moment (field-independent basis, Debye-Ang):
   XX=            -20.4967   YY=            -20.5285   ZZ=            -19.7593
   XY=              0.7544   XZ=             -0.0000   YZ=              0.0000

 DQ=-300.0921917\MP4SDQ=-300.1051424\CCSD=-300.1014057\CCSD(T)=-300.142
 Normal termination of Gaussian 16 at Fri Feb  9 18:56:33 2024.
