 Gaussian 16, Revision A.03,
 Gaussian 16:  ES64L-G16RevA.03 25-Dec-2016

 ------------------
 #p CCSD(T)/cc-pVTZ
 ------------------

 ---------
 O2_O2_235
 ---------
 Symbolic Z-matrix:
 Charge =  0 Multiplicity = 1

                         Standard orientation:
 ---------------------------------------------------------------------
 Center     Atomic      Atomic             Coordinates (Angstroms)
 Number     Number       Type             X           Y           Z
 ---------------------------------------------------------------------
      1          8           0        0.615183   -2.965183    0.000000
      2          8           0       -0.205061   -2.144939    0.000000
      3          8           0       -0.205061    1.975061   -0.000000
      4          8           0       -0.205061    3.135061   -0.000000
 ---------------------------------------------------------------------

 SCF Done:  E(RHF) =  -299.188919324     A.U. after   17 cycles
 E2 =    -0.9190642985D+00 EUMP2 =    -0.30010798362242D+03
 CCSD(T)
 CCSD(T)= -0.30015097141D+03

 The electronic state is 1-A'.
 Alpha  occ. eigenvalues --  -20.72931 -20.72882 -20.72815 -20.72766  -1.69863
 Alpha  occ. eigenvalues --   -1.69819  -1.08552  -1.08496  -0.78638  -0.78595
 Alpha  occ. eigenvalues --   -0.75191  -0.75094  -0.67390  -0.67347  -0.44805
 Alpha  occ. eigenvalues --   -0.44761
 Alpha virt. eigenvalues --    0.04970   0.05015   0.40908   0.45325   0.69287
 Alpha virt. eigenvalues --    0.70374   0.70583   0.70655   0.71306   0.74243
 Alpha virt. eigenvalues --    0.78782   0.80678   0.82208   0.84392   0.84803

 Mulliken charges:
               1
     1  O   -0.000274
     2  O    0.000428
     3  O    0.000569
     4  O   -0.000723
 Sum of Mulliken charges =  -0.00000

 Dipole moment (field-independent basis, Debye):
    X=             -0.0008    Y=             -0.0083    Z=              0.0000  Tot=              0.0084
 Quadrupole moment (field-independent basis, Debye-Ang):
   XX=            -19.6567   YY=            -21.1214   ZZ=            -19.7594
   XY=             -0.0962   XZ=              0.0000   YZ=              0.0000

 DQ=-300.1008146\MP4SDQ=-300.113504\CCSD=-300.1101019\CCSD(T)=-300.1509
 Normal termination of Gaussian 16 at Fri Feb  9 20:48:52 2024.
