 Gaussian 16, Revision A.03,
 Gaussian 16:  ES64L-G16RevA.03 25-Dec-2016

 ------------------
 #p CCSD(T)/cc-pVTZ
 ------------------

 -------
 O2_O2_8
 -------
 Symbolic Z-matrix:
 Charge =  0 Multiplicity = 1

                         Standard orientation:
 ---------------------------------------------------------------------
 Center     Atomic      Atomic             Coordinates (Angstroms)
 Number     Number       Type             X           Y           Z
 ---------------------------------------------------------------------
      1          8           0       -0.870000   -0.830000    0.000000
      2          8           0        0.290000   -0.830000    0.000000
      3          8           0        0.290000    0.250000    0.000000
      4          8           0        0.290000    1.410000    0.000000
 ---------------------------------------------------------------------

 SCF Done:  E(RHF) =  -298.736650772     A.U. after   15 cycles
 E2 =    -0.9543228080D+00 EUMP2 =    -0.29969097358037D+03
 CCSD(T)
 CCSD(T)= -0.29972560165D+03

 The electronic state is 1-A'.
 Alpha  occ. eigenvalues --  -20.92611 -20.82839 -20.70408 -20.53763  -2.04302
 Alpha  occ. eigenvalues --   -1.67975  -1.40192  -1.10117  -0.98411  -0.90580
 Alpha  occ. eigenvalues --   -0.84717  -0.73505  -0.66183  -0.52538  -0.40288
 Alpha  occ. eigenvalues --   -0.40272
 Alpha virt. eigenvalues --    0.01786   0.24646   0.40327   0.46163   0.60191
 Alpha virt. eigenvalues --    0.61881   0.64718   0.71292   0.74413   0.75120
 Alpha virt. eigenvalues --    0.81683   0.83648   0.87232   0.88560   0.91930

 Mulliken charges:
               1
     1  O   -0.513233
     2  O    0.320723
     3  O    0.393084
     4  O   -0.200574
 Sum of Mulliken charges =  -0.00000

 Dipole moment (field-independent basis, Debye):
    X=              2.7090    Y=             -0.1718    Z=              0.0000  Tot=              2.7145
 Quadrupole moment (field-independent basis, Debye-Ang):
   XX=            -22.2980   YY=            -22.9692   ZZ=            -19.0857
   XY=             -2.8733   XZ=              0.0000   YZ=              0.0000

 DQ=-299.678507\CCSD=-299.6773825\CCSD(T)=-299.7256016\RMSD=9.431e-09\P
 Normal termination of Gaussian 16 at Fri Feb  9 17:48:53 2024.
