 Gaussian 16, Revision A.03,
 Gaussian 16:  ES64L-G16RevA.03 25-Dec-2016

 ------------------
 #p CCSD(T)/cc-pVTZ
 ------------------

 -------
 O2_O2_5
 -------
 Symbolic Z-matrix:
 Charge =  0 Multiplicity = 1

                         Standard orientation:
 ---------------------------------------------------------------------
 Center     Atomic      Atomic             Coordinates (Angstroms)
 Number     Number       Type             X           Y           Z
 ---------------------------------------------------------------------
      1          8           0       -0.870000   -0.810000    0.000000
      2          8           0        0.290000   -0.810000    0.000000
      3          8           0        0.290000    0.230000    0.000000
      4          8           0        0.290000    1.390000    0.000000
 ---------------------------------------------------------------------

 SCF Done:  E(RHF) =  -298.697605485     A.U. after   15 cycles
 E2 =    -0.9440184949D+00 EUMP2 =    -0.29964162397948D+03
 CCSD(T)
 CCSD(T)= -0.29967704396D+03

 The electronic state is 1-A'.
 Alpha  occ. eigenvalues --  -20.92933 -20.83416 -20.69724 -20.53413  -2.09133
 Alpha  occ. eigenvalues --   -1.67767  -1.42375  -1.11210  -1.01138  -0.90831
 Alpha  occ. eigenvalues --   -0.85107  -0.73172  -0.65507  -0.52388  -0.41126
 Alpha  occ. eigenvalues --   -0.39637
 Alpha virt. eigenvalues --    0.03143   0.27192   0.40186   0.45729   0.60395
 Alpha virt. eigenvalues --    0.61053   0.64005   0.71332   0.74476   0.75111
 Alpha virt. eigenvalues --    0.81521   0.83524   0.87348   0.88682   0.92060

 Mulliken charges:
               1
     1  O   -0.533520
     2  O    0.329629
     3  O    0.418285
     4  O   -0.214394
 Sum of Mulliken charges =  -0.00000

 Dipole moment (field-independent basis, Debye):
    X=              2.7821    Y=             -0.2843    Z=              0.0000  Tot=              2.7966
 Quadrupole moment (field-independent basis, Debye-Ang):
   XX=            -22.2955   YY=            -23.0776   ZZ=            -19.0105
   XY=             -2.9273   XZ=              0.0000   YZ=              0.0000

 -299.6325167\CCSD=-299.6314903\CCSD(T)=-299.677044\RMSD=8.980e-09\PG=C
 Normal termination of Gaussian 16 at Fri Feb  9 17:46:43 2024.
