 Gaussian 16, Revision A.03,
 Gaussian 16:  ES64L-G16RevA.03 25-Dec-2016

 ------------------
 #p CCSD(T)/cc-pVTZ
 ------------------

 ---------
 O2_O2_259
 ---------
 Symbolic Z-matrix:
 Charge =  0 Multiplicity = 1

                         Standard orientation:
 ---------------------------------------------------------------------
 Center     Atomic      Atomic             Coordinates (Angstroms)
 Number     Number       Type             X           Y           Z
 ---------------------------------------------------------------------
      1          8           0        0.615183   -3.125183    0.000000
      2          8           0       -0.205061   -2.304939    0.000000
      3          8           0       -0.205061    2.135061   -0.000000
      4          8           0       -0.205061    3.295061   -0.000000
 ---------------------------------------------------------------------

 SCF Done:  E(RHF) =  -299.188888709     A.U. after   17 cycles
 E2 =    -0.9189996183D+00 EUMP2 =    -0.30010788832742D+03
 CCSD(T)
 CCSD(T)= -0.30015089100D+03

 The electronic state is 1-A'.
 Alpha  occ. eigenvalues --  -20.72929 -20.72897 -20.72813 -20.72781  -1.69862
 Alpha  occ. eigenvalues --   -1.69833  -1.08550  -1.08515  -0.78638  -0.78610
 Alpha  occ. eigenvalues --   -0.75178  -0.75127  -0.67391  -0.67362  -0.44806
 Alpha  occ. eigenvalues --   -0.44777
 Alpha virt. eigenvalues --    0.04969   0.04999   0.41971   0.44530   0.70160
 Alpha virt. eigenvalues --    0.70424   0.70596   0.70604   0.71695   0.73492
 Alpha virt. eigenvalues --    0.79203   0.80541   0.82241   0.82885   0.84744

 Mulliken charges:
               1
     1  O   -0.000328
     2  O    0.000375
     3  O    0.000591
     4  O   -0.000639
 Sum of Mulliken charges =  -0.00000

 Dipole moment (field-independent basis, Debye):
    X=             -0.0008    Y=             -0.0048    Z=             -0.0000  Tot=              0.0049
 Quadrupole moment (field-independent basis, Debye-Ang):
   XX=            -19.6564   YY=            -21.1176   ZZ=            -19.7592
   XY=             -0.0973   XZ=             -0.0000   YZ=              0.0000

 4DQ=-300.1007398\MP4SDQ=-300.1134257\CCSD=-300.1100277\CCSD(T)=-300.15
 Normal termination of Gaussian 16 at Fri Feb  9 21:07:44 2024.
