 Gaussian 16, Revision A.03,
 Gaussian 16:  ES64L-G16RevA.03 25-Dec-2016

 ------------------
 #p CCSD(T)/cc-pVTZ
 ------------------

 ---------
 O2_O2_263
 ---------
 Symbolic Z-matrix:
 Charge =  0 Multiplicity = 1

                         Standard orientation:
 ---------------------------------------------------------------------
 Center     Atomic      Atomic             Coordinates (Angstroms)
 Number     Number       Type             X           Y           Z
 ---------------------------------------------------------------------
      1          8           0       -0.870000   -2.530000    0.000000
      2          8           0        0.290000   -2.530000    0.000000
      3          8           0        0.290000    1.950000    0.000000
      4          8           0        0.290000    3.110000    0.000000
 ---------------------------------------------------------------------

 SCF Done:  E(RHF) =  -299.188887262     A.U. after   18 cycles
 E2 =    -0.9189947999D+00 EUMP2 =    -0.30010788206150D+03
 CCSD(T)
 CCSD(T)= -0.30015089185D+03

 The electronic state is 1-A'.
 Alpha  occ. eigenvalues --  -20.72926 -20.72886 -20.72810 -20.72770  -1.69858
 Alpha  occ. eigenvalues --   -1.69822  -1.08548  -1.08505  -0.78634  -0.78599
 Alpha  occ. eigenvalues --   -0.75172  -0.75122  -0.67387  -0.67350  -0.44804
 Alpha  occ. eigenvalues --   -0.44766
 Alpha virt. eigenvalues --    0.04970   0.05012   0.43128   0.43439   0.69752
 Alpha virt. eigenvalues --    0.70421   0.70612   0.70621   0.72556   0.73195
 Alpha virt. eigenvalues --    0.79867   0.80102   0.82260   0.82347   0.84732

 Mulliken charges:
               1
     1  O   -0.000242
     2  O    0.000271
     3  O    0.000737
     4  O   -0.000766
 Sum of Mulliken charges =  -0.00000

 Dipole moment (field-independent basis, Debye):
    X=              0.0013    Y=             -0.0062    Z=              0.0000  Tot=              0.0064
 Quadrupole moment (field-independent basis, Debye-Ang):
   XX=            -19.5532   YY=            -21.2169   ZZ=            -19.7591
   XY=             -0.0063   XZ=              0.0000   YZ=              0.0000

 4SDQ=-300.1134229\CCSD=-300.1100287\CCSD(T)=-300.1508919\RMSD=5.531e-0
 Normal termination of Gaussian 16 at Fri Feb  9 21:10:35 2024.
