 Gaussian 16, Revision A.03,
 Gaussian 16:  ES64L-G16RevA.03 25-Dec-2016

 ------------------
 #p CCSD(T)/cc-pVTZ
 ------------------

 --------
 O2_O2_45
 --------
 Symbolic Z-matrix:
 Charge =  0 Multiplicity = 1

                         Standard orientation:
 ---------------------------------------------------------------------
 Center     Atomic      Atomic             Coordinates (Angstroms)
 Number     Number       Type             X           Y           Z
 ---------------------------------------------------------------------
      1          8           0        0.000000    0.000000    1.960000
      2          8           0        0.000000    0.000000    0.800000
      3          8           0        0.000000    0.000000   -0.800000
      4          8           0        0.000000    0.000000   -1.960000
 ---------------------------------------------------------------------

 SCF Done:  E(RHF) =  -298.919978797     A.U. after   10 cycles
 E2 =    -0.1359903938D+01 EUMP2 =    -0.30027988273526D+03
 CCSD(T)
 CCSD(T)= -0.30012788713D+03

 The electronic state is 1-SGG.
 Alpha  occ. eigenvalues --  -20.81931 -20.81916 -20.71914 -20.71914  -1.74547
 Alpha  occ. eigenvalues --   -1.71847  -1.24336  -1.03572  -0.84734  -0.78646
 Alpha  occ. eigenvalues --   -0.78646  -0.72316  -0.72316  -0.63520  -0.35414
 Alpha  occ. eigenvalues --   -0.35414
 Alpha virt. eigenvalues --   -0.06018  -0.06018   0.46148   0.49416   0.66409
 Alpha virt. eigenvalues --    0.66409   0.70055   0.73142   0.73142   0.74488
 Alpha virt. eigenvalues --    0.81909   0.81909   0.83981   0.86220   0.98951

 Mulliken charges:
               1
     1  O   -0.136727
     2  O    0.136727
     3  O    0.136727
     4  O   -0.136727
 Sum of Mulliken charges =   0.00000

 Dipole moment (field-independent basis, Debye):
    X=             -0.0000    Y=             -0.0000    Z=             -0.0000  Tot=              0.0000
 Quadrupole moment (field-independent basis, Debye-Ang):
   XX=            -20.1191   YY=            -20.1191   ZZ=            -23.8442
   XY=              0.0000   XZ=              0.0000   YZ=              0.0000

 SDQ=-300.020534\CCSD=-300.0146401\CCSD(T)=-300.1278871\RMSD=7.503e-09\
 Normal termination of Gaussian 16 at Fri Feb  9 18:21:54 2024.
