 Gaussian 16, Revision A.03,
 Gaussian 16:  ES64L-G16RevA.03 25-Dec-2016

 ------------------
 #p CCSD(T)/cc-pVTZ
 ------------------

 ---------
 O2_O2_233
 ---------
 Symbolic Z-matrix:
 Charge =  0 Multiplicity = 1

                         Standard orientation:
 ---------------------------------------------------------------------
 Center     Atomic      Atomic             Coordinates (Angstroms)
 Number     Number       Type             X           Y           Z
 ---------------------------------------------------------------------
      1          8           0       -0.870000   -2.330000    0.000000
      2          8           0        0.290000   -2.330000    0.000000
      3          8           0        0.290000    1.750000    0.000000
      4          8           0        0.290000    2.910000    0.000000
 ---------------------------------------------------------------------

 SCF Done:  E(RHF) =  -299.188918937     A.U. after   17 cycles
 E2 =    -0.9190747478D+00 EUMP2 =    -0.30010799368502D+03
 CCSD(T)
 CCSD(T)= -0.30015099127D+03

 The electronic state is 1-A'.
 Alpha  occ. eigenvalues --  -20.72925 -20.72866 -20.72809 -20.72749  -1.69855
 Alpha  occ. eigenvalues --   -1.69802  -1.08546  -1.08482  -0.78631  -0.78580
 Alpha  occ. eigenvalues --   -0.75176  -0.75091  -0.67384  -0.67330  -0.44801
 Alpha  occ. eigenvalues --   -0.44746
 Alpha virt. eigenvalues --    0.04973   0.05033   0.42747   0.43511   0.68113
 Alpha virt. eigenvalues --    0.70303   0.70609   0.70742   0.72562   0.74503
 Alpha virt. eigenvalues --    0.79749   0.80278   0.82280   0.82743   0.84747

 Mulliken charges:
               1
     1  O   -0.000314
     2  O    0.000430
     3  O    0.000843
     4  O   -0.000959
 Sum of Mulliken charges =  -0.00000

 Dipole moment (field-independent basis, Debye):
    X=              0.0016    Y=             -0.0099    Z=              0.0000  Tot=              0.0100
 Quadrupole moment (field-independent basis, Debye-Ang):
   XX=            -19.5540   YY=            -21.2216   ZZ=            -19.7594
   XY=             -0.0079   XZ=              0.0000   YZ=              0.0000

 DQ=-300.1135164\CCSD=-300.1101197\CCSD(T)=-300.1509913\RMSD=4.327e-09\
 Normal termination of Gaussian 16 at Fri Feb  9 20:47:26 2024.
