 Gaussian 16, Revision A.03,
 Gaussian 16:  ES64L-G16RevA.03 25-Dec-2016

 ------------------
 #p CCSD(T)/cc-pVTZ
 ------------------

 --------
 O2_O2_60
 --------
 Symbolic Z-matrix:
 Charge =  0 Multiplicity = 1

                         Standard orientation:
 ---------------------------------------------------------------------
 Center     Atomic      Atomic             Coordinates (Angstroms)
 Number     Number       Type             X           Y           Z
 ---------------------------------------------------------------------
      1          8           0        0.000000    0.000000    2.060000
      2          8           0        0.000000    0.000000    0.900000
      3          8           0        0.000000    0.000000   -0.900000
      4          8           0        0.000000    0.000000   -2.060000
 ---------------------------------------------------------------------

 SCF Done:  E(RHF) =  -298.931195640     A.U. after   10 cycles
 E2 =    -0.1446774642D+01 EUMP2 =    -0.30037797028196D+03
 CCSD(T)
 CCSD(T)= -0.30017165496D+03

 The electronic state is 1-SGG.
 Alpha  occ. eigenvalues --  -20.81274 -20.81265 -20.73345 -20.73345  -1.73692
 Alpha  occ. eigenvalues --   -1.72274  -1.18682  -1.05874  -0.83273  -0.77240
 Alpha  occ. eigenvalues --   -0.77240  -0.73154  -0.73154  -0.68996  -0.33497
 Alpha  occ. eigenvalues --   -0.33497
 Alpha virt. eigenvalues --   -0.08276  -0.08276   0.45748   0.49055   0.66114
 Alpha virt. eigenvalues --    0.66114   0.71978   0.72600   0.72600   0.76113
 Alpha virt. eigenvalues --    0.80316   0.80316   0.84270   0.84790   0.95453

 Mulliken charges:
               1
     1  O   -0.105812
     2  O    0.105812
     3  O    0.105812
     4  O   -0.105812
 Sum of Mulliken charges =  -0.00000

 Dipole moment (field-independent basis, Debye):
    X=             -0.0000    Y=              0.0000    Z=              0.0000  Tot=              0.0000
 Quadrupole moment (field-independent basis, Debye-Ang):
   XX=            -20.2026   YY=            -20.2026   ZZ=            -22.9303
   XY=              0.0000   XZ=              0.0000   YZ=              0.0000

 DQ=-300.0492075\CCSD=-300.0426557\CCSD(T)=-300.171655\RMSD=5.158e-09\P
 Normal termination of Gaussian 16 at Fri Feb  9 18:34:20 2024.
