 Gaussian 16, Revision A.03,
 Gaussian 16:  ES64L-G16RevA.03 25-Dec-2016

 ------------------
 #p CCSD(T)/cc-pVTZ
 ------------------

 ---------
 O2_O2_164
 ---------
 Symbolic Z-matrix:
 Charge =  0 Multiplicity = 1

                         Standard orientation:
 ---------------------------------------------------------------------
 Center     Atomic      Atomic             Coordinates (Angstroms)
 Number     Number       Type             X           Y           Z
 ---------------------------------------------------------------------
      1          8           0       -0.870000   -1.870000    0.000000
      2          8           0        0.290000   -1.870000    0.000000
      3          8           0        0.290000    1.290000    0.000000
      4          8           0        0.290000    2.450000    0.000000
 ---------------------------------------------------------------------

 SCF Done:  E(RHF) =  -299.188914854     A.U. after   19 cycles
 E2 =    -0.9196737288D+00 EUMP2 =    -0.30010858858241D+03
 CCSD(T)
 CCSD(T)= -0.30015154028D+03

 The electronic state is 1-A'.
 Alpha  occ. eigenvalues --  -20.72925 -20.72809 -20.72774 -20.72654  -1.69851
 Alpha  occ. eigenvalues --   -1.69714  -1.08575  -1.08364  -0.78700  -0.78496
 Alpha  occ. eigenvalues --   -0.75284  -0.74813  -0.67374  -0.67244  -0.44797
 Alpha  occ. eigenvalues --   -0.44658
 Alpha virt. eigenvalues --    0.04979   0.05113   0.41510   0.43880   0.63925
 Alpha virt. eigenvalues --    0.68769   0.69558   0.71838   0.72712   0.76999
 Alpha virt. eigenvalues --    0.78925   0.80530   0.81807   0.82522   0.85302

 Mulliken charges:
               1
     1  O   -0.000737
     2  O    0.001138
     3  O    0.000784
     4  O   -0.001184
 Sum of Mulliken charges =  -0.00000

 Dipole moment (field-independent basis, Debye):
    X=              0.0070    Y=             -0.0223    Z=              0.0000  Tot=              0.0234
 Quadrupole moment (field-independent basis, Debye-Ang):
   XX=            -19.5598   YY=            -21.2751   ZZ=            -19.7609
   XY=             -0.0185   XZ=              0.0000   YZ=              0.0000

 4SDQ=-300.114005\CCSD=-300.1105935\CCSD(T)=-300.1515403\RMSD=8.416e-09
 Normal termination of Gaussian 16 at Fri Feb  9 19:55:19 2024.
