 Gaussian 16, Revision A.03,
 Gaussian 16:  ES64L-G16RevA.03 25-Dec-2016

 ------------------
 #p CCSD(T)/cc-pVTZ
 ------------------

 --------
 O2_O2_17
 --------
 Symbolic Z-matrix:
 Charge =  0 Multiplicity = 1

                         Standard orientation:
 ---------------------------------------------------------------------
 Center     Atomic      Atomic             Coordinates (Angstroms)
 Number     Number       Type             X           Y           Z
 ---------------------------------------------------------------------
      1          8           0       -0.870000   -0.890000    0.000000
      2          8           0        0.290000   -0.890000    0.000000
      3          8           0        0.290000    0.310000    0.000000
      4          8           0        0.290000    1.470000    0.000000
 ---------------------------------------------------------------------

 SCF Done:  E(RHF) =  -298.807070489     A.U. after   17 cycles
 E2 =    -0.9794181279D+00 EUMP2 =    -0.29978648861678D+03
 CCSD(T)
 CCSD(T)= -0.29982716342D+03

 The electronic state is 1-A'.
 Alpha  occ. eigenvalues --  -20.90433 -20.81848 -20.73685 -20.53604  -1.92325
 Alpha  occ. eigenvalues --   -1.69172  -1.33796  -1.07527  -0.91599  -0.90208
 Alpha  occ. eigenvalues --   -0.83943  -0.73547  -0.68074  -0.52502  -0.41884
 Alpha  occ. eigenvalues --   -0.38298
 Alpha virt. eigenvalues --   -0.01088   0.16001   0.41428   0.47018   0.59638
 Alpha virt. eigenvalues --    0.63878   0.66865   0.70754   0.74165   0.75031
 Alpha virt. eigenvalues --    0.82306   0.84346   0.87060   0.88163   0.90818

 Mulliken charges:
               1
     1  O   -0.476271
     2  O    0.289679
     3  O    0.319406
     4  O   -0.132815
 Sum of Mulliken charges =  -0.00000

 Dipole moment (field-independent basis, Debye):
    X=              2.6311    Y=              0.5028    Z=              0.0000  Tot=              2.6787
 Quadrupole moment (field-independent basis, Debye-Ang):
   XX=            -22.3750   YY=            -22.3878   ZZ=            -19.3091
   XY=             -2.6857   XZ=              0.0000   YZ=              0.0000

 DQ=-299.7704456\CCSD=-299.7683473\CCSD(T)=-299.8271634\RMSD=4.097e-09\
 Normal termination of Gaussian 16 at Fri Feb  9 17:56:13 2024.
