 Gaussian 16, Revision A.03,
 Gaussian 16:  ES64L-G16RevA.03 25-Dec-2016

 ------------------
 #p CCSD(T)/cc-pVTZ
 ------------------

 ---------
 O2_O2_300
 ---------
 Symbolic Z-matrix:
 Charge =  0 Multiplicity = 1

                         Standard orientation:
 ---------------------------------------------------------------------
 Center     Atomic      Atomic             Coordinates (Angstroms)
 Number     Number       Type             X           Y           Z
 ---------------------------------------------------------------------
      1          8           0        0.000000    0.000000    3.660000
      2          8           0        0.000000    0.000000    2.500000
      3          8           0        0.000000    0.000000   -2.500000
      4          8           0        0.000000    0.000000   -3.660000
 ---------------------------------------------------------------------

 SCF Done:  E(RHF) =  -298.776804090     A.U. after   10 cycles
 E2 =    -0.2959718377D+01 EUMP2 =    -0.30173652246696D+03
 CCSD(T)
 CCSD(T)= -0.30031657145D+03

 The electronic state is 1-SGG.
 Alpha  occ. eigenvalues --  -20.76576 -20.76575 -20.75719 -20.75719  -1.71770
 Alpha  occ. eigenvalues --   -1.71766  -1.10091  -1.10025  -0.76798  -0.76780
 Alpha  occ. eigenvalues --   -0.74319  -0.74319  -0.74149  -0.74149  -0.24988
 Alpha  occ. eigenvalues --   -0.24988
 Alpha virt. eigenvalues --   -0.16212  -0.16212   0.42156   0.43212   0.69828
 Alpha virt. eigenvalues --    0.69828   0.69850   0.69850   0.71750   0.72393
 Alpha virt. eigenvalues --    0.78105   0.78728   0.82745   0.82745   0.82803

 Mulliken charges:
               1
     1  O   -0.010682
     2  O    0.010682
     3  O    0.010682
     4  O   -0.010682
 Sum of Mulliken charges =  -0.00000

 Dipole moment (field-independent basis, Debye):
    X=             -0.0000    Y=             -0.0000    Z=             -0.0000  Tot=              0.0000
 Quadrupole moment (field-independent basis, Debye-Ang):
   XX=            -20.0729   YY=            -20.0729   ZZ=            -21.9444
   XY=              0.0000   XZ=              0.0000   YZ=              0.0000

 DQ=-320.6077585\CCSD=-300.0239394\CCSD(T)=-300.3165714\RMSD=1.708e-09\
 Normal termination of Gaussian 16 at Fri Feb  9 21:36:44 2024.
