 Gaussian 16, Revision A.03,
 Gaussian 16:  ES64L-G16RevA.03 25-Dec-2016

 ------------------
 #p CCSD(T)/cc-pVTZ
 ------------------

 ---------
 O2_O2_244
 ---------
 Symbolic Z-matrix:
 Charge =  0 Multiplicity = 1

                         Standard orientation:
 ---------------------------------------------------------------------
 Center     Atomic      Atomic             Coordinates (Angstroms)
 Number     Number       Type             X           Y           Z
 ---------------------------------------------------------------------
      1          8           0        0.615183   -3.025183    0.000000
      2          8           0       -0.205061   -2.204939   -0.000000
      3          8           0       -0.205061    2.035061   -0.000000
      4          8           0       -0.205061    3.195061   -0.000000
 ---------------------------------------------------------------------

 SCF Done:  E(RHF) =  -299.188906384     A.U. after   17 cycles
 E2 =    -0.9190352201D+00 EUMP2 =    -0.30010794160447D+03
 CCSD(T)
 CCSD(T)= -0.30015093584D+03

 The electronic state is 1-A'.
 Alpha  occ. eigenvalues --  -20.72930 -20.72888 -20.72814 -20.72772  -1.69862
 Alpha  occ. eigenvalues --   -1.69825  -1.08550  -1.08504  -0.78638  -0.78602
 Alpha  occ. eigenvalues --   -0.75184  -0.75109  -0.67390  -0.67353  -0.44805
 Alpha  occ. eigenvalues --   -0.44768
 Alpha virt. eigenvalues --    0.04970   0.05009   0.41348   0.45010   0.69730
 Alpha virt. eigenvalues --    0.70401   0.70599   0.70625   0.71408   0.73939
 Alpha virt. eigenvalues --    0.78930   0.80647   0.82229   0.83680   0.84771

 Mulliken charges:
               1
     1  O   -0.000309
     2  O    0.000411
     3  O    0.000598
     4  O   -0.000700
 Sum of Mulliken charges =  -0.00000

 Dipole moment (field-independent basis, Debye):
    X=             -0.0008    Y=             -0.0067    Z=             -0.0000  Tot=              0.0068
 Quadrupole moment (field-independent basis, Debye-Ang):
   XX=            -19.6566   YY=            -21.1201   ZZ=            -19.7593
   XY=             -0.0967   XZ=             -0.0000   YZ=              0.0000

 P4DQ=-300.1007817\MP4SDQ=-300.1134695\CCSD=-300.1100692\CCSD(T)=-300.1
 Normal termination of Gaussian 16 at Fri Feb  9 20:55:23 2024.
