 Gaussian 16, Revision A.03,
 Gaussian 16:  ES64L-G16RevA.03 25-Dec-2016

 ------------------
 #p CCSD(T)/cc-pVTZ
 ------------------

 --------
 O2_O2_80
 --------
 Symbolic Z-matrix:
 Charge =  0 Multiplicity = 1

                         Standard orientation:
 ---------------------------------------------------------------------
 Center     Atomic      Atomic             Coordinates (Angstroms)
 Number     Number       Type             X           Y           Z
 ---------------------------------------------------------------------
      1          8           0       -0.870000   -1.310000    0.000000
      2          8           0        0.290000   -1.310000    0.000000
      3          8           0        0.290000    0.730000    0.000000
      4          8           0        0.290000    1.890000    0.000000
 ---------------------------------------------------------------------

 SCF Done:  E(RHF) =  -299.159333208     A.U. after   28 cycles
 E2 =    -0.9306666003D+00 EUMP2 =    -0.30008999980783D+03
 CCSD(T)
 CCSD(T)= -0.30013093499D+03

 The electronic state is 1-A'.
 Alpha  occ. eigenvalues --  -20.73874 -20.73420 -20.72122 -20.71335  -1.71142
 Alpha  occ. eigenvalues --   -1.69030  -1.11320  -1.07196  -0.79819  -0.78978
 Alpha  occ. eigenvalues --   -0.78005  -0.73933  -0.68305  -0.63700  -0.45766
 Alpha  occ. eigenvalues --   -0.43986
 Alpha virt. eigenvalues --    0.03912   0.05865   0.43439   0.47314   0.65982
 Alpha virt. eigenvalues --    0.68894   0.70762   0.72326   0.74053   0.74864
 Alpha virt. eigenvalues --    0.78230   0.80628   0.82121   0.87108   0.89012

 Mulliken charges:
               1
     1  O   -0.010638
     2  O   -0.002268
     3  O    0.017049
     4  O   -0.004143
 Sum of Mulliken charges =  -0.00000

 Dipole moment (field-independent basis, Debye):
    X=              0.1115    Y=              0.2898    Z=              0.0000  Tot=              0.3105
 Quadrupole moment (field-independent basis, Debye-Ang):
   XX=            -21.2300   YY=            -19.7767   ZZ=            -19.7392
   XY=             -0.0904   XZ=              0.0000   YZ=              0.0000

 DQ=-300.0923711\CCSD=-300.088667\CCSD(T)=-300.130935\RMSD=8.075e-09\PG
 Normal termination of Gaussian 16 at Fri Feb  9 18:50:12 2024.
