 Gaussian 16, Revision A.03,
 Gaussian 16:  ES64L-G16RevA.03 25-Dec-2016

 ------------------
 #p CCSD(T)/cc-pVTZ
 ------------------

 ---------
 O2_O2_297
 ---------
 Symbolic Z-matrix:
 Charge =  0 Multiplicity = 1

                         Standard orientation:
 ---------------------------------------------------------------------
 Center     Atomic      Atomic             Coordinates (Angstroms)
 Number     Number       Type             X           Y           Z
 ---------------------------------------------------------------------
      1          8           0        0.000000    0.000000    3.640000
      2          8           0        0.000000    0.000000    2.480000
      3          8           0        0.000000    0.000000   -2.480000
      4          8           0        0.000000    0.000000   -3.640000
 ---------------------------------------------------------------------

 SCF Done:  E(RHF) =  -298.777412719     A.U. after   10 cycles
 E2 =    -0.2942327735D+01 EUMP2 =    -0.30171974045352D+03
 CCSD(T)
 CCSD(T)= -0.30031603629D+03

 The electronic state is 1-SGG.
 Alpha  occ. eigenvalues --  -20.76582 -20.76582 -20.75713 -20.75713  -1.71771
 Alpha  occ. eigenvalues --   -1.71766  -1.10092  -1.10024  -0.76798  -0.76779
 Alpha  occ. eigenvalues --   -0.74321  -0.74321  -0.74148  -0.74148  -0.25018
 Alpha  occ. eigenvalues --   -0.25018
 Alpha virt. eigenvalues --   -0.16181  -0.16181   0.42095   0.43268   0.69827
 Alpha virt. eigenvalues --    0.69827   0.69851   0.69851   0.71707   0.72431
 Alpha virt. eigenvalues --    0.78076   0.78767   0.82741   0.82741   0.82807

 Mulliken charges:
               1
     1  O   -0.010827
     2  O    0.010827
     3  O    0.010827
     4  O   -0.010827
 Sum of Mulliken charges =  -0.00000

 Dipole moment (field-independent basis, Debye):
    X=             -0.0000    Y=             -0.0000    Z=              0.0000  Tot=              0.0000
 Quadrupole moment (field-independent basis, Debye-Ang):
   XX=            -20.0730   YY=            -20.0730   ZZ=            -21.9481
   XY=              0.0000   XZ=              0.0000   YZ=              0.0000

 P4SDQ=-319.9525024\CCSD=-300.023984\CCSD(T)=-300.3160363\RMSD=1.710e-0
 Normal termination of Gaussian 16 at Fri Feb  9 21:34:36 2024.
