 Gaussian 16, Revision A.03,
 Gaussian 16:  ES64L-G16RevA.03 25-Dec-2016

 ------------------
 #p CCSD(T)/cc-pVTZ
 ------------------

 ---------
 O2_O2_227
 ---------
 Symbolic Z-matrix:
 Charge =  0 Multiplicity = 1

                         Standard orientation:
 ---------------------------------------------------------------------
 Center     Atomic      Atomic             Coordinates (Angstroms)
 Number     Number       Type             X           Y           Z
 ---------------------------------------------------------------------
      1          8           0       -0.870000   -2.290000    0.000000
      2          8           0        0.290000   -2.290000    0.000000
      3          8           0        0.290000    1.710000    0.000000
      4          8           0        0.290000    2.870000    0.000000
 ---------------------------------------------------------------------

 SCF Done:  E(RHF) =  -299.188927778     A.U. after   17 cycles
 E2 =    -0.9190989227D+00 EUMP2 =    -0.30010802670104D+03
 CCSD(T)
 CCSD(T)= -0.30015102131D+03

 The electronic state is 1-A'.
 Alpha  occ. eigenvalues --  -20.72926 -20.72861 -20.72810 -20.72744  -1.69855
 Alpha  occ. eigenvalues --   -1.69797  -1.08546  -1.08477  -0.78631  -0.78575
 Alpha  occ. eigenvalues --   -0.75179  -0.75082  -0.67383  -0.67325  -0.44800
 Alpha  occ. eigenvalues --   -0.44741
 Alpha virt. eigenvalues --    0.04973   0.05037   0.42618   0.43525   0.67657
 Alpha virt. eigenvalues --    0.70255   0.70595   0.70788   0.72564   0.74834
 Alpha virt. eigenvalues --    0.79709   0.80311   0.82286   0.82861   0.84754

 Mulliken charges:
               1
     1  O   -0.000332
     2  O    0.000477
     3  O    0.000843
     4  O   -0.000988
 Sum of Mulliken charges =  -0.00000

 Dipole moment (field-independent basis, Debye):
    X=              0.0017    Y=             -0.0109    Z=              0.0000  Tot=              0.0110
 Quadrupole moment (field-independent basis, Debye-Ang):
   XX=            -19.5542   YY=            -21.2227   ZZ=            -19.7595
   XY=             -0.0083   XZ=              0.0000   YZ=              0.0000

 DQ=-300.1135444\CCSD=-300.1101469\CCSD(T)=-300.1510213\RMSD=5.320e-09\
 Normal termination of Gaussian 16 at Fri Feb  9 20:43:03 2024.
