 Gaussian 16, Revision A.03,
 Gaussian 16:  ES64L-G16RevA.03 25-Dec-2016

 ------------------
 #p CCSD(T)/cc-pVTZ
 ------------------

 ---------
 O2_O2_103
 ---------
 Symbolic Z-matrix:
 Charge =  0 Multiplicity = 1

                         Standard orientation:
 ---------------------------------------------------------------------
 Center     Atomic      Atomic             Coordinates (Angstroms)
 Number     Number       Type             X           Y           Z
 ---------------------------------------------------------------------
      1          8           0        0.615183   -2.085183   -0.000000
      2          8           0       -0.205061   -1.264939   -0.000000
      3          8           0       -0.205061    1.095061    0.000000
      4          8           0       -0.205061    2.255061    0.000000
 ---------------------------------------------------------------------

 SCF Done:  E(RHF) =  -299.183685030     A.U. after   18 cycles
 E2 =    -0.9224155259D+00 EUMP2 =    -0.30010610055628D+03
 CCSD(T)
 CCSD(T)= -0.30014835057D+03

 The electronic state is 1-A'.
 Alpha  occ. eigenvalues --  -20.73042 -20.72916 -20.72690 -20.72486  -1.70077
 Alpha  occ. eigenvalues --   -1.69618  -1.10032  -1.07359  -0.78820  -0.78432
 Alpha  occ. eigenvalues --   -0.77204  -0.73317  -0.67559  -0.66913  -0.44982
 Alpha  occ. eigenvalues --   -0.44583
 Alpha virt. eigenvalues --    0.04794   0.05390   0.43542   0.48559   0.66110
 Alpha virt. eigenvalues --    0.66786   0.70940   0.72644   0.73337   0.77402
 Alpha virt. eigenvalues --    0.79504   0.80285   0.81416   0.86869   0.89284

 Mulliken charges:
               1
     1  O   -0.004007
     2  O    0.002892
     3  O    0.010714
     4  O   -0.009599
 Sum of Mulliken charges =  -0.00000

 Dipole moment (field-independent basis, Debye):
    X=             -0.0326    Y=              0.0607    Z=              0.0000  Tot=              0.0689
 Quadrupole moment (field-independent basis, Debye-Ang):
   XX=            -20.4837   YY=            -20.4037   ZZ=            -19.7618
   XY=              0.7286   XZ=              0.0000   YZ=             -0.0000

 4DQ=-300.097934\MP4SDQ=-300.1107616\CCSD=-300.1071561\CCSD(T)=-300.148
 Normal termination of Gaussian 16 at Fri Feb  9 19:09:56 2024.
