 Gaussian 16, Revision A.03,
 Gaussian 16:  ES64L-G16RevA.03 25-Dec-2016

 ------------------
 #p CCSD(T)/cc-pVTZ
 ------------------

 ---------
 O2_O2_121
 ---------
 Symbolic Z-matrix:
 Charge =  0 Multiplicity = 1

                         Standard orientation:
 ---------------------------------------------------------------------
 Center     Atomic      Atomic             Coordinates (Angstroms)
 Number     Number       Type             X           Y           Z
 ---------------------------------------------------------------------
      1          8           0        0.615183   -2.205183    0.000000
      2          8           0       -0.205061   -1.384939    0.000000
      3          8           0       -0.205061    1.215062   -0.000000
      4          8           0       -0.205061    2.375060   -0.000000
 ---------------------------------------------------------------------

 SCF Done:  E(RHF) =  -299.187202649     A.U. after   24 cycles
 E2 =    -0.9209888203D+00 EUMP2 =    -0.30010819146922D+03
 CCSD(T)
 CCSD(T)= -0.30015077441D+03

 The electronic state is 1-A'.
 Alpha  occ. eigenvalues --  -20.73056 -20.72938 -20.72771 -20.72633  -1.70022
 Alpha  occ. eigenvalues --   -1.69709  -1.09356  -1.07875  -0.78786  -0.78499
 Alpha  occ. eigenvalues --   -0.76421  -0.74030  -0.67531  -0.67153  -0.44955
 Alpha  occ. eigenvalues --   -0.44661
 Alpha virt. eigenvalues --    0.04817   0.05198   0.42212   0.48125   0.66717
 Alpha virt. eigenvalues --    0.67378   0.68620   0.72250   0.72905   0.77148
 Alpha virt. eigenvalues --    0.79479   0.80002   0.80874   0.86554   0.87720

 Mulliken charges:
               1
     1  O   -0.001973
     2  O    0.001419
     3  O    0.003925
     4  O   -0.003371
 Sum of Mulliken charges =  -0.00000

 Dipole moment (field-independent basis, Debye):
    X=             -0.0202    Y=              0.0394    Z=             -0.0000  Tot=              0.0443
 Quadrupole moment (field-independent basis, Debye-Ang):
   XX=            -20.4757   YY=            -20.3251   ZZ=            -19.7611
   XY=              0.7156   XZ=              0.0000   YZ=              0.0000

 P4DQ=-300.1004762\MP4SDQ=-300.1132347\CCSD=-300.1097184\CCSD(T)=-300.1
 Normal termination of Gaussian 16 at Fri Feb  9 19:23:31 2024.
