 Gaussian 16, Revision A.03,
 Gaussian 16:  ES64L-G16RevA.03 25-Dec-2016

 ------------------
 #p CCSD(T)/cc-pVTZ
 ------------------

 ---------
 O2_O2_207
 ---------
 Symbolic Z-matrix:
 Charge =  0 Multiplicity = 1

                         Standard orientation:
 ---------------------------------------------------------------------
 Center     Atomic      Atomic             Coordinates (Angstroms)
 Number     Number       Type             X           Y           Z
 ---------------------------------------------------------------------
      1          8           0        0.000000    0.000000    3.040000
      2          8           0        0.000000    0.000000    1.880000
      3          8           0        0.000000    0.000000   -1.880000
      4          8           0        0.000000    0.000000   -3.040000
 ---------------------------------------------------------------------

 SCF Done:  E(RHF) =  -298.802493132     A.U. after   10 cycles
 E2 =    -0.2409878601D+01 EUMP2 =    -0.30121237173310D+03
 CCSD(T)
 CCSD(T)= -0.30029376918D+03

 The electronic state is 1-SGG.
 Alpha  occ. eigenvalues --  -20.76989 -20.76988 -20.75531 -20.75530  -1.71858
 Alpha  occ. eigenvalues --   -1.71841  -1.10230  -1.10008  -0.76972  -0.76727
 Alpha  occ. eigenvalues --   -0.74478  -0.74478  -0.74120  -0.74120  -0.26256
 Alpha  occ. eigenvalues --   -0.26256
 Alpha virt. eigenvalues --   -0.15022  -0.15022   0.37135   0.47107   0.66803
 Alpha virt. eigenvalues --    0.69467   0.69467   0.70111   0.70111   0.75173
 Alpha virt. eigenvalues --    0.77264   0.81810   0.81810   0.83780   0.83780

 Mulliken charges:
               1
     1  O   -0.016213
     2  O    0.016213
     3  O    0.016213
     4  O   -0.016213
 Sum of Mulliken charges =   0.00000

 Dipole moment (field-independent basis, Debye):
    X=             -0.0000    Y=              0.0000    Z=              0.0000  Tot=              0.0000
 Quadrupole moment (field-independent basis, Debye-Ang):
   XX=            -20.0880   YY=            -20.0880   ZZ=            -22.0312
   XY=              0.0000   XZ=              0.0000   YZ=              0.0000

 P4SDQ=-305.9631821\CCSD=-300.0263415\CCSD(T)=-300.2937692\RMSD=1.866e-
 Normal termination of Gaussian 16 at Fri Feb  9 20:28:16 2024.
