 Gaussian 16, Revision A.03,
 Gaussian 16:  ES64L-G16RevA.03 25-Dec-2016

 ------------------
 #p CCSD(T)/cc-pVTZ
 ------------------

 -------
 O2_O2_6
 -------
 Symbolic Z-matrix:
 Charge =  0 Multiplicity = 1

                         Standard orientation:
 ---------------------------------------------------------------------
 Center     Atomic      Atomic             Coordinates (Angstroms)
 Number     Number       Type             X           Y           Z
 ---------------------------------------------------------------------
      1          8           0        0.000000    0.000000    1.700000
      2          8           0        0.000000    0.000000    0.540000
      3          8           0        0.000000    0.000000   -0.540000
      4          8           0        0.000000    0.000000   -1.700000
 ---------------------------------------------------------------------

 SCF Done:  E(RHF) =  -298.696516543     A.U. after   11 cycles
 E2 =    -0.9406553044D+00 EUMP2 =    -0.29963717184772D+03
 CCSD(T)
 CCSD(T)= -0.29967433828D+03

 Unable to determine electronic state:  an orbital has unidentified symmetry.
 Alpha  occ. eigenvalues --  -20.84662 -20.84527 -20.64807 -20.64806  -1.94047
 Alpha  occ. eigenvalues --   -1.67508  -1.50466  -1.00558  -0.94888  -0.92325
 Alpha  occ. eigenvalues --   -0.83443  -0.74693  -0.67324  -0.52543  -0.42909
 Alpha  occ. eigenvalues --   -0.35563
 Alpha virt. eigenvalues --    0.06620   0.16650   0.44880   0.52325   0.56837
 Alpha virt. eigenvalues --    0.62202   0.62294   0.67265   0.75317   0.75522
 Alpha virt. eigenvalues --    0.84772   0.85174   0.85345   0.99112   1.00667

 Mulliken charges:
               1
     1  O   -0.282958
     2  O    0.282958
     3  O    0.282958
     4  O   -0.282958
 Sum of Mulliken charges =  -0.00000

 Dipole moment (field-independent basis, Debye):
    X=             -0.0000    Y=              0.0000    Z=             -0.0000  Tot=              0.0000
 Quadrupole moment (field-independent basis, Debye-Ang):
   XX=            -20.1850   YY=            -19.0400   ZZ=            -28.1687
   XY=              0.0000   XZ=              0.0000   YZ=              0.0000

 2933\CCSD=-299.6275803\CCSD(T)=-299.6743383\RMSD=5.118e-09\PG=D*H [C*(
 Normal termination of Gaussian 16 at Fri Feb  9 17:47:17 2024.
