 Gaussian 16, Revision A.03,
 Gaussian 16:  ES64L-G16RevA.03 25-Dec-2016

 ------------------
 #p CCSD(T)/cc-pVTZ
 ------------------

 ---------
 O2_O2_292
 ---------
 Symbolic Z-matrix:
 Charge =  0 Multiplicity = 1

                         Standard orientation:
 ---------------------------------------------------------------------
 Center     Atomic      Atomic             Coordinates (Angstroms)
 Number     Number       Type             X           Y           Z
 ---------------------------------------------------------------------
      1          8           0        0.615183   -3.345183    0.000000
      2          8           0       -0.205061   -2.524939   -0.000000
      3          8           0       -0.205061    2.355061   -0.000000
      4          8           0       -0.205061    3.515061   -0.000000
 ---------------------------------------------------------------------

 SCF Done:  E(RHF) =  -299.188870383     A.U. after   17 cycles
 E2 =    -0.9189575694D+00 EUMP2 =    -0.30010782795244D+03
 CCSD(T)
 CCSD(T)= -0.30015084062D+03

 The electronic state is 1-A'.
 Alpha  occ. eigenvalues --  -20.72932 -20.72912 -20.72816 -20.72796  -1.69866
 Alpha  occ. eigenvalues --   -1.69848  -1.08553  -1.08532  -0.78643  -0.78624
 Alpha  occ. eigenvalues --   -0.75175  -0.75150  -0.67394  -0.67376  -0.44811
 Alpha  occ. eigenvalues --   -0.44792
 Alpha virt. eigenvalues --    0.04965   0.04984   0.42820   0.43789   0.70391
 Alpha virt. eigenvalues --    0.70428   0.70577   0.70592   0.72270   0.72879
 Alpha virt. eigenvalues --    0.79671   0.80217   0.82236   0.82296   0.84728

 Mulliken charges:
               1
     1  O   -0.000283
     2  O    0.000289
     3  O    0.000478
     4  O   -0.000484
 Sum of Mulliken charges =  -0.00000

 Dipole moment (field-independent basis, Debye):
    X=             -0.0007    Y=             -0.0026    Z=             -0.0000  Tot=              0.0028
 Quadrupole moment (field-independent basis, Debye-Ang):
   XX=            -19.6560   YY=            -21.1110   ZZ=            -19.7590
   XY=             -0.0985   XZ=             -0.0000   YZ=              0.0000

 DQ=-300.1006927\MP4SDQ=-300.1133771\CCSD=-300.1099815\CCSD(T)=-300.150
 Normal termination of Gaussian 16 at Fri Feb  9 21:31:07 2024.
