 Gaussian 16, Revision A.03,
 Gaussian 16:  ES64L-G16RevA.03 25-Dec-2016

 ------------------
 #p CCSD(T)/cc-pVTZ
 ------------------

 --------
 O2_O2_87
 --------
 Symbolic Z-matrix:
 Charge =  0 Multiplicity = 1

                         Standard orientation:
 ---------------------------------------------------------------------
 Center     Atomic      Atomic             Coordinates (Angstroms)
 Number     Number       Type             X           Y           Z
 ---------------------------------------------------------------------
      1          8           0        0.000000    0.000000    2.240000
      2          8           0        0.000000    0.000000    1.080000
      3          8           0        0.000000    0.000000   -1.080000
      4          8           0        0.000000    0.000000   -2.240000
 ---------------------------------------------------------------------

 SCF Done:  E(RHF) =  -298.902894975     A.U. after   10 cycles
 E2 =    -0.1622765555D+01 EUMP2 =    -0.30052566052982D+03
 CCSD(T)
 CCSD(T)= -0.30020908523D+03

 The electronic state is 1-SGG.
 Alpha  occ. eigenvalues --  -20.80097 -20.80092 -20.74680 -20.74679  -1.72985
 Alpha  occ. eigenvalues --   -1.72486  -1.13750  -1.08358  -0.80685  -0.76013
 Alpha  occ. eigenvalues --   -0.76013  -0.73907  -0.73907  -0.73729  -0.30995
 Alpha  occ. eigenvalues --   -0.30995
 Alpha virt. eigenvalues --   -0.10948  -0.10948   0.44262   0.48953   0.65641
 Alpha virt. eigenvalues --    0.65641   0.71821   0.71949   0.71949   0.76321
 Alpha virt. eigenvalues --    0.78643   0.78643   0.84300   0.85454   0.87366

 Mulliken charges:
               1
     1  O   -0.069246
     2  O    0.069246
     3  O    0.069246
     4  O   -0.069246
 Sum of Mulliken charges =  -0.00000

 Dipole moment (field-independent basis, Debye):
    X=             -0.0000    Y=             -0.0000    Z=              0.0000  Tot=              0.0000
 Quadrupole moment (field-independent basis, Debye-Ang):
   XX=            -20.2293   YY=            -20.2293   ZZ=            -22.1208
   XY=              0.0000   XZ=              0.0000   YZ=              0.0000

 SDQ=-300.1640595\CCSD=-300.0456491\CCSD(T)=-300.2090852\RMSD=3.102e-09
 Normal termination of Gaussian 16 at Fri Feb  9 18:55:40 2024.
