 Gaussian 16, Revision A.03,
 Gaussian 16:  ES64L-G16RevA.03 25-Dec-2016

 ------------------
 #p CCSD(T)/cc-pVTZ
 ------------------

 --------
 O2_O2_90
 --------
 Symbolic Z-matrix:
 Charge =  0 Multiplicity = 1

                         Standard orientation:
 ---------------------------------------------------------------------
 Center     Atomic      Atomic             Coordinates (Angstroms)
 Number     Number       Type             X           Y           Z
 ---------------------------------------------------------------------
      1          8           0        0.000000    0.000000    2.260000
      2          8           0        0.000000    0.000000    1.100000
      3          8           0        0.000000    0.000000   -1.100000
      4          8           0        0.000000    0.000000   -2.260000
 ---------------------------------------------------------------------

 SCF Done:  E(RHF) =  -298.898798038     A.U. after   10 cycles
 E2 =    -0.1643005800D+01 EUMP2 =    -0.30054180383821D+03
 CCSD(T)
 CCSD(T)= -0.30021233884D+03

 The electronic state is 1-SGG.
 Alpha  occ. eigenvalues --  -20.79965 -20.79960 -20.74765 -20.74764  -1.72929
 Alpha  occ. eigenvalues --   -1.72482  -1.13438  -1.08531  -0.80443  -0.75924
 Alpha  occ. eigenvalues --   -0.75924  -0.74029  -0.73950  -0.73950  -0.30773
 Alpha  occ. eigenvalues --   -0.30773
 Alpha virt. eigenvalues --   -0.11165  -0.11165   0.44051   0.48957   0.65648
 Alpha virt. eigenvalues --    0.65648   0.71570   0.71891   0.71891   0.76277
 Alpha virt. eigenvalues --    0.78552   0.78552   0.84392   0.85182   0.86913

 Mulliken charges:
               1
     1  O   -0.065944
     2  O    0.065944
     3  O    0.065944
     4  O   -0.065944
 Sum of Mulliken charges =  -0.00000

 Dipole moment (field-independent basis, Debye):
    X=             -0.0000    Y=              0.0000    Z=              0.0000  Tot=              0.0000
 Quadrupole moment (field-independent basis, Debye-Ang):
   XX=            -20.2267   YY=            -20.2267   ZZ=            -22.0758
   XY=              0.0000   XZ=              0.0000   YZ=              0.0000

 DQ=-300.189866\CCSD=-300.0448544\CCSD(T)=-300.2123388\RMSD=2.989e-09\P
 Normal termination of Gaussian 16 at Fri Feb  9 18:58:10 2024.
