 Gaussian 16, Revision A.03,
 Gaussian 16:  ES64L-G16RevA.03 25-Dec-2016

 ------------------
 #p CCSD(T)/cc-pVTZ
 ------------------

 ---------
 O2_O2_105
 ---------
 Symbolic Z-matrix:
 Charge =  0 Multiplicity = 1

                         Standard orientation:
 ---------------------------------------------------------------------
 Center     Atomic      Atomic             Coordinates (Angstroms)
 Number     Number       Type             X           Y           Z
 ---------------------------------------------------------------------
      1          8           0        0.000000    0.000000    2.360000
      2          8           0        0.000000    0.000000    1.200000
      3          8           0        0.000000    0.000000   -1.200000
      4          8           0        0.000000    0.000000   -2.360000
 ---------------------------------------------------------------------

 SCF Done:  E(RHF) =  -298.878855258     A.U. after   10 cycles
 E2 =    -0.1744917183D+01 EUMP2 =    -0.30062377244120D+03
 CCSD(T)
 CCSD(T)= -0.30022783305D+03

 The electronic state is 1-SGG.
 Alpha  occ. eigenvalues --  -20.79331 -20.79327 -20.75074 -20.75074  -1.72679
 Alpha  occ. eigenvalues --   -1.72418  -1.12268  -1.09182  -0.79406  -0.75548
 Alpha  occ. eigenvalues --   -0.75548  -0.75141  -0.74094  -0.74094  -0.29788
 Alpha  occ. eigenvalues --   -0.29788
 Alpha virt. eigenvalues --   -0.12087  -0.12087   0.42830   0.48969   0.65912
 Alpha virt. eigenvalues --    0.65912   0.69804   0.71619   0.71619   0.76066
 Alpha virt. eigenvalues --    0.78341   0.78341   0.82583   0.84871   0.86598

 Mulliken charges:
               1
     1  O   -0.050932
     2  O    0.050932
     3  O    0.050932
     4  O   -0.050932
 Sum of Mulliken charges =  -0.00000

 Dipole moment (field-independent basis, Debye):
    X=             -0.0000    Y=              0.0000    Z=             -0.0000  Tot=              0.0000
 Quadrupole moment (field-independent basis, Debye-Ang):
   XX=            -20.2067   YY=            -20.2067   ZZ=            -21.9386
   XY=              0.0000   XZ=              0.0000   YZ=              0.0000

 4SDQ=-300.3784635\CCSD=-300.0404852\CCSD(T)=-300.2278331\RMSD=2.632e-0
 Normal termination of Gaussian 16 at Fri Feb  9 19:11:25 2024.
