 Gaussian 16, Revision A.03,
 Gaussian 16:  ES64L-G16RevA.03 25-Dec-2016

 ------------------
 #p CCSD(T)/cc-pVTZ
 ------------------

 ---------
 O2_O2_187
 ---------
 Symbolic Z-matrix:
 Charge =  0 Multiplicity = 1

                         Standard orientation:
 ---------------------------------------------------------------------
 Center     Atomic      Atomic             Coordinates (Angstroms)
 Number     Number       Type             X           Y           Z
 ---------------------------------------------------------------------
      1          8           0        0.615183   -2.645183    0.000000
      2          8           0       -0.205061   -1.824939   -0.000000
      3          8           0       -0.205061    1.655062   -0.000000
      4          8           0       -0.205061    2.815060   -0.000000
 ---------------------------------------------------------------------

 SCF Done:  E(RHF) =  -299.188917964     A.U. after   17 cycles
 E2 =    -0.9193564967D+00 EUMP2 =    -0.30010827446028D+03
 CCSD(T)
 CCSD(T)= -0.30015121503D+03

 The electronic state is 1-A'.
 Alpha  occ. eigenvalues --  -20.72934 -20.72828 -20.72817 -20.72710  -1.69862
 Alpha  occ. eigenvalues --   -1.69768  -1.08587  -1.08401  -0.78639  -0.78545
 Alpha  occ. eigenvalues --   -0.75292  -0.74923  -0.67388  -0.67296  -0.44797
 Alpha  occ. eigenvalues --   -0.44708
 Alpha virt. eigenvalues --    0.04973   0.05064   0.38868   0.46864   0.66059
 Alpha virt. eigenvalues --    0.69888   0.70074   0.71062   0.71590   0.75746
 Alpha virt. eigenvalues --    0.78715   0.80425   0.81570   0.85377   0.85710

 Mulliken charges:
               1
     1  O    0.000069
     2  O    0.000600
     3  O   -0.000085
     4  O   -0.000584
 Sum of Mulliken charges =  -0.00000

 Dipole moment (field-independent basis, Debye):
    X=             -0.0011    Y=             -0.0203    Z=              0.0000  Tot=              0.0203
 Quadrupole moment (field-independent basis, Debye-Ang):
   XX=            -19.6573   YY=            -21.1408   ZZ=            -19.7601
   XY=             -0.0915   XZ=             -0.0000   YZ=             -0.0000

 4DQ=-300.1010209\MP4SDQ=-300.1137297\CCSD=-300.1103116\CCSD(T)=-300.15
 Normal termination of Gaussian 16 at Fri Feb  9 20:13:27 2024.
