 Gaussian 16, Revision A.03,
 Gaussian 16:  ES64L-G16RevA.03 25-Dec-2016

 ------------------
 #p CCSD(T)/cc-pVTZ
 ------------------

 --------
 O2_O2_32
 --------
 Symbolic Z-matrix:
 Charge =  0 Multiplicity = 1

                         Standard orientation:
 ---------------------------------------------------------------------
 Center     Atomic      Atomic             Coordinates (Angstroms)
 Number     Number       Type             X           Y           Z
 ---------------------------------------------------------------------
      1          8           0       -0.870000   -0.990000    0.000000
      2          8           0        0.290000   -0.990000    0.000000
      3          8           0        0.290000    0.410000    0.000000
      4          8           0        0.290000    1.570000    0.000000
 ---------------------------------------------------------------------

 SCF Done:  E(RHF) =  -298.927061555     A.U. after   18 cycles
 E2 =    -0.9676656142D+00 EUMP2 =    -0.29989472716948D+03
 CCSD(T)
 CCSD(T)= -0.29996401390D+03

 The electronic state is 1-A'.
 Alpha  occ. eigenvalues --  -20.78187 -20.77196 -20.76325 -20.59785  -1.79173
 Alpha  occ. eigenvalues --   -1.68706  -1.24226  -1.04778  -0.87260  -0.82739
 Alpha  occ. eigenvalues --   -0.82023  -0.72449  -0.68834  -0.51367  -0.45633
 Alpha  occ. eigenvalues --   -0.40951
 Alpha virt. eigenvalues --    0.00844   0.09350   0.43695   0.47004   0.62305
 Alpha virt. eigenvalues --    0.66246   0.68942   0.71408   0.74615   0.75424
 Alpha virt. eigenvalues --    0.82168   0.83601   0.85736   0.88897   0.89209

 Mulliken charges:
               1
     1  O   -0.267160
     2  O    0.134560
     3  O    0.148399
     4  O   -0.015798
 Sum of Mulliken charges =  -0.00000

 Dipole moment (field-independent basis, Debye):
    X=              1.6060    Y=              1.2105    Z=              0.0000  Tot=              2.0111
 Quadrupole moment (field-independent basis, Debye-Ang):
   XX=            -21.8884   YY=            -20.9623   ZZ=            -19.5331
   XY=             -1.4003   XZ=              0.0000   YZ=              0.0000

 Q=-299.8902505\CCSD=-299.8968247\CCSD(T)=-299.9640139\RMSD=6.144e-09\P
 Normal termination of Gaussian 16 at Fri Feb  9 18:11:20 2024.
