 Gaussian 16, Revision A.03,
 Gaussian 16:  ES64L-G16RevA.03 25-Dec-2016

 ------------------
 #p CCSD(T)/cc-pVTZ
 ------------------

 --------
 O2_O2_36
 --------
 Symbolic Z-matrix:
 Charge =  0 Multiplicity = 1

                         Standard orientation:
 ---------------------------------------------------------------------
 Center     Atomic      Atomic             Coordinates (Angstroms)
 Number     Number       Type             X           Y           Z
 ---------------------------------------------------------------------
      1          8           0        0.000000    0.000000    1.900000
      2          8           0        0.000000    0.000000    0.740000
      3          8           0        0.000000    0.000000   -0.740000
      4          8           0        0.000000    0.000000   -1.900000
 ---------------------------------------------------------------------

 SCF Done:  E(RHF) =  -298.888007609     A.U. after   11 cycles
 E2 =    -0.1316031818D+01 EUMP2 =    -0.30020403942701D+03
 CCSD(T)
 CCSD(T)= -0.30007961791D+03

 The electronic state is 1-SGG.
 Alpha  occ. eigenvalues --  -20.82459 -20.82438 -20.70683 -20.70683  -1.75588
 Alpha  occ. eigenvalues --   -1.71443  -1.29376  -1.01850  -0.85433  -0.80095
 Alpha  occ. eigenvalues --   -0.80095  -0.71612  -0.71612  -0.58427  -0.36786
 Alpha  occ. eigenvalues --   -0.36786
 Alpha virt. eigenvalues --   -0.04308  -0.04308   0.46144   0.49828   0.66383
 Alpha virt. eigenvalues --    0.66383   0.67950   0.72684   0.73561   0.73561
 Alpha virt. eigenvalues --    0.82984   0.82984   0.83554   0.88710   0.99508

 Mulliken charges:
               1
     1  O   -0.158570
     2  O    0.158570
     3  O    0.158570
     4  O   -0.158570
 Sum of Mulliken charges =  -0.00000

 Dipole moment (field-independent basis, Debye):
    X=             -0.0000    Y=             -0.0000    Z=              0.0000  Tot=              0.0000
 Quadrupole moment (field-independent basis, Debye-Ang):
   XX=            -20.0315   YY=            -20.0315   ZZ=            -24.6307
   XY=              0.0000   XZ=              0.0000   YZ=              0.0000

 4SDQ=-299.9889787\CCSD=-299.9742366\CCSD(T)=-300.0796179\RMSD=2.047e-0
 Normal termination of Gaussian 16 at Fri Feb  9 18:14:25 2024.
