 Gaussian 16, Revision A.03,
 Gaussian 16:  ES64L-G16RevA.03 25-Dec-2016

 ------------------
 #p CCSD(T)/cc-pVTZ
 ------------------

 --------
 O2_O2_31
 --------
 Symbolic Z-matrix:
 Charge =  0 Multiplicity = 1

                         Standard orientation:
 ---------------------------------------------------------------------
 Center     Atomic      Atomic             Coordinates (Angstroms)
 Number     Number       Type             X           Y           Z
 ---------------------------------------------------------------------
      1          8           0        0.615183   -1.605183   -0.000000
      2          8           0       -0.205061   -0.784939   -0.000000
      3          8           0       -0.205061    0.615061    0.000000
      4          8           0       -0.205061    1.775061    0.000000
 ---------------------------------------------------------------------

 SCF Done:  E(RHF) =  -298.981002708     A.U. after   17 cycles
 E2 =    -0.9750680517D+00 EUMP2 =    -0.29995607075986D+03
 CCSD(T)
 CCSD(T)= -0.30001176866D+03

 The electronic state is 1-A'.
 Alpha  occ. eigenvalues --  -20.77840 -20.77345 -20.73707 -20.64945  -1.75977
 Alpha  occ. eigenvalues --   -1.68828  -1.30157  -1.00624  -0.84356  -0.83686
 Alpha  occ. eigenvalues --   -0.81078  -0.71235  -0.69438  -0.52398  -0.47424
 Alpha  occ. eigenvalues --   -0.42258
 Alpha virt. eigenvalues --    0.02366   0.09244   0.47070   0.51126   0.65396
 Alpha virt. eigenvalues --    0.66407   0.68511   0.72127   0.74694   0.75932
 Alpha virt. eigenvalues --    0.80569   0.80958   0.84653   0.86387   0.94953

 Mulliken charges:
               1
     1  O   -0.185114
     2  O    0.117447
     3  O    0.121059
     4  O   -0.053392
 Sum of Mulliken charges =  -0.00000

 Dipole moment (field-independent basis, Debye):
    X=             -0.5616    Y=              1.1167    Z=             -0.0000  Tot=              1.2499
 Quadrupole moment (field-independent basis, Debye-Ang):
   XX=            -21.0133   YY=            -22.9310   ZZ=            -19.5811
   XY=              1.4590   XZ=             -0.0000   YZ=             -0.0000

 4DQ=-299.9247358\MP4SDQ=-299.9489576\CCSD=-299.9486889\CCSD(T)=-300.01
 Normal termination of Gaussian 16 at Fri Feb  9 18:10:29 2024.
