 Gaussian 16, Revision A.03,
 Gaussian 16:  ES64L-G16RevA.03 25-Dec-2016

 ------------------
 #p CCSD(T)/cc-pVTZ
 ------------------

 --------
 O2_O2_91
 --------
 Symbolic Z-matrix:
 Charge =  0 Multiplicity = 1

                         Standard orientation:
 ---------------------------------------------------------------------
 Center     Atomic      Atomic             Coordinates (Angstroms)
 Number     Number       Type             X           Y           Z
 ---------------------------------------------------------------------
      1          8           0        0.615183   -2.005183    0.000000
      2          8           0       -0.205061   -1.184939    0.000000
      3          8           0       -0.205061    1.015061   -0.000000
      4          8           0       -0.205061    2.175061   -0.000000
 ---------------------------------------------------------------------

 SCF Done:  E(RHF) =  -299.178413244     A.U. after   19 cycles
 E2 =    -0.9240677186D+00 EUMP2 =    -0.30010248096215D+03
 CCSD(T)
 CCSD(T)= -0.30014434726D+03

 The electronic state is 1-A'.
 Alpha  occ. eigenvalues --  -20.73022 -20.72880 -20.72629 -20.72300  -1.70152
 Alpha  occ. eigenvalues --   -1.69521  -1.10806  -1.06833  -0.78865  -0.78373
 Alpha  occ. eigenvalues --   -0.77957  -0.72657  -0.67591  -0.66577  -0.45010
 Alpha  occ. eigenvalues --   -0.44503
 Alpha virt. eigenvalues --    0.04774   0.05583   0.44301   0.48835   0.65830
 Alpha virt. eigenvalues --    0.66640   0.72269   0.72912   0.73687   0.77563
 Alpha virt. eigenvalues --    0.79798   0.80329   0.81299   0.86831   0.92180

 Mulliken charges:
               1
     1  O   -0.006808
     2  O    0.004506
     3  O    0.016520
     4  O   -0.014218
 Sum of Mulliken charges =   0.00000

 Dipole moment (field-independent basis, Debye):
    X=             -0.0474    Y=              0.0843    Z=              0.0000  Tot=              0.0967
 Quadrupole moment (field-independent basis, Debye-Ang):
   XX=            -20.4934   YY=            -20.4977   ZZ=            -19.7602
   XY=              0.7476   XZ=              0.0000   YZ=             -0.0000

 DQ=-300.093765\MP4SDQ=-300.1066832\CCSD=-300.1029781\CCSD(T)=-300.1443
 Normal termination of Gaussian 16 at Fri Feb  9 18:59:02 2024.
