 Gaussian 16, Revision A.03,
 Gaussian 16:  ES64L-G16RevA.03 25-Dec-2016

 ------------------
 #p CCSD(T)/cc-pVTZ
 ------------------

 --------
 O2_O2_15
 --------
 Symbolic Z-matrix:
 Charge =  0 Multiplicity = 1

                         Standard orientation:
 ---------------------------------------------------------------------
 Center     Atomic      Atomic             Coordinates (Angstroms)
 Number     Number       Type             X           Y           Z
 ---------------------------------------------------------------------
      1          8           0        0.000000    0.000000    1.760000
      2          8           0        0.000000    0.000000    0.600000
      3          8           0        0.000000    0.000000   -0.600000
      4          8           0        0.000000    0.000000   -1.760000
 ---------------------------------------------------------------------

 SCF Done:  E(RHF) =  -298.656702892     A.U. after   12 cycles
 E2 =    -0.1264683809D+01 EUMP2 =    -0.29992138670109D+03
 CCSD(T)
 CCSD(T)= -0.29983295044D+03

 The electronic state is 1-SGG.
 Alpha  occ. eigenvalues --  -20.86102 -20.86030 -20.66215 -20.66215  -1.84476
 Alpha  occ. eigenvalues --   -1.70197  -1.46089  -0.97246  -0.88192  -0.88192
 Alpha  occ. eigenvalues --   -0.86238  -0.69332  -0.69332  -0.40398  -0.40398
 Alpha  occ. eigenvalues --   -0.38179
 Alpha virt. eigenvalues --    0.00754   0.00754   0.43855   0.51063   0.60010
 Alpha virt. eigenvalues --    0.64685   0.64685   0.67079   0.74848   0.74848
 Alpha virt. eigenvalues --    0.82836   0.84948   0.84948   1.00241   1.00241

 Mulliken charges:
               1
     1  O   -0.194343
     2  O    0.194343
     3  O    0.194343
     4  O   -0.194343
 Sum of Mulliken charges =  -0.00000

 Dipole moment (field-independent basis, Debye):
    X=             -0.0000    Y=              0.0000    Z=              0.0000  Tot=              0.0000
 Quadrupole moment (field-independent basis, Debye-Ang):
   XX=            -19.7007   YY=            -19.7007   ZZ=            -27.5913
   XY=              0.0000   XZ=              0.0000   YZ=             -0.0000

 SDQ=-299.7904973\CCSD=-299.7378695\CCSD(T)=-299.8329504\RMSD=3.745e-09
 Normal termination of Gaussian 16 at Fri Feb  9 17:54:18 2024.
