 Gaussian 16, Revision A.03,
 Gaussian 16:  ES64L-G16RevA.03 25-Dec-2016

 ------------------
 #p CCSD(T)/cc-pVTZ
 ------------------

 --------
 O2_O2_76
 --------
 Symbolic Z-matrix:
 Charge =  0 Multiplicity = 1

                         Standard orientation:
 ---------------------------------------------------------------------
 Center     Atomic      Atomic             Coordinates (Angstroms)
 Number     Number       Type             X           Y           Z
 ---------------------------------------------------------------------
      1          8           0        0.615183   -1.905183    0.000000
      2          8           0       -0.205061   -1.084939    0.000000
      3          8           0       -0.205061    0.915062    0.000000
      4          8           0       -0.205061    2.075060    0.000000
 ---------------------------------------------------------------------

 SCF Done:  E(RHF) =  -299.164866108     A.U. after   18 cycles
 E2 =    -0.9276352254D+00 EUMP2 =    -0.30009250133389D+03
 CCSD(T)
 CCSD(T)= -0.30013365431D+03

 The electronic state is 1-A'.
 Alpha  occ. eigenvalues --  -20.72983 -20.72824 -20.72593 -20.71870  -1.70347
 Alpha  occ. eigenvalues --   -1.69338  -1.12432  -1.05883  -0.79254  -0.78955
 Alpha  occ. eigenvalues --   -0.78294  -0.71661  -0.67674  -0.65678  -0.45078
 Alpha  occ. eigenvalues --   -0.44354
 Alpha virt. eigenvalues --    0.04725   0.05938   0.45189   0.49172   0.65733
 Alpha virt. eigenvalues --    0.66777   0.73224   0.73265   0.74094   0.77716
 Alpha virt. eigenvalues --    0.79625   0.80536   0.81355   0.86552   0.94979

 Mulliken charges:
               1
     1  O   -0.014356
     2  O    0.009015
     3  O    0.023572
     4  O   -0.018231
 Sum of Mulliken charges =  -0.00000

 Dipole moment (field-independent basis, Debye):
    X=             -0.0797    Y=              0.1359    Z=             -0.0000  Tot=              0.1576
 Quadrupole moment (field-independent basis, Debye-Ang):
   XX=            -20.5156   YY=            -20.6909   ZZ=            -19.7521
   XY=              0.7939   XZ=              0.0000   YZ=              0.0000

 4DQ=-300.082551\MP4SDQ=-300.095701\CCSD=-300.091814\CCSD(T)=-300.13365
 Normal termination of Gaussian 16 at Fri Feb  9 18:46:59 2024.
