 Gaussian 16, Revision A.03,
 Gaussian 16:  ES64L-G16RevA.03 25-Dec-2016

 ------------------
 #p CCSD(T)/cc-pVTZ
 ------------------

 ---------
 O2_O2_150
 ---------
 Symbolic Z-matrix:
 Charge =  0 Multiplicity = 1

                         Standard orientation:
 ---------------------------------------------------------------------
 Center     Atomic      Atomic             Coordinates (Angstroms)
 Number     Number       Type             X           Y           Z
 ---------------------------------------------------------------------
      1          8           0        0.000000    0.000000    2.660000
      2          8           0        0.000000    0.000000    1.500000
      3          8           0        0.000000    0.000000   -1.500000
      4          8           0        0.000000    0.000000   -2.660000
 ---------------------------------------------------------------------

 SCF Done:  E(RHF) =  -298.833618836     A.U. after   10 cycles
 E2 =    -0.2048088663D+01 EUMP2 =    -0.30088170749882D+03
 CCSD(T)
 CCSD(T)= -0.30026564308D+03

 The electronic state is 1-SGG.
 Alpha  occ. eigenvalues --  -20.77872 -20.77870 -20.75408 -20.75408  -1.72155
 Alpha  occ. eigenvalues --   -1.72092  -1.10746  -1.09907  -0.77667  -0.76441
 Alpha  occ. eigenvalues --   -0.74855  -0.74855  -0.74162  -0.74162  -0.27732
 Alpha  occ. eigenvalues --   -0.27732
 Alpha virt. eigenvalues --   -0.13814  -0.13814   0.38045   0.48806   0.65295
 Alpha virt. eigenvalues --    0.67926   0.67926   0.70844   0.70844   0.75924
 Alpha virt. eigenvalues --    0.78661   0.79484   0.79484   0.85999   0.86992

 Mulliken charges:
               1
     1  O   -0.025039
     2  O    0.025039
     3  O    0.025039
     4  O   -0.025039
 Sum of Mulliken charges =   0.00000

 Dipole moment (field-independent basis, Debye):
    X=             -0.0000    Y=             -0.0000    Z=              0.0000  Tot=              0.0000
 Quadrupole moment (field-independent basis, Debye-Ang):
   XX=            -20.1357   YY=            -20.1357   ZZ=            -21.9523
   XY=              0.0000   XZ=              0.0000   YZ=              0.0000

 SDQ=-301.7698398\CCSD=-300.0309731\CCSD(T)=-300.2656431\RMSD=2.209e-09
 Normal termination of Gaussian 16 at Fri Feb  9 19:44:56 2024.
