 Gaussian 16, Revision A.03,
 Gaussian 16:  ES64L-G16RevA.03 25-Dec-2016

 ------------------
 #p CCSD(T)/cc-pVTZ
 ------------------

 ---------
 O2_O2_145
 ---------
 Symbolic Z-matrix:
 Charge =  0 Multiplicity = 1

                         Standard orientation:
 ---------------------------------------------------------------------
 Center     Atomic      Atomic             Coordinates (Angstroms)
 Number     Number       Type             X           Y           Z
 ---------------------------------------------------------------------
      1          8           0        0.615183   -2.365183   -0.000000
      2          8           0       -0.205061   -1.544939   -0.000000
      3          8           0       -0.205061    1.375061    0.000000
      4          8           0       -0.205061    2.535061    0.000000
 ---------------------------------------------------------------------

 SCF Done:  E(RHF) =  -299.188133364     A.U. after   24 cycles
 E2 =    -0.9199426679D+00 EUMP2 =    -0.30010807603145D+03
 CCSD(T)
 CCSD(T)= -0.30015095497D+03

 The electronic state is 1-A'.
 Alpha  occ. eigenvalues --  -20.72859 -20.72743 -20.72731 -20.72613  -1.69814
 Alpha  occ. eigenvalues --   -1.69688  -1.08769  -1.08113  -0.78644  -0.78466
 Alpha  occ. eigenvalues --   -0.75620  -0.74417  -0.67337  -0.67221  -0.44739
 Alpha  occ. eigenvalues --   -0.44624
 Alpha virt. eigenvalues --    0.05018   0.05125   0.40399   0.47659   0.65966
 Alpha virt. eigenvalues --    0.68577   0.68639   0.71802   0.72574   0.76516
 Alpha virt. eigenvalues --    0.79894   0.79968   0.80192   0.86292   0.87500

 Mulliken charges:
               1
     1  O   -0.001125
     2  O    0.002084
     3  O    0.001615
     4  O   -0.002574
 Sum of Mulliken charges =  -0.00000

 Dipole moment (field-independent basis, Debye):
    X=             -0.0038    Y=             -0.0219    Z=              0.0000  Tot=              0.0222
 Quadrupole moment (field-independent basis, Debye-Ang):
   XX=            -19.6624   YY=            -21.2251   ZZ=            -19.7616
   XY=             -0.0785   XZ=              0.0000   YZ=              0.0000

 4DQ=-300.1006735\MP4SDQ=-300.1134184\CCSD=-300.1099712\CCSD(T)=-300.15
 Normal termination of Gaussian 16 at Fri Feb  9 19:41:15 2024.
