 Gaussian 16, Revision A.03,
 Gaussian 16:  ES64L-G16RevA.03 25-Dec-2016

 ------------------
 #p CCSD(T)/cc-pVTZ
 ------------------

 ---------
 O2_O2_148
 ---------
 Symbolic Z-matrix:
 Charge =  0 Multiplicity = 1

                         Standard orientation:
 ---------------------------------------------------------------------
 Center     Atomic      Atomic             Coordinates (Angstroms)
 Number     Number       Type             X           Y           Z
 ---------------------------------------------------------------------
      1          8           0        0.615183   -2.385183   -0.000000
      2          8           0       -0.205061   -1.564939    0.000000
      3          8           0       -0.205061    1.395061    0.000000
      4          8           0       -0.205061    2.555061    0.000000
 ---------------------------------------------------------------------

 SCF Done:  E(RHF) =  -299.188266383     A.U. after   23 cycles
 E2 =    -0.9198808290D+00 EUMP2 =    -0.30010814721169D+03
 CCSD(T)
 CCSD(T)= -0.30015103288D+03

 The electronic state is 1-A'.
 Alpha  occ. eigenvalues --  -20.72869 -20.72753 -20.72741 -20.72623  -1.69820
 Alpha  occ. eigenvalues --   -1.69696  -1.08744  -1.08147  -0.78642  -0.78473
 Alpha  occ. eigenvalues --   -0.75583  -0.74476  -0.67344  -0.67227  -0.44747
 Alpha  occ. eigenvalues --   -0.44632
 Alpha virt. eigenvalues --    0.05012   0.05121   0.40174   0.47602   0.65818
 Alpha virt. eigenvalues --    0.68703   0.68764   0.71740   0.72488   0.76470
 Alpha virt. eigenvalues --    0.79768   0.79975   0.80284   0.86341   0.87379

 Mulliken charges:
               1
     1  O   -0.000939
     2  O    0.001886
     3  O    0.001266
     4  O   -0.002212
 Sum of Mulliken charges =  -0.00000

 Dipole moment (field-independent basis, Debye):
    X=             -0.0035    Y=             -0.0225    Z=             -0.0000  Tot=              0.0227
 Quadrupole moment (field-independent basis, Debye-Ang):
   XX=            -19.6617   YY=            -21.2155   ZZ=            -19.7614
   XY=             -0.0800   XZ=              0.0000   YZ=             -0.0000

 DQ=-300.1007606\MP4SDQ=-300.1135019\CCSD=-300.1100577\CCSD(T)=-300.151
 Normal termination of Gaussian 16 at Fri Feb  9 19:43:31 2024.
