 Gaussian 16, Revision A.03,
 Gaussian 16:  ES64L-G16RevA.03 25-Dec-2016

 ------------------
 #p CCSD(T)/cc-pVTZ
 ------------------

 --------
 O2_O2_25
 --------
 Symbolic Z-matrix:
 Charge =  0 Multiplicity = 1

                         Standard orientation:
 ---------------------------------------------------------------------
 Center     Atomic      Atomic             Coordinates (Angstroms)
 Number     Number       Type             X           Y           Z
 ---------------------------------------------------------------------
      1          8           0        0.615183   -1.565183    0.000000
      2          8           0       -0.205061   -0.744939    0.000000
      3          8           0       -0.205061    0.575061   -0.000000
      4          8           0       -0.205061    1.735061   -0.000000
 ---------------------------------------------------------------------

 SCF Done:  E(RHF) =  -298.937576686     A.U. after   18 cycles
 E2 =    -0.9947805131D+00 EUMP2 =    -0.29993235719878D+03
 CCSD(T)
 CCSD(T)= -0.29998169147D+03

 The electronic state is 1-A'.
 Alpha  occ. eigenvalues --  -20.81951 -20.80523 -20.73702 -20.62591  -1.79378
 Alpha  occ. eigenvalues --   -1.69370  -1.35426  -0.99924  -0.86979  -0.84291
 Alpha  occ. eigenvalues --   -0.83977  -0.72445  -0.69775  -0.49773  -0.48303
 Alpha  occ. eigenvalues --   -0.41205
 Alpha virt. eigenvalues --    0.00998   0.10401   0.47034   0.51795   0.64806
 Alpha virt. eigenvalues --    0.65410   0.66643   0.70104   0.74842   0.76166
 Alpha virt. eigenvalues --    0.80296   0.81654   0.85039   0.86766   0.94102

 Mulliken charges:
               1
     1  O   -0.261641
     2  O    0.169752
     3  O    0.176853
     4  O   -0.084964
 Sum of Mulliken charges =  -0.00000

 Dipole moment (field-independent basis, Debye):
    X=             -0.7511    Y=              1.3649    Z=             -0.0000  Tot=              1.5579
 Quadrupole moment (field-independent basis, Debye-Ang):
   XX=            -21.2292   YY=            -23.9385   ZZ=            -19.5201
   XY=              1.6678   XZ=             -0.0000   YZ=              0.0000

 4DQ=-299.8869515\MP4SDQ=-299.9209784\CCSD=-299.9151299\CCSD(T)=-299.98
 Normal termination of Gaussian 16 at Fri Feb  9 18:05:02 2024.
