 Gaussian 16, Revision A.03,
 Gaussian 16:  ES64L-G16RevA.03 25-Dec-2016

 ------------------
 #p CCSD(T)/cc-pVTZ
 ------------------

 ---------
 O2_O2_115
 ---------
 Symbolic Z-matrix:
 Charge =  0 Multiplicity = 1

                         Standard orientation:
 ---------------------------------------------------------------------
 Center     Atomic      Atomic             Coordinates (Angstroms)
 Number     Number       Type             X           Y           Z
 ---------------------------------------------------------------------
      1          8           0        0.615183   -2.165183   -0.000000
      2          8           0       -0.205061   -1.344939   -0.000000
      3          8           0       -0.205061    1.175061    0.000000
      4          8           0       -0.205061    2.335061    0.000000
 ---------------------------------------------------------------------

 SCF Done:  E(RHF) =  -299.186403566     A.U. after   19 cycles
 E2 =    -0.9213674074D+00 EUMP2 =    -0.30010777097343D+03
 CCSD(T)
 CCSD(T)= -0.30015026683D+03

 The electronic state is 1-A'.
 Alpha  occ. eigenvalues --  -20.73053 -20.72934 -20.72747 -20.72596  -1.70036
 Alpha  occ. eigenvalues --   -1.69684  -1.09535  -1.07732  -0.78795  -0.78480
 Alpha  occ. eigenvalues --   -0.76642  -0.73826  -0.67539  -0.67095  -0.44963
 Alpha  occ. eigenvalues --   -0.44639
 Alpha virt. eigenvalues --    0.04810   0.05252   0.42685   0.48268   0.66519
 Alpha virt. eigenvalues --    0.67142   0.69346   0.72381   0.73043   0.77231
 Alpha virt. eigenvalues --    0.79438   0.80093   0.81145   0.86652   0.87978

 Mulliken charges:
               1
     1  O   -0.002477
     2  O    0.001824
     3  O    0.005830
     4  O   -0.005177
 Sum of Mulliken charges =  -0.00000

 Dipole moment (field-independent basis, Debye):
    X=             -0.0234    Y=              0.0452    Z=             -0.0000  Tot=              0.0509
 Quadrupole moment (field-independent basis, Debye-Ang):
   XX=            -20.4777   YY=            -20.3452   ZZ=            -19.7615
   XY=              0.7185   XZ=             -0.0000   YZ=              0.0000

 DQ=-300.0999391\MP4SDQ=-300.112715\CCSD=-300.1091749\CCSD(T)=-300.1502
 Normal termination of Gaussian 16 at Fri Feb  9 19:19:01 2024.
