 Gaussian 16, Revision A.03,
 Gaussian 16:  ES64L-G16RevA.03 25-Dec-2016

 ------------------
 #p CCSD(T)/cc-pVTZ
 ------------------

 --------
 O2_O2_71
 --------
 Symbolic Z-matrix:
 Charge =  0 Multiplicity = 1

                         Standard orientation:
 ---------------------------------------------------------------------
 Center     Atomic      Atomic             Coordinates (Angstroms)
 Number     Number       Type             X           Y           Z
 ---------------------------------------------------------------------
      1          8           0       -0.870000   -1.250000    0.000000
      2          8           0        0.290000   -1.250000    0.000000
      3          8           0        0.290000    0.670000    0.000000
      4          8           0        0.290000    1.830000    0.000000
 ---------------------------------------------------------------------

 SCF Done:  E(RHF) =  -299.142609144     A.U. after   25 cycles
 E2 =    -0.9347985413D+00 EUMP2 =    -0.30007740768517D+03
 CCSD(T)
 CCSD(T)= -0.30011796573D+03

 The electronic state is 1-A'.
 Alpha  occ. eigenvalues --  -20.74009 -20.73445 -20.72092 -20.70702  -1.71522
 Alpha  occ. eigenvalues --   -1.68842  -1.12332  -1.06788  -0.80437  -0.79586
 Alpha  occ. eigenvalues --   -0.77952  -0.73717  -0.68425  -0.62234  -0.45912
 Alpha  occ. eigenvalues --   -0.43778
 Alpha virt. eigenvalues --    0.03733   0.06128   0.43570   0.47545   0.66254
 Alpha virt. eigenvalues --    0.69045   0.69643   0.72111   0.74357   0.75586
 Alpha virt. eigenvalues --    0.79091   0.81257   0.82291   0.87363   0.89163

 Mulliken charges:
               1
     1  O   -0.021171
     2  O    0.001887
     3  O    0.023058
     4  O   -0.003775
 Sum of Mulliken charges =  -0.00000

 Dipole moment (field-independent basis, Debye):
    X=              0.1771    Y=              0.3619    Z=              0.0000  Tot=              0.4029
 Quadrupole moment (field-independent basis, Debye-Ang):
   XX=            -21.2539   YY=            -19.8865   ZZ=            -19.7254
   XY=             -0.1540   XZ=              0.0000   YZ=              0.0000

 SDQ=-300.0786455\CCSD=-300.0749298\CCSD(T)=-300.1179657\RMSD=2.111e-09
 Normal termination of Gaussian 16 at Fri Feb  9 18:43:16 2024.
