 Gaussian 16, Revision A.03,
 Gaussian 16:  ES64L-G16RevA.03 25-Dec-2016

 ------------------
 #p CCSD(T)/cc-pVTZ
 ------------------

 ---------
 O2_O2_205
 ---------
 Symbolic Z-matrix:
 Charge =  0 Multiplicity = 1

                         Standard orientation:
 ---------------------------------------------------------------------
 Center     Atomic      Atomic             Coordinates (Angstroms)
 Number     Number       Type             X           Y           Z
 ---------------------------------------------------------------------
      1          8           0        0.615183   -2.765183    0.000000
      2          8           0       -0.205061   -1.944939    0.000000
      3          8           0       -0.205061    1.775061   -0.000000
      4          8           0       -0.205061    2.935061   -0.000000
 ---------------------------------------------------------------------

 SCF Done:  E(RHF) =  -299.188949862     A.U. after   17 cycles
 E2 =    -0.9192162536D+00 EUMP2 =    -0.30010816611518D+03
 CCSD(T)
 CCSD(T)= -0.30015112602D+03

 The electronic state is 1-A'.
 Alpha  occ. eigenvalues --  -20.72937 -20.72853 -20.72820 -20.72736  -1.69865
 Alpha  occ. eigenvalues --   -1.69791  -1.08566  -1.08450  -0.78639  -0.78568
 Alpha  occ. eigenvalues --   -0.75237  -0.75013  -0.67391  -0.67319  -0.44802
 Alpha  occ. eigenvalues --   -0.44732
 Alpha virt. eigenvalues --    0.04970   0.05043   0.39386   0.46365   0.67186
 Alpha virt. eigenvalues --    0.70159   0.70379   0.70853   0.71355   0.75259
 Alpha virt. eigenvalues --    0.78568   0.80601   0.81957   0.85025   0.85152

 Mulliken charges:
               1
     1  O   -0.000033
     2  O    0.000479
     3  O    0.000209
     4  O   -0.000656
 Sum of Mulliken charges =  -0.00000

 Dipole moment (field-independent basis, Debye):
    X=             -0.0008    Y=             -0.0157    Z=             -0.0000  Tot=              0.0157
 Quadrupole moment (field-independent basis, Debye-Ang):
   XX=            -19.6569   YY=            -21.1286   ZZ=            -19.7598
   XY=             -0.0940   XZ=             -0.0000   YZ=              0.0000

 P4DQ=-300.1009513\MP4SDQ=-300.1136506\CCSD=-300.1102398\CCSD(T)=-300.1
 Normal termination of Gaussian 16 at Fri Feb  9 20:26:53 2024.
