 Gaussian 16, Revision A.03,
 Gaussian 16:  ES64L-G16RevA.03 25-Dec-2016

 ------------------
 #p CCSD(T)/cc-pVTZ
 ------------------

 ---------
 O2_O2_215
 ---------
 Symbolic Z-matrix:
 Charge =  0 Multiplicity = 1

                         Standard orientation:
 ---------------------------------------------------------------------
 Center     Atomic      Atomic             Coordinates (Angstroms)
 Number     Number       Type             X           Y           Z
 ---------------------------------------------------------------------
      1          8           0       -0.870000   -2.210000    0.000000
      2          8           0        0.290000   -2.210000    0.000000
      3          8           0        0.290000    1.630000    0.000000
      4          8           0        0.290000    2.790000    0.000000
 ---------------------------------------------------------------------

 SCF Done:  E(RHF) =  -299.188947473     A.U. after   18 cycles
 E2 =    -0.9191576800D+00 EUMP2 =    -0.30010810515278D+03
 CCSD(T)
 CCSD(T)= -0.30015109346D+03

 The electronic state is 1-A'.
 Alpha  occ. eigenvalues --  -20.72926 -20.72850 -20.72810 -20.72733  -1.69854
 Alpha  occ. eigenvalues --   -1.69787  -1.08547  -1.08464  -0.78632  -0.78564
 Alpha  occ. eigenvalues --   -0.75187  -0.75059  -0.67382  -0.67314  -0.44799
 Alpha  occ. eigenvalues --   -0.44730
 Alpha virt. eigenvalues --    0.04974   0.05048   0.42304   0.43555   0.66681
 Alpha virt. eigenvalues --    0.70127   0.70545   0.70906   0.72573   0.75494
 Alpha virt. eigenvalues --    0.79599   0.80355   0.82301   0.83073   0.84777

 Mulliken charges:
               1
     1  O   -0.000375
     2  O    0.000587
     3  O    0.000811
     4  O   -0.001023
 Sum of Mulliken charges =  -0.00000

 Dipole moment (field-independent basis, Debye):
    X=              0.0020    Y=             -0.0131    Z=              0.0000  Tot=              0.0132
 Quadrupole moment (field-independent basis, Debye-Ang):
   XX=            -19.5547   YY=            -21.2255   ZZ=            -19.7596
   XY=             -0.0094   XZ=              0.0000   YZ=              0.0000

 DQ=-300.1136113\CCSD=-300.1102121\CCSD(T)=-300.1510935\RMSD=8.555e-09\
 Normal termination of Gaussian 16 at Fri Feb  9 20:34:14 2024.
