 Gaussian 16, Revision A.03,
 Gaussian 16:  ES64L-G16RevA.03 25-Dec-2016

 ------------------
 #p CCSD(T)/cc-pVTZ
 ------------------

 --------
 O2_O2_13
 --------
 Symbolic Z-matrix:
 Charge =  0 Multiplicity = 1

                         Standard orientation:
 ---------------------------------------------------------------------
 Center     Atomic      Atomic             Coordinates (Angstroms)
 Number     Number       Type             X           Y           Z
 ---------------------------------------------------------------------
      1          8           0        0.615183   -1.485183    0.000000
      2          8           0       -0.205061   -0.664939    0.000000
      3          8           0       -0.205061    0.495061   -0.000000
      4          8           0       -0.205061    1.655061   -0.000000
 ---------------------------------------------------------------------

 SCF Done:  E(RHF) =  -298.889983362     A.U. after   17 cycles
 E2 =    -0.9921541959D+00 EUMP2 =    -0.29988213755782D+03
 CCSD(T)
 CCSD(T)= -0.29990591475D+03

 The electronic state is 1-A'.
 Alpha  occ. eigenvalues --  -20.91195 -20.84285 -20.68099 -20.62962  -1.90683
 Alpha  occ. eigenvalues --   -1.69414  -1.45978  -1.00196  -0.92636  -0.92178
 Alpha  occ. eigenvalues --   -0.85259  -0.74128  -0.69081  -0.51559  -0.45330
 Alpha  occ. eigenvalues --   -0.41190
 Alpha virt. eigenvalues --    0.01574   0.18444   0.46862   0.53279   0.62517
 Alpha virt. eigenvalues --    0.63043   0.64541   0.65629   0.75541   0.77961
 Alpha virt. eigenvalues --    0.80377   0.83573   0.84516   0.86124   0.92632

 Mulliken charges:
               1
     1  O   -0.323944
     2  O    0.282249
     3  O    0.275825
     4  O   -0.234130
 Sum of Mulliken charges =  -0.00000

 Dipole moment (field-independent basis, Debye):
    X=             -0.8770    Y=              0.3250    Z=             -0.0000  Tot=              0.9353
 Quadrupole moment (field-independent basis, Debye-Ang):
   XX=            -21.2572   YY=            -26.1684   ZZ=            -19.2712
   XY=              1.7162   XZ=             -0.0000   YZ=              0.0000

 DQ=-299.8319951\MP4SDQ=-299.8555957\CCSD=-299.8501874\CCSD(T)=-299.905
 Normal termination of Gaussian 16 at Fri Feb  9 17:52:43 2024.
