 Gaussian 16, Revision A.03,
 Gaussian 16:  ES64L-G16RevA.03 25-Dec-2016

 ------------------
 #p CCSD(T)/cc-pVTZ
 ------------------

 ---------
 O2_O2_118
 ---------
 Symbolic Z-matrix:
 Charge =  0 Multiplicity = 1

                         Standard orientation:
 ---------------------------------------------------------------------
 Center     Atomic      Atomic             Coordinates (Angstroms)
 Number     Number       Type             X           Y           Z
 ---------------------------------------------------------------------
      1          8           0        0.615183   -2.185183    0.000000
      2          8           0       -0.205061   -1.364939    0.000000
      3          8           0       -0.205061    1.195061    0.000000
      4          8           0       -0.205061    2.355061    0.000000
 ---------------------------------------------------------------------

 SCF Done:  E(RHF) =  -299.186838071     A.U. after   23 cycles
 E2 =    -0.9211685588D+00 EUMP2 =    -0.30010800662982D+03
 CCSD(T)
 CCSD(T)= -0.30015054847D+03

 The electronic state is 1-A'.
 Alpha  occ. eigenvalues --  -20.73055 -20.72937 -20.72759 -20.72615  -1.70028
 Alpha  occ. eigenvalues --   -1.69697  -1.09441  -1.07807  -0.78791  -0.78490
 Alpha  occ. eigenvalues --   -0.76527  -0.73932  -0.67535  -0.67126  -0.44959
 Alpha  occ. eigenvalues --   -0.44651
 Alpha virt. eigenvalues --    0.04813   0.05224   0.42452   0.48196   0.66624
 Alpha virt. eigenvalues --    0.67256   0.68968   0.72316   0.72974   0.77190
 Alpha virt. eigenvalues --    0.79452   0.80046   0.81016   0.86594   0.87836

 Mulliken charges:
               1
     1  O   -0.002209
     2  O    0.001612
     3  O    0.004831
     4  O   -0.004234
 Sum of Mulliken charges =   0.00000

 Dipole moment (field-independent basis, Debye):
    X=             -0.0217    Y=              0.0422    Z=              0.0000  Tot=              0.0475
 Quadrupole moment (field-independent basis, Debye-Ang):
   XX=            -20.4766   YY=            -20.3345   ZZ=            -19.7613
   XY=              0.7169   XZ=             -0.0000   YZ=             -0.0000

 P4DQ=-300.1002363\MP4SDQ=-300.113003\CCSD=-300.1094754\CCSD(T)=-300.15
 Normal termination of Gaussian 16 at Fri Feb  9 19:21:17 2024.
