 Gaussian 16, Revision A.03,
 Gaussian 16:  ES64L-G16RevA.03 25-Dec-2016

 ------------------
 #p CCSD(T)/cc-pVTZ
 ------------------

 ---------
 O2_O2_286
 ---------
 Symbolic Z-matrix:
 Charge =  0 Multiplicity = 1

                         Standard orientation:
 ---------------------------------------------------------------------
 Center     Atomic      Atomic             Coordinates (Angstroms)
 Number     Number       Type             X           Y           Z
 ---------------------------------------------------------------------
      1          8           0        0.615183   -3.305183    0.000000
      2          8           0       -0.205061   -2.484939    0.000000
      3          8           0       -0.205061    2.315062   -0.000000
      4          8           0       -0.205061    3.475060   -0.000000
 ---------------------------------------------------------------------

 SCF Done:  E(RHF) =  -299.188872092     A.U. after   17 cycles
 E2 =    -0.9189624142D+00 EUMP2 =    -0.30010783450659D+03
 CCSD(T)
 CCSD(T)= -0.30015084576D+03

 The electronic state is 1-A'.
 Alpha  occ. eigenvalues --  -20.72931 -20.72910 -20.72815 -20.72794  -1.69865
 Alpha  occ. eigenvalues --   -1.69845  -1.08552  -1.08529  -0.78642  -0.78622
 Alpha  occ. eigenvalues --   -0.75175  -0.75147  -0.67394  -0.67374  -0.44810
 Alpha  occ. eigenvalues --   -0.44789
 Alpha virt. eigenvalues --    0.04966   0.04987   0.42713   0.43889   0.70379
 Alpha virt. eigenvalues --    0.70429   0.70578   0.70594   0.72196   0.72954
 Alpha virt. eigenvalues --    0.79609   0.80271   0.82238   0.82337   0.84730

 Mulliken charges:
               1
     1  O   -0.000295
     2  O    0.000304
     3  O    0.000501
     4  O   -0.000511
 Sum of Mulliken charges =  -0.00000

 Dipole moment (field-independent basis, Debye):
    X=             -0.0008    Y=             -0.0029    Z=             -0.0000  Tot=              0.0030
 Quadrupole moment (field-independent basis, Debye-Ang):
   XX=            -19.6561   YY=            -21.1123   ZZ=            -19.7590
   XY=             -0.0983   XZ=             -0.0000   YZ=              0.0000

 P4DQ=-300.1006978\MP4SDQ=-300.1133822\CCSD=-300.1099862\CCSD(T)=-300.1
 Normal termination of Gaussian 16 at Fri Feb  9 21:26:52 2024.
