 Gaussian 16, Revision A.03,
 Gaussian 16:  ES64L-G16RevA.03 25-Dec-2016

 ------------------
 #p CCSD(T)/cc-pVTZ
 ------------------

 ---------
 O2_O2_282
 ---------
 Symbolic Z-matrix:
 Charge =  0 Multiplicity = 1

                         Standard orientation:
 ---------------------------------------------------------------------
 Center     Atomic      Atomic             Coordinates (Angstroms)
 Number     Number       Type             X           Y           Z
 ---------------------------------------------------------------------
      1          8           0        0.000000    0.000000    3.540000
      2          8           0        0.000000    0.000000    2.380000
      3          8           0        0.000000    0.000000   -2.380000
      4          8           0        0.000000    0.000000   -3.540000
 ---------------------------------------------------------------------

 SCF Done:  E(RHF) =  -298.780608014     A.U. after   10 cycles
 E2 =    -0.2855198016D+01 EUMP2 =    -0.30163580602907D+03
 CCSD(T)
 CCSD(T)= -0.30031322833D+03

 The electronic state is 1-SGG.
 Alpha  occ. eigenvalues --  -20.76617 -20.76617 -20.75685 -20.75685  -1.71774
 Alpha  occ. eigenvalues --   -1.71768  -1.10099  -1.10020  -0.76805  -0.76775
 Alpha  occ. eigenvalues --   -0.74332  -0.74332  -0.74140  -0.74140  -0.25176
 Alpha  occ. eigenvalues --   -0.25176
 Alpha virt. eigenvalues --   -0.16024  -0.16024   0.41699   0.43623   0.69817
 Alpha virt. eigenvalues --    0.69817   0.69860   0.69860   0.71407   0.72678
 Alpha virt. eigenvalues --    0.77895   0.79036   0.82710   0.82710   0.82838

 Mulliken charges:
               1
     1  O   -0.011596
     2  O    0.011596
     3  O    0.011596
     4  O   -0.011596
 Sum of Mulliken charges =  -0.00000

 Dipole moment (field-independent basis, Debye):
    X=             -0.0000    Y=              0.0000    Z=              0.0000  Tot=              0.0000
 Quadrupole moment (field-independent basis, Debye-Ang):
   XX=            -20.0735   YY=            -20.0735   ZZ=            -21.9670
   XY=              0.0000   XZ=              0.0000   YZ=              0.0000

 SDQ=-316.8772604\CCSD=-300.0242264\CCSD(T)=-300.3132283\RMSD=1.721e-09
 Normal termination of Gaussian 16 at Fri Feb  9 21:24:21 2024.
