 Gaussian 16, Revision A.03,
 Gaussian 16:  ES64L-G16RevA.03 25-Dec-2016

 ------------------
 #p CCSD(T)/cc-pVTZ
 ------------------

 ---------
 O2_O2_158
 ---------
 Symbolic Z-matrix:
 Charge =  0 Multiplicity = 1

                         Standard orientation:
 ---------------------------------------------------------------------
 Center     Atomic      Atomic             Coordinates (Angstroms)
 Number     Number       Type             X           Y           Z
 ---------------------------------------------------------------------
      1          8           0       -0.870000   -1.830000    0.000000
      2          8           0        0.290000   -1.830000    0.000000
      3          8           0        0.290000    1.250000    0.000000
      4          8           0        0.290000    2.410000    0.000000
 ---------------------------------------------------------------------

 SCF Done:  E(RHF) =  -299.188838992     A.U. after   19 cycles
 E2 =    -0.9197846730D+00 EUMP2 =    -0.30010862366516D+03
 CCSD(T)
 CCSD(T)= -0.30015156666D+03

 The electronic state is 1-A'.
 Alpha  occ. eigenvalues --  -20.72923 -20.72807 -20.72759 -20.72638  -1.69852
 Alpha  occ. eigenvalues --   -1.69700  -1.08587  -1.08343  -0.78729  -0.78484
 Alpha  occ. eigenvalues --   -0.75303  -0.74751  -0.67372  -0.67232  -0.44797
 Alpha  occ. eigenvalues --   -0.44645
 Alpha virt. eigenvalues --    0.04980   0.05124   0.41647   0.43991   0.63955
 Alpha virt. eigenvalues --    0.68502   0.69356   0.71983   0.72735   0.76992
 Alpha virt. eigenvalues --    0.78925   0.80625   0.81406   0.82577   0.85456

 Mulliken charges:
               1
     1  O   -0.000845
     2  O    0.001263
     3  O    0.001022
     4  O   -0.001440
 Sum of Mulliken charges =  -0.00000

 Dipole moment (field-independent basis, Debye):
    X=              0.0084    Y=             -0.0235    Z=              0.0000  Tot=              0.0249
 Quadrupole moment (field-independent basis, Debye-Ang):
   XX=            -19.5610   YY=            -21.2875   ZZ=            -19.7612
   XY=             -0.0203   XZ=              0.0000   YZ=              0.0000

 SDQ=-300.11402\CCSD=-300.1106058\CCSD(T)=-300.1515667\RMSD=6.707e-09\P
 Normal termination of Gaussian 16 at Fri Feb  9 19:50:56 2024.
