 Gaussian 16, Revision A.03,
 Gaussian 16:  ES64L-G16RevA.03 25-Dec-2016

 ------------------
 #p CCSD(T)/cc-pVTZ
 ------------------

 ---------
 O2_O2_151
 ---------
 Symbolic Z-matrix:
 Charge =  0 Multiplicity = 1

                         Standard orientation:
 ---------------------------------------------------------------------
 Center     Atomic      Atomic             Coordinates (Angstroms)
 Number     Number       Type             X           Y           Z
 ---------------------------------------------------------------------
      1          8           0        0.615183   -2.405183   -0.000000
      2          8           0       -0.205061   -1.584939   -0.000000
      3          8           0       -0.205061    1.415061    0.000000
      4          8           0       -0.205061    2.575061    0.000000
 ---------------------------------------------------------------------

 SCF Done:  E(RHF) =  -299.188379575     A.U. after   23 cycles
 E2 =    -0.9198233219D+00 EUMP2 =    -0.30010820289676D+03
 CCSD(T)
 CCSD(T)= -0.30015109465D+03

 The electronic state is 1-A'.
 Alpha  occ. eigenvalues --  -20.72879 -20.72763 -20.72750 -20.72632  -1.69825
 Alpha  occ. eigenvalues --   -1.69703  -1.08721  -1.08178  -0.78640  -0.78480
 Alpha  occ. eigenvalues --   -0.75547  -0.74530  -0.67350  -0.67234  -0.44754
 Alpha  occ. eigenvalues --   -0.44639
 Alpha virt. eigenvalues --    0.05007   0.05116   0.39961   0.47547   0.65695
 Alpha virt. eigenvalues --    0.68825   0.68890   0.71680   0.72404   0.76424
 Alpha virt. eigenvalues --    0.79647   0.79993   0.80380   0.86374   0.87254

 Mulliken charges:
               1
     1  O   -0.000770
     2  O    0.001705
     3  O    0.000964
     4  O   -0.001899
 Sum of Mulliken charges =  -0.00000

 Dipole moment (field-independent basis, Debye):
    X=             -0.0032    Y=             -0.0229    Z=              0.0000  Tot=              0.0231
 Quadrupole moment (field-independent basis, Debye-Ang):
   XX=            -19.6610   YY=            -21.2066   ZZ=            -19.7613
   XY=             -0.0813   XZ=             -0.0000   YZ=             -0.0000

 DQ=-300.1008309\MP4SDQ=-300.1135689\CCSD=-300.1101275\CCSD(T)=-300.151
 Normal termination of Gaussian 16 at Fri Feb  9 19:45:43 2024.
