 Gaussian 16, Revision A.03,
 Gaussian 16:  ES64L-G16RevA.03 25-Dec-2016

 ------------------
 #p CCSD(T)/cc-pVTZ
 ------------------

 ---------
 O2_O2_280
 ---------
 Symbolic Z-matrix:
 Charge =  0 Multiplicity = 1

                         Standard orientation:
 ---------------------------------------------------------------------
 Center     Atomic      Atomic             Coordinates (Angstroms)
 Number     Number       Type             X           Y           Z
 ---------------------------------------------------------------------
      1          8           0        0.615183   -3.265183    0.000000
      2          8           0       -0.205061   -2.444939   -0.000000
      3          8           0       -0.205061    2.275061   -0.000000
      4          8           0       -0.205061    3.435061   -0.000000
 ---------------------------------------------------------------------

 SCF Done:  E(RHF) =  -299.188874329     A.U. after   17 cycles
 E2 =    -0.9189688315D+00 EUMP2 =    -0.30010784316046D+03
 CCSD(T)
 CCSD(T)= -0.30015085271D+03

 The electronic state is 1-A'.
 Alpha  occ. eigenvalues --  -20.72930 -20.72907 -20.72815 -20.72791  -1.69864
 Alpha  occ. eigenvalues --   -1.69843  -1.08552  -1.08527  -0.78641  -0.78620
 Alpha  occ. eigenvalues --   -0.75175  -0.75143  -0.67393  -0.67371  -0.44809
 Alpha  occ. eigenvalues --   -0.44787
 Alpha virt. eigenvalues --    0.04967   0.04989   0.42587   0.44005   0.70359
 Alpha virt. eigenvalues --    0.70430   0.70580   0.70597   0.72107   0.73045
 Alpha virt. eigenvalues --    0.79536   0.80329   0.82239   0.82398   0.84731

 Mulliken charges:
               1
     1  O   -0.000306
     2  O    0.000320
     3  O    0.000524
     4  O   -0.000538
 Sum of Mulliken charges =  -0.00000

 Dipole moment (field-independent basis, Debye):
    X=             -0.0008    Y=             -0.0032    Z=             -0.0000  Tot=              0.0033
 Quadrupole moment (field-independent basis, Debye-Ang):
   XX=            -19.6561   YY=            -21.1135   ZZ=            -19.7590
   XY=             -0.0981   XZ=              0.0000   YZ=              0.0000

 P4DQ=-300.1007044\MP4SDQ=-300.1133891\CCSD=-300.1099927\CCSD(T)=-300.1
 Normal termination of Gaussian 16 at Fri Feb  9 21:22:55 2024.
