 Gaussian 16, Revision A.03,
 Gaussian 16:  ES64L-G16RevA.03 25-Dec-2016

 ------------------
 #p CCSD(T)/cc-pVTZ
 ------------------

 ---------
 O2_O2_290
 ---------
 Symbolic Z-matrix:
 Charge =  0 Multiplicity = 1

                         Standard orientation:
 ---------------------------------------------------------------------
 Center     Atomic      Atomic             Coordinates (Angstroms)
 Number     Number       Type             X           Y           Z
 ---------------------------------------------------------------------
      1          8           0       -0.870000   -2.710000    0.000000
      2          8           0        0.290000   -2.710000    0.000000
      3          8           0        0.290000    2.130000    0.000000
      4          8           0        0.290000    3.290000    0.000000
 ---------------------------------------------------------------------

 SCF Done:  E(RHF) =  -299.188874668     A.U. after   18 cycles
 E2 =    -0.9189601758D+00 EUMP2 =    -0.30010783484416D+03
 CCSD(T)
 CCSD(T)= -0.30015085011D+03

 The electronic state is 1-A'.
 Alpha  occ. eigenvalues --  -20.72930 -20.72900 -20.72814 -20.72783  -1.69863
 Alpha  occ. eigenvalues --   -1.69835  -1.08552  -1.08519  -0.78639  -0.78612
 Alpha  occ. eigenvalues --   -0.75174  -0.75138  -0.67391  -0.67363  -0.44808
 Alpha  occ. eigenvalues --   -0.44779
 Alpha virt. eigenvalues --    0.04966   0.04998   0.43243   0.43380   0.70292
 Alpha virt. eigenvalues --    0.70436   0.70582   0.70608   0.72554   0.72720
 Alpha virt. eigenvalues --    0.79916   0.80014   0.82244   0.82248   0.84727

 Mulliken charges:
               1
     1  O   -0.000187
     2  O    0.000193
     3  O    0.000601
     4  O   -0.000606
 Sum of Mulliken charges =  -0.00000

 Dipole moment (field-independent basis, Debye):
    X=              0.0011    Y=             -0.0045    Z=              0.0000  Tot=              0.0046
 Quadrupole moment (field-independent basis, Debye-Ang):
   XX=            -19.5527   YY=            -21.2122   ZZ=            -19.7590
   XY=             -0.0051   XZ=              0.0000   YZ=              0.0000

 DQ=-300.1133843\CCSD=-300.1099908\CCSD(T)=-300.1508501\RMSD=6.745e-09\
 Normal termination of Gaussian 16 at Fri Feb  9 21:29:44 2024.
