 Gaussian 16, Revision A.03,
 Gaussian 16:  ES64L-G16RevA.03 25-Dec-2016

 ------------------
 #p CCSD(T)/cc-pVTZ
 ------------------

 --------
 O2_O2_77
 --------
 Symbolic Z-matrix:
 Charge =  0 Multiplicity = 1

                         Standard orientation:
 ---------------------------------------------------------------------
 Center     Atomic      Atomic             Coordinates (Angstroms)
 Number     Number       Type             X           Y           Z
 ---------------------------------------------------------------------
      1          8           0       -0.870000   -1.290000    0.000000
      2          8           0        0.290000   -1.290000    0.000000
      3          8           0        0.290000    0.710000    0.000000
      4          8           0        0.290000    1.870000    0.000000
 ---------------------------------------------------------------------

 SCF Done:  E(RHF) =  -299.154517945     A.U. after   25 cycles
 E2 =    -0.9319029135D+00 EUMP2 =    -0.30008642085801D+03
 CCSD(T)
 CCSD(T)= -0.30012720759D+03

 The electronic state is 1-A'.
 Alpha  occ. eigenvalues --  -20.73915 -20.73425 -20.72101 -20.71151  -1.71251
 Alpha  occ. eigenvalues --   -1.68970  -1.11618  -1.07070  -0.79966  -0.79212
 Alpha  occ. eigenvalues --   -0.77982  -0.73863  -0.68343  -0.63260  -0.45811
 Alpha  occ. eigenvalues --   -0.43922
 Alpha virt. eigenvalues --    0.03858   0.05945   0.43484   0.47400   0.66062
 Alpha virt. eigenvalues --    0.69031   0.70331   0.72253   0.74150   0.75142
 Alpha virt. eigenvalues --    0.78528   0.80807   0.82174   0.87184   0.89069

 Mulliken charges:
               1
     1  O   -0.013594
     2  O   -0.001243
     3  O    0.018970
     4  O   -0.004133
 Sum of Mulliken charges =  -0.00000

 Dipole moment (field-independent basis, Debye):
    X=              0.1299    Y=              0.3117    Z=              0.0000  Tot=              0.3377
 Quadrupole moment (field-independent basis, Debye-Ang):
   XX=            -21.2368   YY=            -19.8104   ZZ=            -19.7353
   XY=             -0.1085   XZ=              0.0000   YZ=              0.0000

 Q=-300.0884523\CCSD=-300.0847343\CCSD(T)=-300.1272076\RMSD=3.541e-09\P
 Normal termination of Gaussian 16 at Fri Feb  9 18:47:52 2024.
