 Gaussian 16, Revision A.03,
 Gaussian 16:  ES64L-G16RevA.03 25-Dec-2016

 ------------------
 #p CCSD(T)/cc-pVTZ
 ------------------

 ---------
 O2_O2_249
 ---------
 Symbolic Z-matrix:
 Charge =  0 Multiplicity = 1

                         Standard orientation:
 ---------------------------------------------------------------------
 Center     Atomic      Atomic             Coordinates (Angstroms)
 Number     Number       Type             X           Y           Z
 ---------------------------------------------------------------------
      1          8           0        0.000000    0.000000    3.320000
      2          8           0        0.000000    0.000000    2.160000
      3          8           0        0.000000    0.000000   -2.160000
      4          8           0        0.000000    0.000000   -3.320000
 ---------------------------------------------------------------------

 SCF Done:  E(RHF) =  -298.788744711     A.U. after   10 cycles
 E2 =    -0.2661902589D+01 EUMP2 =    -0.30145064730022D+03
 CCSD(T)
 CCSD(T)= -0.30030605731D+03

 The electronic state is 1-SGG.
 Alpha  occ. eigenvalues --  -20.76726 -20.76725 -20.75618 -20.75617  -1.71790
 Alpha  occ. eigenvalues --   -1.71782  -1.10127  -1.10014  -0.76838  -0.76763
 Alpha  occ. eigenvalues --   -0.74372  -0.74372  -0.74124  -0.74124  -0.25579
 Alpha  occ. eigenvalues --   -0.25579
 Alpha virt. eigenvalues --   -0.15634  -0.15634   0.40117   0.44900   0.69756
 Alpha virt. eigenvalues --    0.69756   0.69908   0.69908   0.69989   0.73646
 Alpha virt. eigenvalues --    0.77413   0.80410   0.82536   0.82536   0.83013

 Mulliken charges:
               1
     1  O   -0.013530
     2  O    0.013530
     3  O    0.013530
     4  O   -0.013530
 Sum of Mulliken charges =  -0.00000

 Dipole moment (field-independent basis, Debye):
    X=             -0.0000    Y=             -0.0000    Z=             -0.0000  Tot=              0.0000
 Quadrupole moment (field-independent basis, Debye-Ang):
   XX=            -20.0765   YY=            -20.0765   ZZ=            -22.0059
   XY=              0.0000   XZ=              0.0000   YZ=              0.0000

 P4SDQ=-311.2165141\CCSD=-300.0249114\CCSD(T)=-300.3060573\RMSD=1.765e-
 Normal termination of Gaussian 16 at Fri Feb  9 20:58:51 2024.
