 Gaussian 16, Revision A.03,
 Gaussian 16:  ES64L-G16RevA.03 25-Dec-2016

 ------------------
 #p CCSD(T)/cc-pVTZ
 ------------------

 ---------
 O2_O2_213
 ---------
 Symbolic Z-matrix:
 Charge =  0 Multiplicity = 1

                         Standard orientation:
 ---------------------------------------------------------------------
 Center     Atomic      Atomic             Coordinates (Angstroms)
 Number     Number       Type             X           Y           Z
 ---------------------------------------------------------------------
      1          8           0        0.000000    0.000000    3.080000
      2          8           0        0.000000    0.000000    1.920000
      3          8           0        0.000000    0.000000   -1.920000
      4          8           0        0.000000    0.000000   -3.080000
 ---------------------------------------------------------------------

 SCF Done:  E(RHF) =  -298.800205291     A.U. after   10 cycles
 E2 =    -0.2446475694D+01 EUMP2 =    -0.30124668098539D+03
 CCSD(T)
 CCSD(T)= -0.30029583075D+03

 The electronic state is 1-SGG.
 Alpha  occ. eigenvalues --  -20.76938 -20.76937 -20.75543 -20.75542  -1.71843
 Alpha  occ. eigenvalues --   -1.71828  -1.10208  -1.10009  -0.76942  -0.76735
 Alpha  occ. eigenvalues --   -0.74457  -0.74457  -0.74119  -0.74119  -0.26144
 Alpha  occ. eigenvalues --   -0.26144
 Alpha virt. eigenvalues --   -0.15119  -0.15119   0.37515   0.46801   0.67260
 Alpha virt. eigenvalues --    0.69535   0.69535   0.70066   0.70066   0.74991
 Alpha virt. eigenvalues --    0.77228   0.81966   0.81966   0.83607   0.83607

 Mulliken charges:
               1
     1  O   -0.015815
     2  O    0.015815
     3  O    0.015815
     4  O   -0.015815
 Sum of Mulliken charges =   0.00000

 Dipole moment (field-independent basis, Debye):
    X=             -0.0000    Y=             -0.0000    Z=              0.0000  Tot=              0.0000
 Quadrupole moment (field-independent basis, Debye-Ang):
   XX=            -20.0855   YY=            -20.0855   ZZ=            -22.0307
   XY=              0.0000   XZ=              0.0000   YZ=              0.0000

 Q=-306.591798\CCSD=-300.0260777\CCSD(T)=-300.2958307\RMSD=1.836e-09\PG
 Normal termination of Gaussian 16 at Fri Feb  9 20:32:39 2024.
