 Gaussian 16, Revision A.03,
 Gaussian 16:  ES64L-G16RevA.03 25-Dec-2016

 ------------------
 #p CCSD(T)/cc-pVTZ
 ------------------

 ---------
 O2_O2_185
 ---------
 Symbolic Z-matrix:
 Charge =  0 Multiplicity = 1

                         Standard orientation:
 ---------------------------------------------------------------------
 Center     Atomic      Atomic             Coordinates (Angstroms)
 Number     Number       Type             X           Y           Z
 ---------------------------------------------------------------------
      1          8           0       -0.870000   -2.010000    0.000000
      2          8           0        0.290000   -2.010000    0.000000
      3          8           0        0.290000    1.430000    0.000000
      4          8           0        0.290000    2.590000    0.000000
 ---------------------------------------------------------------------

 SCF Done:  E(RHF) =  -299.188989550     A.U. after   19 cycles
 E2 =    -0.9193896072D+00 EUMP2 =    -0.30010837915678D+03
 CCSD(T)
 CCSD(T)= -0.30015134992D+03

 The electronic state is 1-A'.
 Alpha  occ. eigenvalues --  -20.72927 -20.72814 -20.72811 -20.72695  -1.69852
 Alpha  occ. eigenvalues --   -1.69751  -1.08553  -1.08418  -0.78649  -0.78530
 Alpha  occ. eigenvalues --   -0.75229  -0.74958  -0.67378  -0.67279  -0.44798
 Alpha  occ. eigenvalues --   -0.44694
 Alpha virt. eigenvalues --    0.04976   0.05081   0.41501   0.43672   0.64527
 Alpha virt. eigenvalues --    0.69520   0.70156   0.71375   0.72633   0.76728
 Alpha virt. eigenvalues --    0.79116   0.80389   0.82384   0.82839   0.84954

 Mulliken charges:
               1
     1  O   -0.000531
     2  O    0.000897
     3  O    0.000591
     4  O   -0.000957
 Sum of Mulliken charges =  -0.00000

 Dipole moment (field-independent basis, Debye):
    X=              0.0038    Y=             -0.0188    Z=              0.0000  Tot=              0.0191
 Quadrupole moment (field-independent basis, Debye-Ang):
   XX=            -19.5569   YY=            -21.2441   ZZ=            -19.7602
   XY=             -0.0136   XZ=              0.0000   YZ=              0.0000

 SDQ=-300.1138447\CCSD=-300.1104395\CCSD(T)=-300.1513499\RMSD=6.195e-09
 Normal termination of Gaussian 16 at Fri Feb  9 20:11:59 2024.
