 Gaussian 16, Revision A.03,
 Gaussian 16:  ES64L-G16RevA.03 25-Dec-2016

 ------------------
 #p CCSD(T)/cc-pVTZ
 ------------------

 --------
 O2_O2_12
 --------
 Symbolic Z-matrix:
 Charge =  0 Multiplicity = 1

                         Standard orientation:
 ---------------------------------------------------------------------
 Center     Atomic      Atomic             Coordinates (Angstroms)
 Number     Number       Type             X           Y           Z
 ---------------------------------------------------------------------
      1          8           0        0.000000    0.000000    1.740000
      2          8           0        0.000000    0.000000    0.580000
      3          8           0        0.000000    0.000000   -0.580000
      4          8           0        0.000000    0.000000   -1.740000
 ---------------------------------------------------------------------

 SCF Done:  E(RHF) =  -298.597618027     A.U. after   12 cycles
 E2 =    -0.1266274977D+01 EUMP2 =    -0.29986389300408D+03
 CCSD(T)
 CCSD(T)= -0.29977648946D+03

 The electronic state is 1-SGG.
 Alpha  occ. eigenvalues --  -20.87253 -20.87163 -20.65367 -20.65367  -1.87600
 Alpha  occ. eigenvalues --   -1.70045  -1.48589  -0.96593  -0.90399  -0.90399
 Alpha  occ. eigenvalues --   -0.86291  -0.68954  -0.68954  -0.40899  -0.40899
 Alpha  occ. eigenvalues --   -0.34238
 Alpha virt. eigenvalues --    0.01583   0.01583   0.42835   0.51043   0.58707
 Alpha virt. eigenvalues --    0.64090   0.64090   0.66427   0.75052   0.75052
 Alpha virt. eigenvalues --    0.82699   0.85083   0.85083   1.00256   1.00256

 Mulliken charges:
               1
     1  O   -0.195188
     2  O    0.195188
     3  O    0.195188
     4  O   -0.195188
 Sum of Mulliken charges =   0.00000

 Dipole moment (field-independent basis, Debye):
    X=             -0.0000    Y=              0.0000    Z=             -0.0000  Tot=              0.0000
 Quadrupole moment (field-independent basis, Debye-Ang):
   XX=            -19.6428   YY=            -19.6428   ZZ=            -28.2215
   XY=              0.0000   XZ=              0.0000   YZ=             -0.0000

 DQ=-299.7423918\CCSD=-299.680871\CCSD(T)=-299.7764895\RMSD=5.584e-09\P
 Normal termination of Gaussian 16 at Fri Feb  9 17:51:49 2024.
