 Gaussian 16, Revision A.03,
 Gaussian 16:  ES64L-G16RevA.03 25-Dec-2016

 ------------------
 #p CCSD(T)/cc-pVTZ
 ------------------

 --------
 O2_O2_52
 --------
 Symbolic Z-matrix:
 Charge =  0 Multiplicity = 1

                         Standard orientation:
 ---------------------------------------------------------------------
 Center     Atomic      Atomic             Coordinates (Angstroms)
 Number     Number       Type             X           Y           Z
 ---------------------------------------------------------------------
      1          8           0        0.615183   -1.745183    0.000000
      2          8           0       -0.205061   -0.924939    0.000000
      3          8           0       -0.205061    0.755061   -0.000000
      4          8           0       -0.205061    1.915061   -0.000000
 ---------------------------------------------------------------------

 SCF Done:  E(RHF) =  -299.106173767     A.U. after   18 cycles
 E2 =    -0.9411934870D+00 EUMP2 =    -0.30004736725447D+03
 CCSD(T)
 CCSD(T)= -0.30008892745D+03

 The electronic state is 1-A'.
 Alpha  occ. eigenvalues --  -20.73233 -20.73225 -20.72939 -20.70084  -1.71433
 Alpha  occ. eigenvalues --   -1.68886  -1.18177  -1.03471  -0.81923  -0.79835
 Alpha  occ. eigenvalues --   -0.78407  -0.70442  -0.68157  -0.61337  -0.45511
 Alpha  occ. eigenvalues --   -0.43862
 Alpha virt. eigenvalues --    0.04362   0.07007   0.46516   0.49820   0.65954
 Alpha virt. eigenvalues --    0.67278   0.72641   0.73938   0.74134   0.77122
 Alpha virt. eigenvalues --    0.78819   0.81557   0.82593   0.85996   0.95859

 Mulliken charges:
               1
     1  O   -0.052899
     2  O    0.036084
     3  O    0.042115
     4  O   -0.025300
 Sum of Mulliken charges =  -0.00000

 Dipole moment (field-independent basis, Debye):
    X=             -0.2047    Y=              0.3665    Z=             -0.0000  Tot=              0.4198
 Quadrupole moment (field-independent basis, Debye-Ang):
   XX=            -20.6232   YY=            -21.3354   ZZ=            -19.7055
   XY=              0.9834   XZ=              0.0000   YZ=              0.0000

 4DQ=-300.0323983\MP4SDQ=-300.0469497\CCSD=-300.0432703\CCSD(T)=-300.08
 Normal termination of Gaussian 16 at Fri Feb  9 18:27:54 2024.
