 Gaussian 16, Revision A.03,
 Gaussian 16:  ES64L-G16RevA.03 25-Dec-2016

 ------------------
 #p CCSD(T)/cc-pVTZ
 ------------------

 ---------
 O2_O2_211
 ---------
 Symbolic Z-matrix:
 Charge =  0 Multiplicity = 1

                         Standard orientation:
 ---------------------------------------------------------------------
 Center     Atomic      Atomic             Coordinates (Angstroms)
 Number     Number       Type             X           Y           Z
 ---------------------------------------------------------------------
      1          8           0        0.615183   -2.805183    0.000000
      2          8           0       -0.205061   -1.984939    0.000000
      3          8           0       -0.205061    1.815061   -0.000000
      4          8           0       -0.205061    2.975061   -0.000000
 ---------------------------------------------------------------------

 SCF Done:  E(RHF) =  -299.188948477     A.U. after   17 cycles
 E2 =    -0.9191782663D+00 EUMP2 =    -0.30010812674366D+03
 CCSD(T)
 CCSD(T)= -0.30015109282D+03

 The electronic state is 1-A'.
 Alpha  occ. eigenvalues --  -20.72936 -20.72860 -20.72819 -20.72743  -1.69865
 Alpha  occ. eigenvalues --   -1.69797  -1.08562  -1.08462  -0.78639  -0.78574
 Alpha  occ. eigenvalues --   -0.75224  -0.75035  -0.67391  -0.67326  -0.44803
 Alpha  occ. eigenvalues --   -0.44739
 Alpha virt. eigenvalues --    0.04970   0.05036   0.39660   0.46171   0.67626
 Alpha virt. eigenvalues --    0.70222   0.70446   0.70800   0.71307   0.75071
 Alpha virt. eigenvalues --    0.78567   0.80638   0.82040   0.84953   0.85036

 Mulliken charges:
               1
     1  O   -0.000089
     2  O    0.000464
     3  O    0.000312
     4  O   -0.000687
 Sum of Mulliken charges =   0.00000

 Dipole moment (field-independent basis, Debye):
    X=             -0.0008    Y=             -0.0140    Z=             -0.0000  Tot=              0.0141
 Quadrupole moment (field-independent basis, Debye-Ang):
   XX=            -19.6569   YY=            -21.1263   ZZ=            -19.7597
   XY=             -0.0946   XZ=             -0.0000   YZ=              0.0000

 DQ=-300.100923\MP4SDQ=-300.1136197\CCSD=-300.110211\CCSD(T)=-300.15109
 Normal termination of Gaussian 16 at Fri Feb  9 20:31:20 2024.
