 Gaussian 16, Revision A.03,
 Gaussian 16:  ES64L-G16RevA.03 25-Dec-2016

 ------------------
 #p CCSD(T)/cc-pVTZ
 ------------------

 ---------
 O2_O2_104
 ---------
 Symbolic Z-matrix:
 Charge =  0 Multiplicity = 1

                         Standard orientation:
 ---------------------------------------------------------------------
 Center     Atomic      Atomic             Coordinates (Angstroms)
 Number     Number       Type             X           Y           Z
 ---------------------------------------------------------------------
      1          8           0       -0.870000   -1.470000    0.000000
      2          8           0        0.290000   -1.470000    0.000000
      3          8           0        0.290000    0.890000    0.000000
      4          8           0        0.290000    2.050000    0.000000
 ---------------------------------------------------------------------

 SCF Done:  E(RHF) =  -299.181124608     A.U. after   28 cycles
 E2 =    -0.9223277972D+00 EUMP2 =    -0.30010345240525D+03
 CCSD(T)
 CCSD(T)= -0.30014607981D+03

 The electronic state is 1-A'.
 Alpha  occ. eigenvalues --  -20.72907 -20.72628 -20.72384 -20.72266  -1.70007
 Alpha  occ. eigenvalues --   -1.69351  -1.09169  -1.07844  -0.80000  -0.78266
 Alpha  occ. eigenvalues --   -0.75489  -0.73030  -0.67383  -0.67013  -0.44771
 Alpha  occ. eigenvalues --   -0.44396
 Alpha virt. eigenvalues --    0.04969   0.05387   0.42808   0.47209   0.66154
 Alpha virt. eigenvalues --    0.67891   0.71072   0.72608   0.73316   0.75059
 Alpha virt. eigenvalues --    0.77914   0.79552   0.83228   0.85005   0.87677

 Mulliken charges:
               1
     1  O   -0.004661
     2  O    0.007812
     3  O    0.012753
     4  O   -0.015905
 Sum of Mulliken charges =  -0.00000

 Dipole moment (field-independent basis, Debye):
    X=              0.0431    Y=             -0.0564    Z=              0.0000  Tot=              0.0710
 Quadrupole moment (field-independent basis, Debye-Ang):
   XX=            -19.5791   YY=            -21.5296   ZZ=            -19.7620
   XY=             -0.0583   XZ=              0.0000   YZ=              0.0000

 4SDQ=-300.1082784\CCSD=-300.104791\CCSD(T)=-300.1460798\RMSD=1.453e-09
 Normal termination of Gaussian 16 at Fri Feb  9 19:10:47 2024.
