 Gaussian 16, Revision A.03,
 Gaussian 16:  ES64L-G16RevA.03 25-Dec-2016

 ------------------
 #p CCSD(T)/cc-pVTZ
 ------------------

 ---------
 O2_O2_248
 ---------
 Symbolic Z-matrix:
 Charge =  0 Multiplicity = 1

                         Standard orientation:
 ---------------------------------------------------------------------
 Center     Atomic      Atomic             Coordinates (Angstroms)
 Number     Number       Type             X           Y           Z
 ---------------------------------------------------------------------
      1          8           0       -0.870000   -2.430000    0.000000
      2          8           0        0.290000   -2.430000    0.000000
      3          8           0        0.290000    1.850000    0.000000
      4          8           0        0.290000    3.010000    0.000000
 ---------------------------------------------------------------------

 SCF Done:  E(RHF) =  -299.188900430     A.U. after   19 cycles
 E2 =    -0.9190273839D+00 EUMP2 =    -0.30010792781427D+03
 CCSD(T)
 CCSD(T)= -0.30015093218D+03

 The electronic state is 1-A'.
 Alpha  occ. eigenvalues --  -20.72925 -20.72877 -20.72810 -20.72760  -1.69857
 Alpha  occ. eigenvalues --   -1.69813  -1.08547  -1.08495  -0.78632  -0.78590
 Alpha  occ. eigenvalues --   -0.75173  -0.75109  -0.67385  -0.67341  -0.44802
 Alpha  occ. eigenvalues --   -0.44757
 Alpha virt. eigenvalues --    0.04972   0.05021   0.42987   0.43475   0.69082
 Alpha virt. eigenvalues --    0.70382   0.70622   0.70659   0.72558   0.73751
 Alpha virt. eigenvalues --    0.79820   0.80184   0.82269   0.82496   0.84737

 Mulliken charges:
               1
     1  O   -0.000275
     2  O    0.000337
     3  O    0.000805
     4  O   -0.000866
 Sum of Mulliken charges =  -0.00000

 Dipole moment (field-independent basis, Debye):
    X=              0.0015    Y=             -0.0078    Z=              0.0000  Tot=              0.0079
 Quadrupole moment (field-independent basis, Debye-Ang):
   XX=            -19.5536   YY=            -21.2193   ZZ=            -19.7593
   XY=             -0.0070   XZ=              0.0000   YZ=              0.0000

 4SDQ=-300.1134609\CCSD=-300.1100658\CCSD(T)=-300.1509322\RMSD=3.359e-0
 Normal termination of Gaussian 16 at Fri Feb  9 20:58:16 2024.
