 Gaussian 16, Revision A.03,
 Gaussian 16:  ES64L-G16RevA.03 25-Dec-2016

 ------------------
 #p CCSD(T)/cc-pVTZ
 ------------------

 ---------
 O2_O2_241
 ---------
 Symbolic Z-matrix:
 Charge =  0 Multiplicity = 1

                         Standard orientation:
 ---------------------------------------------------------------------
 Center     Atomic      Atomic             Coordinates (Angstroms)
 Number     Number       Type             X           Y           Z
 ---------------------------------------------------------------------
      1          8           0        0.615183   -3.005183    0.000000
      2          8           0       -0.205061   -2.184939   -0.000000
      3          8           0       -0.205061    2.015061   -0.000000
      4          8           0       -0.205061    3.175061   -0.000000
 ---------------------------------------------------------------------

 SCF Done:  E(RHF) =  -299.188910571     A.U. after   17 cycles
 E2 =    -0.9190441935D+00 EUMP2 =    -0.30010795476404D+03
 CCSD(T)
 CCSD(T)= -0.30015094696D+03

 The electronic state is 1-A'.
 Alpha  occ. eigenvalues --  -20.72930 -20.72886 -20.72814 -20.72770  -1.69862
 Alpha  occ. eigenvalues --   -1.69823  -1.08551  -1.08501  -0.78638  -0.78600
 Alpha  occ. eigenvalues --   -0.75186  -0.75104  -0.67390  -0.67351  -0.44805
 Alpha  occ. eigenvalues --   -0.44766
 Alpha virt. eigenvalues --    0.04970   0.05011   0.41206   0.45113   0.69598
 Alpha virt. eigenvalues --    0.70394   0.70595   0.70634   0.71367   0.74038
 Alpha virt. eigenvalues --    0.78878   0.80660   0.82223   0.83898   0.84779

 Mulliken charges:
               1
     1  O   -0.000299
     2  O    0.000417
     3  O    0.000592
     4  O   -0.000709
 Sum of Mulliken charges =   0.00000

 Dipole moment (field-independent basis, Debye):
    X=             -0.0008    Y=             -0.0072    Z=             -0.0000  Tot=              0.0073
 Quadrupole moment (field-independent basis, Debye-Ang):
   XX=            -19.6566   YY=            -21.1205   ZZ=            -19.7594
   XY=             -0.0965   XZ=             -0.0000   YZ=              0.0000

 P4DQ=-300.1007921\MP4SDQ=-300.1134803\CCSD=-300.1100795\CCSD(T)=-300.1
 Normal termination of Gaussian 16 at Fri Feb  9 20:53:09 2024.
