 Gaussian 16, Revision A.03,
 Gaussian 16:  ES64L-G16RevA.03 25-Dec-2016

 ------------------
 #p CCSD(T)/cc-pVTZ
 ------------------

 --------
 O2_O2_84
 --------
 Symbolic Z-matrix:
 Charge =  0 Multiplicity = 1

                         Standard orientation:
 ---------------------------------------------------------------------
 Center     Atomic      Atomic             Coordinates (Angstroms)
 Number     Number       Type             X           Y           Z
 ---------------------------------------------------------------------
      1          8           0        0.000000    0.000000    2.220000
      2          8           0        0.000000    0.000000    1.060000
      3          8           0        0.000000    0.000000   -1.060000
      4          8           0        0.000000    0.000000   -2.220000
 ---------------------------------------------------------------------

 SCF Done:  E(RHF) =  -298.906964085     A.U. after   10 cycles
 E2 =    -0.1602604955D+01 EUMP2 =    -0.30050956903924D+03
 CCSD(T)
 CCSD(T)= -0.30020575877D+03

 The electronic state is 1-SGG.
 Alpha  occ. eigenvalues --  -20.80229 -20.80224 -20.74585 -20.74584  -1.73044
 Alpha  occ. eigenvalues --   -1.72486  -1.14095  -1.08168  -0.80938  -0.76109
 Alpha  occ. eigenvalues --   -0.76109  -0.73857  -0.73857  -0.73397  -0.31226
 Alpha  occ. eigenvalues --   -0.31226
 Alpha virt. eigenvalues --   -0.10717  -0.10717   0.44463   0.48950   0.65649
 Alpha virt. eigenvalues --    0.65649   0.72008   0.72008   0.72029   0.76361
 Alpha virt. eigenvalues --    0.78751   0.78751   0.84213   0.85559   0.88023

 Mulliken charges:
               1
     1  O   -0.072641
     2  O    0.072641
     3  O    0.072641
     4  O   -0.072641
 Sum of Mulliken charges =   0.00000

 Dipole moment (field-independent basis, Debye):
    X=             -0.0000    Y=             -0.0000    Z=              0.0000  Tot=              0.0000
 Quadrupole moment (field-independent basis, Debye-Ang):
   XX=            -20.2311   YY=            -20.2311   ZZ=            -22.1729
   XY=              0.0000   XZ=              0.0000   YZ=              0.0000

 SDQ=-300.1416244\CCSD=-300.0463634\CCSD(T)=-300.2057588\RMSD=3.233e-09
 Normal termination of Gaussian 16 at Fri Feb  9 18:53:09 2024.
