 Gaussian 16, Revision A.03,
 Gaussian 16:  ES64L-G16RevA.03 25-Dec-2016

 ------------------
 #p CCSD(T)/cc-pVTZ
 ------------------

 ---------
 O2_O2_197
 ---------
 Symbolic Z-matrix:
 Charge =  0 Multiplicity = 1

                         Standard orientation:
 ---------------------------------------------------------------------
 Center     Atomic      Atomic             Coordinates (Angstroms)
 Number     Number       Type             X           Y           Z
 ---------------------------------------------------------------------
      1          8           0       -0.870000   -2.090000    0.000000
      2          8           0        0.290000   -2.090000    0.000000
      3          8           0        0.290000    1.510000    0.000000
      4          8           0        0.290000    2.670000    0.000000
 ---------------------------------------------------------------------

 SCF Done:  E(RHF) =  -299.188978050     A.U. after   18 cycles
 E2 =    -0.9192788842D+00 EUMP2 =    -0.30010825693423D+03
 CCSD(T)
 CCSD(T)= -0.30015123495D+03

 The electronic state is 1-A'.
 Alpha  occ. eigenvalues --  -20.72927 -20.72830 -20.72811 -20.72712  -1.69853
 Alpha  occ. eigenvalues --   -1.69767  -1.08549  -1.08440  -0.78638  -0.78545
 Alpha  occ. eigenvalues --   -0.75207  -0.75009  -0.67380  -0.67294  -0.44798
 Alpha  occ. eigenvalues --   -0.44710
 Alpha virt. eigenvalues --    0.04975   0.05067   0.41774   0.43613   0.65268
 Alpha virt. eigenvalues --    0.69821   0.70372   0.71156   0.72601   0.76336
 Alpha virt. eigenvalues --    0.79331   0.80373   0.82339   0.83106   0.84853

 Mulliken charges:
               1
     1  O   -0.000461
     2  O    0.000777
     3  O    0.000681
     4  O   -0.000997
 Sum of Mulliken charges =  -0.00000

 Dipole moment (field-independent basis, Debye):
    X=              0.0028    Y=             -0.0166    Z=              0.0000  Tot=              0.0168
 Quadrupole moment (field-independent basis, Debye-Ang):
   XX=            -19.5558   YY=            -21.2338   ZZ=            -19.7599
   XY=             -0.0116   XZ=              0.0000   YZ=              0.0000

 SDQ=-300.1137413\CCSD=-300.1103387\CCSD(T)=-300.1512349\RMSD=8.202e-09
 Normal termination of Gaussian 16 at Fri Feb  9 20:20:54 2024.
