 Gaussian 16, Revision A.03,
 Gaussian 16:  ES64L-G16RevA.03 25-Dec-2016

 ------------------
 #p CCSD(T)/cc-pVTZ
 ------------------

 ---------
 O2_O2_192
 ---------
 Symbolic Z-matrix:
 Charge =  0 Multiplicity = 1

                         Standard orientation:
 ---------------------------------------------------------------------
 Center     Atomic      Atomic             Coordinates (Angstroms)
 Number     Number       Type             X           Y           Z
 ---------------------------------------------------------------------
      1          8           0        0.000000    0.000000    2.940000
      2          8           0        0.000000    0.000000    1.780000
      3          8           0        0.000000    0.000000   -1.780000
      4          8           0        0.000000    0.000000   -2.940000
 ---------------------------------------------------------------------

 SCF Done:  E(RHF) =  -298.808849493     A.U. after   10 cycles
 E2 =    -0.2317279113D+01 EUMP2 =    -0.30112612860539D+03
 CCSD(T)
 CCSD(T)= -0.30028801816D+03

 The electronic state is 1-SGG.
 Alpha  occ. eigenvalues --  -20.77144 -20.77143 -20.75502 -20.75501  -1.71906
 Alpha  occ. eigenvalues --   -1.71884  -1.10304  -1.10003  -0.77071  -0.76698
 Alpha  occ. eigenvalues --   -0.74543  -0.74543  -0.74126  -0.74126  -0.26566
 Alpha  occ. eigenvalues --   -0.26566
 Alpha virt. eigenvalues --   -0.14759  -0.14759   0.36489   0.47787   0.65826
 Alpha virt. eigenvalues --    0.69237   0.69237   0.70250   0.70250   0.75539
 Alpha virt. eigenvalues --    0.77440   0.81326   0.81326   0.84348   0.84348

 Mulliken charges:
               1
     1  O   -0.017356
     2  O    0.017356
     3  O    0.017356
     4  O   -0.017356
 Sum of Mulliken charges =  -0.00000

 Dipole moment (field-independent basis, Debye):
    X=             -0.0000    Y=             -0.0000    Z=             -0.0000  Tot=              0.0000
 Quadrupole moment (field-independent basis, Debye-Ang):
   XX=            -20.0961   YY=            -20.0961   ZZ=            -22.0260
   XY=              0.0000   XZ=              0.0000   YZ=              0.0000

 P4SDQ=-304.5563675\CCSD=-300.0271313\CCSD(T)=-300.2880182\RMSD=1.946e-
 Normal termination of Gaussian 16 at Fri Feb  9 20:17:00 2024.
