 Gaussian 16, Revision A.03,
 Gaussian 16:  ES64L-G16RevA.03 25-Dec-2016

 ------------------
 #p CCSD(T)/cc-pVTZ
 ------------------

 --------
 O2_O2_26
 --------
 Symbolic Z-matrix:
 Charge =  0 Multiplicity = 1

                         Standard orientation:
 ---------------------------------------------------------------------
 Center     Atomic      Atomic             Coordinates (Angstroms)
 Number     Number       Type             X           Y           Z
 ---------------------------------------------------------------------
      1          8           0       -0.870000   -0.950000    0.000000
      2          8           0        0.290000   -0.950000    0.000000
      3          8           0        0.290000    0.370000    0.000000
      4          8           0        0.290000    1.530000    0.000000
 ---------------------------------------------------------------------

 SCF Done:  E(RHF) =  -298.871666473     A.U. after   18 cycles
 E2 =    -0.9707920231D+00 EUMP2 =    -0.29984245849648D+03
 CCSD(T)
 CCSD(T)= -0.29991411852D+03

 The electronic state is 1-A'.
 Alpha  occ. eigenvalues --  -20.82408 -20.79728 -20.77061 -20.55459  -1.83177
 Alpha  occ. eigenvalues --   -1.69414  -1.27654  -1.05321  -0.89167  -0.85147
 Alpha  occ. eigenvalues --   -0.83645  -0.72238  -0.68832  -0.51918  -0.43468
 Alpha  occ. eigenvalues --   -0.39410
 Alpha virt. eigenvalues --   -0.00524   0.10754   0.43324   0.46746   0.61003
 Alpha virt. eigenvalues --    0.65390   0.68364   0.70942   0.74114   0.74828
 Alpha virt. eigenvalues --    0.82650   0.84430   0.86610   0.88399   0.89752

 Mulliken charges:
               1
     1  O   -0.383572
     2  O    0.196607
     3  O    0.220369
     4  O   -0.033404
 Sum of Mulliken charges =  -0.00000

 Dipole moment (field-independent basis, Debye):
    X=              2.2229    Y=              1.3800    Z=              0.0000  Tot=              2.6164
 Quadrupole moment (field-independent basis, Debye-Ang):
   XX=            -22.2224   YY=            -21.3633   ZZ=            -19.4722
   XY=             -1.9813   XZ=              0.0000   YZ=              0.0000

 SDQ=-299.8394763\CCSD=-299.8448829\CCSD(T)=-299.9141185\RMSD=7.537e-09
 Normal termination of Gaussian 16 at Fri Feb  9 18:06:04 2024.
