 Gaussian 16, Revision A.03,
 Gaussian 16:  ES64L-G16RevA.03 25-Dec-2016

 ------------------
 #p CCSD(T)/cc-pVTZ
 ------------------

 --------
 O2_O2_20
 --------
 Symbolic Z-matrix:
 Charge =  0 Multiplicity = 1

                         Standard orientation:
 ---------------------------------------------------------------------
 Center     Atomic      Atomic             Coordinates (Angstroms)
 Number     Number       Type             X           Y           Z
 ---------------------------------------------------------------------
      1          8           0       -0.870000   -0.910000    0.000000
      2          8           0        0.290000   -0.910000    0.000000
      3          8           0        0.290000    0.330000    0.000000
      4          8           0        0.290000    1.490000    0.000000
 ---------------------------------------------------------------------

 SCF Done:  E(RHF) =  -298.825407683     A.U. after   17 cycles
 E2 =    -0.9793581051D+00 EUMP2 =    -0.29980476578836D+03
 CCSD(T)
 CCSD(T)= -0.29985620405D+03

 The electronic state is 1-A'.
 Alpha  occ. eigenvalues --  -20.88349 -20.81659 -20.75429 -20.53231  -1.88940
 Alpha  occ. eigenvalues --   -1.69658  -1.31646  -1.06715  -0.90250  -0.89459
 Alpha  occ. eigenvalues --   -0.83976  -0.72990  -0.68548  -0.52446  -0.42181
 Alpha  occ. eigenvalues --   -0.38167
 Alpha virt. eigenvalues --   -0.01412   0.13528   0.42140   0.46942   0.59812
 Alpha virt. eigenvalues --    0.64394   0.67578   0.70486   0.74164   0.74664
 Alpha virt. eigenvalues --    0.82587   0.84680   0.87035   0.88068   0.90415

 Mulliken charges:
               1
     1  O   -0.468145
     2  O    0.267975
     3  O    0.294197
     4  O   -0.094027
 Sum of Mulliken charges =  -0.00000

 Dipole moment (field-independent basis, Debye):
    X=              2.6253    Y=              0.9252    Z=              0.0000  Tot=              2.7835
 Quadrupole moment (field-independent basis, Debye-Ang):
   XX=            -22.4123   YY=            -22.0399   ZZ=            -19.3782
   XY=             -2.5509   XZ=              0.0000   YZ=              0.0000

 DQ=-299.7943325\CCSD=-299.7926199\CCSD(T)=-299.856204\RMSD=6.382e-09\P
 Normal termination of Gaussian 16 at Fri Feb  9 17:58:50 2024.
