 Gaussian 16, Revision A.03,
 Gaussian 16:  ES64L-G16RevA.03 25-Dec-2016

 ------------------
 #p CCSD(T)/cc-pVTZ
 ------------------

 ---------
 O2_O2_199
 ---------
 Symbolic Z-matrix:
 Charge =  0 Multiplicity = 1

                         Standard orientation:
 ---------------------------------------------------------------------
 Center     Atomic      Atomic             Coordinates (Angstroms)
 Number     Number       Type             X           Y           Z
 ---------------------------------------------------------------------
      1          8           0        0.615183   -2.725183    0.000000
      2          8           0       -0.205061   -1.904939    0.000000
      3          8           0       -0.205061    1.735061   -0.000000
      4          8           0       -0.205061    2.895061   -0.000000
 ---------------------------------------------------------------------

 SCF Done:  E(RHF) =  -299.188946425     A.U. after   17 cycles
 E2 =    -0.9192583997D+00 EUMP2 =    -0.30010820482462D+03
 CCSD(T)
 CCSD(T)= -0.30015115838D+03

 The electronic state is 1-A'.
 Alpha  occ. eigenvalues --  -20.72937 -20.72845 -20.72820 -20.72728  -1.69865
 Alpha  occ. eigenvalues --   -1.69784  -1.08572  -1.08436  -0.78640  -0.78561
 Alpha  occ. eigenvalues --   -0.75252  -0.74988  -0.67391  -0.67312  -0.44801
 Alpha  occ. eigenvalues --   -0.44725
 Alpha virt. eigenvalues --    0.04970   0.05049   0.39154   0.46546   0.66768
 Alpha virt. eigenvalues --    0.70084   0.70296   0.70915   0.71419   0.75435
 Alpha virt. eigenvalues --    0.78594   0.80552   0.81851   0.85117   0.85300

 Mulliken charges:
               1
     1  O    0.000017
     2  O    0.000504
     3  O    0.000101
     4  O   -0.000623
 Sum of Mulliken charges =  -0.00000

 Dipole moment (field-independent basis, Debye):
    X=             -0.0009    Y=             -0.0173    Z=             -0.0000  Tot=              0.0173
 Quadrupole moment (field-independent basis, Debye-Ang):
   XX=            -19.6570   YY=            -21.1316   ZZ=            -19.7599
   XY=             -0.0933   XZ=             -0.0000   YZ=              0.0000

 P4DQ=-300.100978\MP4SDQ=-300.1136802\CCSD=-300.1102671\CCSD(T)=-300.15
 Normal termination of Gaussian 16 at Fri Feb  9 20:22:27 2024.
