 Gaussian 16, Revision A.03,
 Gaussian 16:  ES64L-G16RevA.03 25-Dec-2016

 ------------------
 #p CCSD(T)/cc-pVTZ
 ------------------

 --------
 O2_O2_57
 --------
 Symbolic Z-matrix:
 Charge =  0 Multiplicity = 1

                         Standard orientation:
 ---------------------------------------------------------------------
 Center     Atomic      Atomic             Coordinates (Angstroms)
 Number     Number       Type             X           Y           Z
 ---------------------------------------------------------------------
      1          8           0        0.000000    0.000000    2.040000
      2          8           0        0.000000    0.000000    0.880000
      3          8           0        0.000000    0.000000   -0.880000
      4          8           0        0.000000    0.000000   -2.040000
 ---------------------------------------------------------------------

 SCF Done:  E(RHF) =  -298.931662124     A.U. after   10 cycles
 E2 =    -0.1428445922D+01 EUMP2 =    -0.30036010804557D+03
 CCSD(T)
 CCSD(T)= -0.30016523806D+03

 The electronic state is 1-SGG.
 Alpha  occ. eigenvalues --  -20.81401 -20.81391 -20.73110 -20.73109  -1.73816
 Alpha  occ. eigenvalues --   -1.72211  -1.19586  -1.05472  -0.83580  -0.77456
 Alpha  occ. eigenvalues --   -0.77456  -0.73016  -0.73016  -0.68130  -0.33845
 Alpha  occ. eigenvalues --   -0.33845
 Alpha virt. eigenvalues --   -0.07878  -0.07878   0.45859   0.49101   0.66190
 Alpha virt. eigenvalues --    0.66190   0.71731   0.72695   0.72695   0.75918
 Alpha virt. eigenvalues --    0.80602   0.80602   0.84486   0.84631   0.96446

 Mulliken charges:
               1
     1  O   -0.111225
     2  O    0.111225
     3  O    0.111225
     4  O   -0.111225
 Sum of Mulliken charges =   0.00000

 Dipole moment (field-independent basis, Debye):
    X=             -0.0000    Y=             -0.0000    Z=             -0.0000  Tot=              0.0000
 Quadrupole moment (field-independent basis, Debye-Ang):
   XX=            -20.1912   YY=            -20.1912   ZZ=            -23.0798
   XY=              0.0000   XZ=              0.0000   YZ=              0.0000

 SDQ=-300.0438434\CCSD=-300.0396295\CCSD(T)=-300.1652381\RMSD=5.519e-09
 Normal termination of Gaussian 16 at Fri Feb  9 18:32:01 2024.
