 Gaussian 16, Revision A.03,
 Gaussian 16:  ES64L-G16RevA.03 25-Dec-2016

 ------------------
 #p CCSD(T)/cc-pVTZ
 ------------------

 --------
 O2_O2_94
 --------
 Symbolic Z-matrix:
 Charge =  0 Multiplicity = 1

                         Standard orientation:
 ---------------------------------------------------------------------
 Center     Atomic      Atomic             Coordinates (Angstroms)
 Number     Number       Type             X           Y           Z
 ---------------------------------------------------------------------
      1          8           0        0.615183   -2.025183    0.000000
      2          8           0       -0.205061   -1.204939    0.000000
      3          8           0       -0.205061    1.035061   -0.000000
      4          8           0       -0.205061    2.195061   -0.000000
 ---------------------------------------------------------------------

 SCF Done:  E(RHF) =  -299.180065519     A.U. after   19 cycles
 E2 =    -0.9235793653D+00 EUMP2 =    -0.30010364488401D+03
 CCSD(T)
 CCSD(T)= -0.30014562299D+03

 The electronic state is 1-A'.
 Alpha  occ. eigenvalues --  -20.73028 -20.72891 -20.72643 -20.72356  -1.70129
 Alpha  occ. eigenvalues --   -1.69549  -1.10579  -1.06982  -0.78850  -0.78389
 Alpha  occ. eigenvalues --   -0.77749  -0.72836  -0.67581  -0.66683  -0.45001
 Alpha  occ. eigenvalues --   -0.44526
 Alpha virt. eigenvalues --    0.04779   0.05528   0.44117   0.48767   0.65884
 Alpha virt. eigenvalues --    0.66654   0.71983   0.72844   0.73593   0.77525
 Alpha virt. eigenvalues --    0.79702   0.80354   0.81340   0.86862   0.91333

 Mulliken charges:
               1
     1  O   -0.005930
     2  O    0.004017
     3  O    0.015040
     4  O   -0.013127
 Sum of Mulliken charges =  -0.00000

 Dipole moment (field-independent basis, Debye):
    X=             -0.0430    Y=              0.0773    Z=              0.0000  Tot=              0.0885
 Quadrupole moment (field-independent basis, Debye-Ang):
   XX=            -20.4905   YY=            -20.4700   ZZ=            -19.7609
   XY=              0.7417   XZ=              0.0000   YZ=              0.0000

 4DQ=-300.0950934\MP4SDQ=-300.1079836\CCSD=-300.1043075\CCSD(T)=-300.14
 Normal termination of Gaussian 16 at Fri Feb  9 19:01:48 2024.
