 Gaussian 16, Revision A.03,
 Gaussian 16:  ES64L-G16RevA.03 25-Dec-2016

 ------------------
 #p CCSD(T)/cc-pVTZ
 ------------------

 --------
 O2_O2_41
 --------
 Symbolic Z-matrix:
 Charge =  0 Multiplicity = 1

                         Standard orientation:
 ---------------------------------------------------------------------
 Center     Atomic      Atomic             Coordinates (Angstroms)
 Number     Number       Type             X           Y           Z
 ---------------------------------------------------------------------
      1          8           0       -0.870000   -1.050000    0.000000
      2          8           0        0.290000   -1.050000    0.000000
      3          8           0        0.290000    0.470000    0.000000
      4          8           0        0.290000    1.630000    0.000000
 ---------------------------------------------------------------------

 SCF Done:  E(RHF) =  -299.004398022     A.U. after   19 cycles
 E2 =    -0.9601626332D+00 EUMP2 =    -0.29996456065509D+03
 CCSD(T)
 CCSD(T)= -0.30001927310D+03

 The electronic state is 1-A'.
 Alpha  occ. eigenvalues --  -20.75205 -20.74931 -20.74684 -20.64680  -1.75542
 Alpha  occ. eigenvalues --   -1.68331  -1.19939  -1.04944  -0.85015  -0.81550
 Alpha  occ. eigenvalues --   -0.79502  -0.72847  -0.68820  -0.53391  -0.46737
 Alpha  occ. eigenvalues --   -0.42322
 Alpha virt. eigenvalues --    0.02211   0.08010   0.43810   0.47429   0.64030
 Alpha virt. eigenvalues --    0.66856   0.69540   0.71562   0.75532   0.75609
 Alpha virt. eigenvalues --    0.81304   0.82952   0.84550   0.88675   0.89256

 Mulliken charges:
               1
     1  O   -0.147549
     2  O    0.071814
     3  O    0.083864
     4  O   -0.008129
 Sum of Mulliken charges =  -0.00000

 Dipole moment (field-independent basis, Debye):
    X=              0.9380    Y=              0.8725    Z=              0.0000  Tot=              1.2811
 Quadrupole moment (field-independent basis, Debye-Ang):
   XX=            -21.5584   YY=            -20.5677   ZZ=            -19.6057
   XY=             -0.8207   XZ=              0.0000   YZ=              0.0000

 =-299.9598058\CCSD=-299.9614128\CCSD(T)=-300.0192731\RMSD=4.940e-09\PG
 Normal termination of Gaussian 16 at Fri Feb  9 18:18:54 2024.
