 Gaussian 16, Revision A.03,
 Gaussian 16:  ES64L-G16RevA.03 25-Dec-2016

 ------------------
 #p CCSD(T)/cc-pVTZ
 ------------------

 ---------
 O2_O2_125
 ---------
 Symbolic Z-matrix:
 Charge =  0 Multiplicity = 1

                         Standard orientation:
 ---------------------------------------------------------------------
 Center     Atomic      Atomic             Coordinates (Angstroms)
 Number     Number       Type             X           Y           Z
 ---------------------------------------------------------------------
      1          8           0       -0.870000   -1.610000    0.000000
      2          8           0        0.290000   -1.610000    0.000000
      3          8           0        0.290000    1.030000    0.000000
      4          8           0        0.290000    2.190000    0.000000
 ---------------------------------------------------------------------

 SCF Done:  E(RHF) =  -299.186854450     A.U. after   24 cycles
 E2 =    -0.9208295378D+00 EUMP2 =    -0.30010768398795D+03
 CCSD(T)
 CCSD(T)= -0.30015051328D+03

 The electronic state is 1-A'.
 Alpha  occ. eigenvalues --  -20.72906 -20.72759 -20.72609 -20.72487  -1.69891
 Alpha  occ. eigenvalues --   -1.69559  -1.08778  -1.08129  -0.79181  -0.78382
 Alpha  occ. eigenvalues --   -0.75425  -0.74073  -0.67368  -0.67132  -0.44793
 Alpha  occ. eigenvalues --   -0.44535
 Alpha virt. eigenvalues --    0.04981   0.05235   0.42585   0.45642   0.66042
 Alpha virt. eigenvalues --    0.66869   0.68933   0.72751   0.72799   0.76792
 Alpha virt. eigenvalues --    0.77806   0.79745   0.82272   0.82963   0.86754

 Mulliken charges:
               1
     1  O   -0.002212
     2  O    0.003524
     3  O    0.005392
     4  O   -0.006704
 Sum of Mulliken charges =   0.00000

 Dipole moment (field-independent basis, Debye):
    X=              0.0229    Y=             -0.0348    Z=              0.0000  Tot=              0.0416
 Quadrupole moment (field-independent basis, Debye-Ang):
   XX=            -19.5707   YY=            -21.3967   ZZ=            -19.7630
   XY=             -0.0367   XZ=              0.0000   YZ=              0.0000

 DQ=-300.1128644\CCSD=-300.1094207\CCSD(T)=-300.1505133\RMSD=4.807e-09\
 Normal termination of Gaussian 16 at Fri Feb  9 19:26:31 2024.
