 Gaussian 16, Revision A.03,
 Gaussian 16:  ES64L-G16RevA.03 25-Dec-2016

 ------------------
 #p CCSD(T)/cc-pVTZ
 ------------------

 ---------
 O2_O2_200
 ---------
 Symbolic Z-matrix:
 Charge =  0 Multiplicity = 1

                         Standard orientation:
 ---------------------------------------------------------------------
 Center     Atomic      Atomic             Coordinates (Angstroms)
 Number     Number       Type             X           Y           Z
 ---------------------------------------------------------------------
      1          8           0       -0.870000   -2.110000    0.000000
      2          8           0        0.290000   -2.110000    0.000000
      3          8           0        0.290000    1.530000    0.000000
      4          8           0        0.290000    2.690000    0.000000
 ---------------------------------------------------------------------

 SCF Done:  E(RHF) =  -299.188973375     A.U. after   19 cycles
 E2 =    -0.9192553830D+00 EUMP2 =    -0.30010822875788D+03
 CCSD(T)
 CCSD(T)= -0.30015120845D+03

 The electronic state is 1-A'.
 Alpha  occ. eigenvalues --  -20.72927 -20.72834 -20.72811 -20.72716  -1.69853
 Alpha  occ. eigenvalues --   -1.69771  -1.08549  -1.08444  -0.78636  -0.78549
 Alpha  occ. eigenvalues --   -0.75203  -0.75019  -0.67381  -0.67298  -0.44798
 Alpha  occ. eigenvalues --   -0.44714
 Alpha virt. eigenvalues --    0.04975   0.05064   0.41859   0.43602   0.65485
 Alpha virt. eigenvalues --    0.69883   0.70412   0.71108   0.72595   0.76215
 Alpha virt. eigenvalues --    0.79383   0.80371   0.82331   0.83135   0.84835

 Mulliken charges:
               1
     1  O   -0.000445
     2  O    0.000745
     3  O    0.000707
     4  O   -0.001007
 Sum of Mulliken charges =  -0.00000

 Dipole moment (field-independent basis, Debye):
    X=              0.0026    Y=             -0.0160    Z=              0.0000  Tot=              0.0162
 Quadrupole moment (field-independent basis, Debye-Ang):
   XX=            -19.5555   YY=            -21.2320   ZZ=            -19.7598
   XY=             -0.0112   XZ=              0.0000   YZ=              0.0000

 SDQ=-300.1137172\CCSD=-300.1103152\CCSD(T)=-300.1512084\RMSD=6.516e-09
 Normal termination of Gaussian 16 at Fri Feb  9 20:23:17 2024.
