 Gaussian 16, Revision A.03,
 Gaussian 16:  ES64L-G16RevA.03 25-Dec-2016

 ------------------
 #p CCSD(T)/cc-pVTZ
 ------------------

 ---------
 O2_O2_250
 ---------
 Symbolic Z-matrix:
 Charge =  0 Multiplicity = 1

                         Standard orientation:
 ---------------------------------------------------------------------
 Center     Atomic      Atomic             Coordinates (Angstroms)
 Number     Number       Type             X           Y           Z
 ---------------------------------------------------------------------
      1          8           0        0.615183   -3.065183    0.000000
      2          8           0       -0.205061   -2.244939   -0.000000
      3          8           0       -0.205061    2.075061   -0.000000
      4          8           0       -0.205061    3.235061   -0.000000
 ---------------------------------------------------------------------

 SCF Done:  E(RHF) =  -299.188898595     A.U. after   17 cycles
 E2 =    -0.9190192429D+00 EUMP2 =    -0.30010791783813D+03
 CCSD(T)
 CCSD(T)= -0.30015091578D+03

 The electronic state is 1-A'.
 Alpha  occ. eigenvalues --  -20.72929 -20.72892 -20.72813 -20.72776  -1.69862
 Alpha  occ. eigenvalues --   -1.69828  -1.08550  -1.08509  -0.78638  -0.78605
 Alpha  occ. eigenvalues --   -0.75181  -0.75117  -0.67390  -0.67357  -0.44805
 Alpha  occ. eigenvalues --   -0.44772
 Alpha virt. eigenvalues --    0.04970   0.05005   0.41615   0.44809   0.69945
 Alpha virt. eigenvalues --    0.70413   0.70603   0.70611   0.71510   0.73749
 Alpha virt. eigenvalues --    0.79038   0.80613   0.82236   0.83304   0.84757

 Mulliken charges:
               1
     1  O   -0.000321
     2  O    0.000397
     3  O    0.000602
     4  O   -0.000678
 Sum of Mulliken charges =  -0.00000

 Dipole moment (field-independent basis, Debye):
    X=             -0.0008    Y=             -0.0059    Z=             -0.0000  Tot=              0.0059
 Quadrupole moment (field-independent basis, Debye-Ang):
   XX=            -19.6565   YY=            -21.1191   ZZ=            -19.7593
   XY=             -0.0969   XZ=              0.0000   YZ=              0.0000

 P4DQ=-300.100763\MP4SDQ=-300.11345\CCSD=-300.1100506\CCSD(T)=-300.1509
 Normal termination of Gaussian 16 at Fri Feb  9 20:59:37 2024.
