 Gaussian 16, Revision A.03,
 Gaussian 16:  ES64L-G16RevA.03 25-Dec-2016

 ------------------
 #p CCSD(T)/cc-pVTZ
 ------------------

 --------
 O2_O2_50
 --------
 Symbolic Z-matrix:
 Charge =  0 Multiplicity = 1

                         Standard orientation:
 ---------------------------------------------------------------------
 Center     Atomic      Atomic             Coordinates (Angstroms)
 Number     Number       Type             X           Y           Z
 ---------------------------------------------------------------------
      1          8           0       -0.870000   -1.110000    0.000000
      2          8           0        0.290000   -1.110000    0.000000
      3          8           0        0.290000    0.530000    0.000000
      4          8           0        0.290000    1.690000    0.000000
 ---------------------------------------------------------------------

 SCF Done:  E(RHF) =  -298.904728714     A.U. after   20 cycles
 E2 =    -0.1306677044D+01 EUMP2 =    -0.30021140575825D+03
 CCSD(T)
 CCSD(T)= -0.30010256565D+03

 The electronic state is 1-A'.
 Alpha  occ. eigenvalues --  -20.79980 -20.79565 -20.73681 -20.70841  -1.75633
 Alpha  occ. eigenvalues --   -1.70315  -1.18415  -1.07871  -0.84581  -0.78529
 Alpha  occ. eigenvalues --   -0.78459  -0.73984  -0.71665  -0.61711  -0.36518
 Alpha  occ. eigenvalues --   -0.34582
 Alpha virt. eigenvalues --   -0.06919  -0.03772   0.41502   0.48642   0.63945
 Alpha virt. eigenvalues --    0.66231   0.69826   0.70432   0.75039   0.76358
 Alpha virt. eigenvalues --    0.78537   0.81788   0.83106   0.87873   0.88260

 Mulliken charges:
               1
     1  O   -0.050321
     2  O    0.089230
     3  O    0.092479
     4  O   -0.131389
 Sum of Mulliken charges =  -0.00000

 Dipole moment (field-independent basis, Debye):
    X=              0.4339    Y=             -0.6202    Z=              0.0000  Tot=              0.7569
 Quadrupole moment (field-independent basis, Debye-Ang):
   XX=            -20.6514   YY=            -22.1069   ZZ=            -19.9762
   XY=             -0.5128   XZ=              0.0000   YZ=              0.0000

 DQ=-299.972963\CCSD=-299.9919292\CCSD(T)=-300.1025656\RMSD=6.288e-09\P
 Normal termination of Gaussian 16 at Fri Feb  9 18:26:26 2024.
