 Gaussian 16, Revision A.03,
 Gaussian 16:  ES64L-G16RevA.03 25-Dec-2016

 ------------------
 #p CCSD(T)/cc-pVTZ
 ------------------

 ---------
 O2_O2_291
 ---------
 Symbolic Z-matrix:
 Charge =  0 Multiplicity = 1

                         Standard orientation:
 ---------------------------------------------------------------------
 Center     Atomic      Atomic             Coordinates (Angstroms)
 Number     Number       Type             X           Y           Z
 ---------------------------------------------------------------------
      1          8           0        0.000000    0.000000    3.600000
      2          8           0        0.000000    0.000000    2.440000
      3          8           0        0.000000    0.000000   -2.440000
      4          8           0        0.000000    0.000000   -3.600000
 ---------------------------------------------------------------------

 SCF Done:  E(RHF) =  -298.778659364     A.U. after   10 cycles
 E2 =    -0.2907513985D+01 EUMP2 =    -0.30168617334897D+03
 CCSD(T)
 CCSD(T)= -0.30031494141D+03

 The electronic state is 1-SGG.
 Alpha  occ. eigenvalues --  -20.76595 -20.76595 -20.75702 -20.75702  -1.71772
 Alpha  occ. eigenvalues --   -1.71767  -1.10095  -1.10023  -0.76800  -0.76778
 Alpha  occ. eigenvalues --   -0.74325  -0.74325  -0.74144  -0.74144  -0.25080
 Alpha  occ. eigenvalues --   -0.25080
 Alpha virt. eigenvalues --   -0.16120  -0.16120   0.41957   0.43395   0.69824
 Alpha virt. eigenvalues --    0.69824   0.69854   0.69854   0.71606   0.72517
 Alpha virt. eigenvalues --    0.78010   0.78859   0.82731   0.82731   0.82817

 Mulliken charges:
               1
     1  O   -0.011126
     2  O    0.011126
     3  O    0.011126
     4  O   -0.011126
 Sum of Mulliken charges =  -0.00000

 Dipole moment (field-independent basis, Debye):
    X=             -0.0000    Y=             -0.0000    Z=             -0.0000  Tot=              0.0000
 Quadrupole moment (field-independent basis, Debye-Ang):
   XX=            -20.0732   YY=            -20.0732   ZZ=            -21.9557
   XY=              0.0000   XZ=              0.0000   YZ=              0.0000

 P4SDQ=-318.6826547\CCSD=-300.0240774\CCSD(T)=-300.3149414\RMSD=1.714e-
 Normal termination of Gaussian 16 at Fri Feb  9 21:30:24 2024.
