 Gaussian 16, Revision A.03,
 Gaussian 16:  ES64L-G16RevA.03 25-Dec-2016

 ------------------
 #p CCSD(T)/cc-pVTZ
 ------------------

 --------
 O2_O2_48
 --------
 Symbolic Z-matrix:
 Charge =  0 Multiplicity = 1

                         Standard orientation:
 ---------------------------------------------------------------------
 Center     Atomic      Atomic             Coordinates (Angstroms)
 Number     Number       Type             X           Y           Z
 ---------------------------------------------------------------------
      1          8           0        0.000000    0.000000    1.980000
      2          8           0        0.000000    0.000000    0.820000
      3          8           0        0.000000    0.000000   -0.820000
      4          8           0        0.000000    0.000000   -1.980000
 ---------------------------------------------------------------------

 SCF Done:  E(RHF) =  -298.925484839     A.U. after   10 cycles
 E2 =    -0.1376170718D+01 EUMP2 =    -0.30030165555701D+03
 CCSD(T)
 CCSD(T)= -0.30013947260D+03

 The electronic state is 1-SGG.
 Alpha  occ. eigenvalues --  -20.81790 -20.81776 -20.72256 -20.72255  -1.74316
 Alpha  occ. eigenvalues --   -1.71956  -1.22957  -1.04091  -0.84463  -0.78288
 Alpha  occ. eigenvalues --   -0.78288  -0.72515  -0.72515  -0.64872  -0.34994
 Alpha  occ. eigenvalues --   -0.34994
 Alpha virt. eigenvalues --   -0.06526  -0.06526   0.46102   0.49315   0.66374
 Alpha virt. eigenvalues --    0.66374   0.70586   0.73019   0.73019   0.74950
 Alpha virt. eigenvalues --    0.81562   0.81562   0.84139   0.85638   0.98738

 Mulliken charges:
               1
     1  O   -0.129808
     2  O    0.129808
     3  O    0.129808
     4  O   -0.129808
 Sum of Mulliken charges =  -0.00000

 Dipole moment (field-independent basis, Debye):
    X=             -0.0000    Y=             -0.0000    Z=              0.0000  Tot=              0.0000
 Quadrupole moment (field-independent basis, Debye-Ang):
   XX=            -20.1415   YY=            -20.1415   ZZ=            -23.6256
   XY=              0.0000   XZ=              0.0000   YZ=              0.0000

 SDQ=-300.0274633\CCSD=-300.0233238\CCSD(T)=-300.1394726\RMSD=6.869e-09
 Normal termination of Gaussian 16 at Fri Feb  9 18:24:22 2024.
