 Gaussian 16, Revision A.03,
 Gaussian 16:  ES64L-G16RevA.03 25-Dec-2016

 ------------------
 #p CCSD(T)/cc-pVTZ
 ------------------

 ---------
 O2_O2_186
 ---------
 Symbolic Z-matrix:
 Charge =  0 Multiplicity = 1

                         Standard orientation:
 ---------------------------------------------------------------------
 Center     Atomic      Atomic             Coordinates (Angstroms)
 Number     Number       Type             X           Y           Z
 ---------------------------------------------------------------------
      1          8           0        0.000000    0.000000    2.900000
      2          8           0        0.000000    0.000000    1.740000
      3          8           0        0.000000    0.000000   -1.740000
      4          8           0        0.000000    0.000000   -2.900000
 ---------------------------------------------------------------------

 SCF Done:  E(RHF) =  -298.811687939     A.U. after   10 cycles
 E2 =    -0.2279754134D+01 EUMP2 =    -0.30109144207280D+03
 CCSD(T)
 CCSD(T)= -0.30028543095D+03

 The electronic state is 1-SGG.
 Alpha  occ. eigenvalues --  -20.77219 -20.77218 -20.75490 -20.75490  -1.71930
 Alpha  occ. eigenvalues --   -1.71905  -1.10342  -1.09999  -0.77123  -0.76681
 Alpha  occ. eigenvalues --   -0.74574  -0.74574  -0.74130  -0.74130  -0.26702
 Alpha  occ. eigenvalues --   -0.26702
 Alpha virt. eigenvalues --   -0.14645  -0.14645   0.36391   0.48016   0.65528
 Alpha virt. eigenvalues --    0.69116   0.69116   0.70318   0.70318   0.75650
 Alpha virt. eigenvalues --    0.77546   0.81097   0.81097   0.84638   0.84638

 Mulliken charges:
               1
     1  O   -0.017934
     2  O    0.017934
     3  O    0.017934
     4  O   -0.017934
 Sum of Mulliken charges =  -0.00000

 Dipole moment (field-independent basis, Debye):
    X=             -0.0000    Y=              0.0000    Z=              0.0000  Tot=              0.0000
 Quadrupole moment (field-independent basis, Debye-Ang):
   XX=            -20.1001   YY=            -20.1001   ZZ=            -22.0208
   XY=              0.0000   XZ=              0.0000   YZ=              0.0000

 P4SDQ=-304.0572474\CCSD=-300.027504\CCSD(T)=-300.2854309\RMSD=1.980e-0
 Normal termination of Gaussian 16 at Fri Feb  9 20:12:38 2024.
