 Gaussian 16, Revision A.03,
 Gaussian 16:  ES64L-G16RevA.03 25-Dec-2016

 ------------------
 #p CCSD(T)/cc-pVTZ
 ------------------

 ---------
 O2_O2_106
 ---------
 Symbolic Z-matrix:
 Charge =  0 Multiplicity = 1

                         Standard orientation:
 ---------------------------------------------------------------------
 Center     Atomic      Atomic             Coordinates (Angstroms)
 Number     Number       Type             X           Y           Z
 ---------------------------------------------------------------------
      1          8           0        0.615183   -2.105183    0.000000
      2          8           0       -0.205061   -1.284939    0.000000
      3          8           0       -0.205061    1.115061    0.000000
      4          8           0       -0.205061    2.275061    0.000000
 ---------------------------------------------------------------------

 SCF Done:  E(RHF) =  -299.184545378     A.U. after   18 cycles
 E2 =    -0.9221085601D+00 EUMP2 =    -0.30010665393770D+03
 CCSD(T)
 CCSD(T)= -0.30014897671D+03

 The electronic state is 1-A'.
 Alpha  occ. eigenvalues --  -20.73046 -20.72922 -20.72705 -20.72519  -1.70065
 Alpha  occ. eigenvalues --   -1.69637  -1.09886  -1.07465  -0.78812  -0.78445
 Alpha  occ. eigenvalues --   -0.77047  -0.73458  -0.67553  -0.66969  -0.44977
 Alpha  occ. eigenvalues --   -0.44599
 Alpha virt. eigenvalues --    0.04798   0.05351   0.43339   0.48487   0.66204
 Alpha virt. eigenvalues --    0.66857   0.70549   0.72578   0.73260   0.77359
 Alpha virt. eigenvalues --    0.79468   0.80240   0.81393   0.86836   0.88808

 Mulliken charges:
               1
     1  O   -0.003540
     2  O    0.002589
     3  O    0.009371
     4  O   -0.008421
 Sum of Mulliken charges =  -0.00000

 Dipole moment (field-independent basis, Debye):
    X=             -0.0299    Y=              0.0562    Z=             -0.0000  Tot=              0.0637
 Quadrupole moment (field-independent basis, Debye-Ang):
   XX=            -20.4819   YY=            -20.3863   ZZ=            -19.7618
   XY=              0.7254   XZ=              0.0000   YZ=              0.0000

 -300.0985868\MP4SDQ=-300.1113988\CCSD=-300.1078125\CCSD(T)=-300.148976
 Normal termination of Gaussian 16 at Fri Feb  9 19:12:14 2024.
