 Gaussian 16, Revision A.03,
 Gaussian 16:  ES64L-G16RevA.03 25-Dec-2016

 ------------------
 #p CCSD(T)/cc-pVTZ
 ------------------

 ---------
 O2_O2_275
 ---------
 Symbolic Z-matrix:
 Charge =  0 Multiplicity = 1

                         Standard orientation:
 ---------------------------------------------------------------------
 Center     Atomic      Atomic             Coordinates (Angstroms)
 Number     Number       Type             X           Y           Z
 ---------------------------------------------------------------------
      1          8           0       -0.870000   -2.610000    0.000000
      2          8           0        0.290000   -2.610000    0.000000
      3          8           0        0.290000    2.030000    0.000000
      4          8           0        0.290000    3.190000    0.000000
 ---------------------------------------------------------------------

 SCF Done:  E(RHF) =  -299.188880191     A.U. after   18 cycles
 E2 =    -0.9189763987D+00 EUMP2 =    -0.30010785658962D+03
 CCSD(T)
 CCSD(T)= -0.30015086957D+03

 The electronic state is 1-A'.
 Alpha  occ. eigenvalues --  -20.72928 -20.72893 -20.72812 -20.72776  -1.69860
 Alpha  occ. eigenvalues --   -1.69828  -1.08550  -1.08512  -0.78636  -0.78605
 Alpha  occ. eigenvalues --   -0.75172  -0.75130  -0.67389  -0.67356  -0.44806
 Alpha  occ. eigenvalues --   -0.44772
 Alpha virt. eigenvalues --    0.04968   0.05005   0.43195   0.43410   0.70079
 Alpha virt. eigenvalues --    0.70434   0.70594   0.70616   0.72555   0.72912
 Alpha virt. eigenvalues --    0.79894   0.80055   0.82255   0.82283   0.84730

 Mulliken charges:
               1
     1  O   -0.000217
     2  O    0.000232
     3  O    0.000676
     4  O   -0.000691
 Sum of Mulliken charges =   0.00000

 Dipole moment (field-independent basis, Debye):
    X=              0.0012    Y=             -0.0053    Z=              0.0000  Tot=              0.0055
 Quadrupole moment (field-independent basis, Debye-Ang):
   XX=            -19.5530   YY=            -21.2148   ZZ=            -19.7591
   XY=             -0.0057   XZ=              0.0000   YZ=              0.0000

 SDQ=-300.1134019\CCSD=-300.1100083\CCSD(T)=-300.1508696\RMSD=6.984e-09
 Normal termination of Gaussian 16 at Fri Feb  9 21:19:29 2024.
