 Gaussian 16, Revision A.03,
 Gaussian 16:  ES64L-G16RevA.03 25-Dec-2016

 ------------------
 #p CCSD(T)/cc-pVTZ
 ------------------

 ---------
 O2_O2_273
 ---------
 Symbolic Z-matrix:
 Charge =  0 Multiplicity = 1

                         Standard orientation:
 ---------------------------------------------------------------------
 Center     Atomic      Atomic             Coordinates (Angstroms)
 Number     Number       Type             X           Y           Z
 ---------------------------------------------------------------------
      1          8           0        0.000000    0.000000    3.480000
      2          8           0        0.000000    0.000000    2.320000
      3          8           0        0.000000    0.000000   -2.320000
      4          8           0        0.000000    0.000000   -3.480000
 ---------------------------------------------------------------------

 SCF Done:  E(RHF) =  -298.782660581     A.U. after   10 cycles
 E2 =    -0.2802741803D+01 EUMP2 =    -0.30158540238405D+03
 CCSD(T)
 CCSD(T)= -0.30031142323D+03

 The electronic state is 1-SGG.
 Alpha  occ. eigenvalues --  -20.76642 -20.76641 -20.75667 -20.75667  -1.71776
 Alpha  occ. eigenvalues --   -1.71771  -1.10104  -1.10018  -0.76811  -0.76773
 Alpha  occ. eigenvalues --   -0.74341  -0.74341  -0.74135  -0.74135  -0.25278
 Alpha  occ. eigenvalues --   -0.25278
 Alpha virt. eigenvalues --   -0.15924  -0.15924   0.41374   0.43903   0.69807
 Alpha virt. eigenvalues --    0.69807   0.69868   0.69868   0.71140   0.72883
 Alpha virt. eigenvalues --    0.77766   0.79276   0.82681   0.82681   0.82867

 Mulliken charges:
               1
     1  O   -0.012093
     2  O    0.012093
     3  O    0.012093
     4  O   -0.012093
 Sum of Mulliken charges =  -0.00000

 Dipole moment (field-independent basis, Debye):
    X=             -0.0000    Y=             -0.0000    Z=              0.0000  Tot=              0.0000
 Quadrupole moment (field-independent basis, Debye-Ang):
   XX=            -20.0740   YY=            -20.0740   ZZ=            -21.9783
   XY=              0.0000   XZ=              0.0000   YZ=              0.0000

 4SDQ=-315.1874962\CCSD=-300.0243893\CCSD(T)=-300.3114232\RMSD=1.730e-0
 Normal termination of Gaussian 16 at Fri Feb  9 21:17:58 2024.
