 Gaussian 16, Revision A.03,
 Gaussian 16:  ES64L-G16RevA.03 25-Dec-2016

 ------------------
 #p CCSD(T)/cc-pVTZ
 ------------------

 ---------
 O2_O2_196
 ---------
 Symbolic Z-matrix:
 Charge =  0 Multiplicity = 1

                         Standard orientation:
 ---------------------------------------------------------------------
 Center     Atomic      Atomic             Coordinates (Angstroms)
 Number     Number       Type             X           Y           Z
 ---------------------------------------------------------------------
      1          8           0        0.615183   -2.705183    0.000000
      2          8           0       -0.205061   -1.884939    0.000000
      3          8           0       -0.205061    1.715061   -0.000000
      4          8           0       -0.205061    2.875061   -0.000000
 ---------------------------------------------------------------------

 SCF Done:  E(RHF) =  -299.188942388     A.U. after   16 cycles
 E2 =    -0.9192812200D+00 EUMP2 =    -0.30010822360762D+03
 CCSD(T)
 CCSD(T)= -0.30015117387D+03

 The electronic state is 1-A'.
 Alpha  occ. eigenvalues --  -20.72937 -20.72841 -20.72819 -20.72724  -1.69865
 Alpha  occ. eigenvalues --   -1.69780  -1.08575  -1.08428  -0.78640  -0.78557
 Alpha  occ. eigenvalues --   -0.75261  -0.74974  -0.67390  -0.67308  -0.44800
 Alpha  occ. eigenvalues --   -0.44721
 Alpha virt. eigenvalues --    0.04971   0.05053   0.39058   0.46631   0.66573
 Alpha virt. eigenvalues --    0.70041   0.70248   0.70948   0.71456   0.75518
 Alpha virt. eigenvalues --    0.78615   0.80524   0.81789   0.85172   0.85387

 Mulliken charges:
               1
     1  O    0.000038
     2  O    0.000521
     3  O    0.000048
     4  O   -0.000607
 Sum of Mulliken charges =  -0.00000

 Dipole moment (field-independent basis, Debye):
    X=             -0.0009    Y=             -0.0181    Z=             -0.0000  Tot=              0.0181
 Quadrupole moment (field-independent basis, Debye-Ang):
   XX=            -19.6570   YY=            -21.1335   ZZ=            -19.7600
   XY=             -0.0929   XZ=             -0.0000   YZ=              0.0000

 P4DQ=-300.1009904\MP4SDQ=-300.1136942\CCSD=-300.1102799\CCSD(T)=-300.1
 Normal termination of Gaussian 16 at Fri Feb  9 20:20:07 2024.
