 Gaussian 16, Revision A.03,
 Gaussian 16:  ES64L-G16RevA.03 25-Dec-2016

 ------------------
 #p CCSD(T)/cc-pVTZ
 ------------------

 ---------
 O2_O2_295
 ---------
 Symbolic Z-matrix:
 Charge =  0 Multiplicity = 1

                         Standard orientation:
 ---------------------------------------------------------------------
 Center     Atomic      Atomic             Coordinates (Angstroms)
 Number     Number       Type             X           Y           Z
 ---------------------------------------------------------------------
      1          8           0        0.615183   -3.365183   -0.000000
      2          8           0       -0.205061   -2.544939    0.000000
      3          8           0       -0.205061    2.375061    0.000000
      4          8           0       -0.205061    3.535061    0.000000
 ---------------------------------------------------------------------

 SCF Done:  E(RHF) =  -299.188869725     A.U. after   17 cycles
 E2 =    -0.9189552398D+00 EUMP2 =    -0.30010782496439D+03
 CCSD(T)
 CCSD(T)= -0.30015083830D+03

 The electronic state is 1-A'.
 Alpha  occ. eigenvalues --  -20.72932 -20.72913 -20.72816 -20.72797  -1.69866
 Alpha  occ. eigenvalues --   -1.69849  -1.08554  -1.08533  -0.78643  -0.78625
 Alpha  occ. eigenvalues --   -0.75175  -0.75152  -0.67395  -0.67377  -0.44811
 Alpha  occ. eigenvalues --   -0.44793
 Alpha virt. eigenvalues --    0.04964   0.04983   0.42867   0.43744   0.70395
 Alpha virt. eigenvalues --    0.70427   0.70576   0.70591   0.72302   0.72846
 Alpha virt. eigenvalues --    0.79699   0.80193   0.82235   0.82280   0.84727

 Mulliken charges:
               1
     1  O   -0.000277
     2  O    0.000282
     3  O    0.000467
     4  O   -0.000472
 Sum of Mulliken charges =  -0.00000

 Dipole moment (field-independent basis, Debye):
    X=             -0.0007    Y=             -0.0025    Z=             -0.0000  Tot=              0.0026
 Quadrupole moment (field-independent basis, Debye-Ang):
   XX=            -19.6560   YY=            -21.1104   ZZ=            -19.7590
   XY=             -0.0986   XZ=             -0.0000   YZ=              0.0000

 DQ=-300.1006905\MP4SDQ=-300.1133748\CCSD=-300.1099793\CCSD(T)=-300.150
 Normal termination of Gaussian 16 at Fri Feb  9 21:33:13 2024.
