 Gaussian 16, Revision A.03,
 Gaussian 16:  ES64L-G16RevA.03 25-Dec-2016

 ------------------
 #p CCSD(T)/cc-pVTZ
 ------------------

 ---------
 O2_O2_178
 ---------
 Symbolic Z-matrix:
 Charge =  0 Multiplicity = 1

                         Standard orientation:
 ---------------------------------------------------------------------
 Center     Atomic      Atomic             Coordinates (Angstroms)
 Number     Number       Type             X           Y           Z
 ---------------------------------------------------------------------
      1          8           0        0.615183   -2.585183    0.000000
      2          8           0       -0.205061   -1.764939    0.000000
      3          8           0       -0.205061    1.595061   -0.000000
      4          8           0       -0.205061    2.755061   -0.000000
 ---------------------------------------------------------------------

 SCF Done:  E(RHF) =  -299.188867712     A.U. after   18 cycles
 E2 =    -0.9194451168D+00 EUMP2 =    -0.30010831282879D+03
 CCSD(T)
 CCSD(T)= -0.30015124330D+03

 The electronic state is 1-A'.
 Alpha  occ. eigenvalues --  -20.72928 -20.72812 -20.72811 -20.72695  -1.69858
 Alpha  occ. eigenvalues --   -1.69755  -1.08604  -1.08365  -0.78639  -0.78531
 Alpha  occ. eigenvalues --   -0.75334  -0.74858  -0.67383  -0.67283  -0.44791
 Alpha  occ. eigenvalues --   -0.44694
 Alpha virt. eigenvalues --    0.04978   0.05076   0.38854   0.47063   0.65685
 Alpha virt. eigenvalues --    0.69694   0.69852   0.71193   0.71754   0.75947
 Alpha virt. eigenvalues --    0.78866   0.80309   0.81305   0.85649   0.86131

 Mulliken charges:
               1
     1  O    0.000031
     2  O    0.000736
     3  O   -0.000134
     4  O   -0.000632
 Sum of Mulliken charges =  -0.00000

 Dipole moment (field-independent basis, Debye):
    X=             -0.0014    Y=             -0.0221    Z=             -0.0000  Tot=              0.0221
 Quadrupole moment (field-independent basis, Debye-Ang):
   XX=            -19.6576   YY=            -21.1511   ZZ=            -19.7603
   XY=             -0.0898   XZ=             -0.0000   YZ=              0.0000

 P4DQ=-300.101036\MP4SDQ=-300.1137509\CCSD=-300.1103282\CCSD(T)=-300.15
 Normal termination of Gaussian 16 at Fri Feb  9 20:06:51 2024.
