 Gaussian 16, Revision A.03,
 Gaussian 16:  ES64L-G16RevA.03 25-Dec-2016

 ------------------
 #p CCSD(T)/cc-pVTZ
 ------------------

 --------
 O2_O2_75
 --------
 Symbolic Z-matrix:
 Charge =  0 Multiplicity = 1

                         Standard orientation:
 ---------------------------------------------------------------------
 Center     Atomic      Atomic             Coordinates (Angstroms)
 Number     Number       Type             X           Y           Z
 ---------------------------------------------------------------------
      1          8           0        0.000000    0.000000    2.160000
      2          8           0        0.000000    0.000000    1.000000
      3          8           0        0.000000    0.000000   -1.000000
      4          8           0        0.000000    0.000000   -2.160000
 ---------------------------------------------------------------------

 SCF Done:  E(RHF) =  -298.918545662     A.U. after   10 cycles
 E2 =    -0.1542781163D+01 EUMP2 =    -0.30046132682559D+03
 CCSD(T)
 CCSD(T)= -0.30019508696D+03

 The electronic state is 1-SGG.
 Alpha  occ. eigenvalues --  -20.80627 -20.80621 -20.74232 -20.74232  -1.73241
 Alpha  occ. eigenvalues --   -1.72457  -1.15377  -1.07482  -0.81760  -0.76443
 Alpha  occ. eigenvalues --   -0.76443  -0.73664  -0.73664  -0.72163  -0.31983
 Alpha  occ. eigenvalues --   -0.31983
 Alpha virt. eigenvalues --   -0.09938  -0.09938   0.45016   0.48952   0.65757
 Alpha virt. eigenvalues --    0.65757   0.72202   0.72202   0.72377   0.76436
 Alpha virt. eigenvalues --    0.79188   0.79188   0.84017   0.85439   0.90582

 Mulliken charges:
               1
     1  O   -0.083527
     2  O    0.083527
     3  O    0.083527
     4  O   -0.083527
 Sum of Mulliken charges =   0.00000

 Dipole moment (field-independent basis, Debye):
    X=             -0.0000    Y=             -0.0000    Z=              0.0000  Tot=              0.0000
 Quadrupole moment (field-independent basis, Debye-Ang):
   XX=            -20.2309   YY=            -20.2309   ZZ=            -22.3786
   XY=              0.0000   XZ=              0.0000   YZ=              0.0000

 DQ=-300.0917973\CCSD=-300.0476221\CCSD(T)=-300.195087\RMSD=3.762e-09\P
 Normal termination of Gaussian 16 at Fri Feb  9 18:46:09 2024.
