 Gaussian 16, Revision A.03,
 Gaussian 16:  ES64L-G16RevA.03 25-Dec-2016

 ------------------
 #p CCSD(T)/cc-pVTZ
 ------------------

 ---------
 O2_O2_228
 ---------
 Symbolic Z-matrix:
 Charge =  0 Multiplicity = 1

                         Standard orientation:
 ---------------------------------------------------------------------
 Center     Atomic      Atomic             Coordinates (Angstroms)
 Number     Number       Type             X           Y           Z
 ---------------------------------------------------------------------
      1          8           0        0.000000    0.000000    3.180000
      2          8           0        0.000000    0.000000    2.020000
      3          8           0        0.000000    0.000000   -2.020000
      4          8           0        0.000000    0.000000   -3.180000
 ---------------------------------------------------------------------

 SCF Done:  E(RHF) =  -298.795008755     A.U. after   10 cycles
 E2 =    -0.2537014458D+01 EUMP2 =    -0.30133202321331D+03
 CCSD(T)
 CCSD(T)= -0.30030048592D+03

 The electronic state is 1-SGG.
 Alpha  occ. eigenvalues --  -20.76833 -20.76832 -20.75574 -20.75573  -1.71814
 Alpha  occ. eigenvalues --   -1.71803  -1.10165  -1.10011  -0.76886  -0.76750
 Alpha  occ. eigenvalues --   -0.74414  -0.74414  -0.74119  -0.74119  -0.25889
 Alpha  occ. eigenvalues --   -0.25889
 Alpha virt. eigenvalues --   -0.15347  -0.15347   0.38612   0.45995   0.68464
 Alpha virt. eigenvalues --    0.69659   0.69659   0.69981   0.69981   0.74460
 Alpha virt. eigenvalues --    0.77228   0.82273   0.82273   0.82399   0.83281

 Mulliken charges:
               1
     1  O   -0.014857
     2  O    0.014857
     3  O    0.014857
     4  O   -0.014857
 Sum of Mulliken charges =  -0.00000

 Dipole moment (field-independent basis, Debye):
    X=             -0.0000    Y=             -0.0000    Z=             -0.0000  Tot=              0.0000
 Quadrupole moment (field-independent basis, Debye-Ang):
   XX=            -20.0807   YY=            -20.0807   ZZ=            -22.0241
   XY=              0.0000   XZ=              0.0000   YZ=              0.0000

 SDQ=-308.3360575\CCSD=-300.0255155\CCSD(T)=-300.3004859\RMSD=1.774e-09
 Normal termination of Gaussian 16 at Fri Feb  9 20:43:43 2024.
