 Gaussian 16, Revision A.03,
 Gaussian 16:  ES64L-G16RevA.03 25-Dec-2016

 ------------------
 #p CCSD(T)/cc-pVTZ
 ------------------

 ---------
 O2_O2_154
 ---------
 Symbolic Z-matrix:
 Charge =  0 Multiplicity = 1

                         Standard orientation:
 ---------------------------------------------------------------------
 Center     Atomic      Atomic             Coordinates (Angstroms)
 Number     Number       Type             X           Y           Z
 ---------------------------------------------------------------------
      1          8           0        0.615183   -2.425183    0.000000
      2          8           0       -0.205061   -1.604939    0.000000
      3          8           0       -0.205061    1.435062   -0.000000
      4          8           0       -0.205061    2.595060   -0.000000
 ---------------------------------------------------------------------

 SCF Done:  E(RHF) =  -299.188475892     A.U. after   22 cycles
 E2 =    -0.9197694356D+00 EUMP2 =    -0.30010824532718D+03
 CCSD(T)
 CCSD(T)= -0.30015114271D+03

 The electronic state is 1-A'.
 Alpha  occ. eigenvalues --  -20.72887 -20.72771 -20.72758 -20.72640  -1.69831
 Alpha  occ. eigenvalues --   -1.69710  -1.08701  -1.08207  -0.78639  -0.78487
 Alpha  occ. eigenvalues --   -0.75515  -0.74579  -0.67355  -0.67240  -0.44760
 Alpha  occ. eigenvalues --   -0.44646
 Alpha virt. eigenvalues --    0.05002   0.05111   0.39762   0.47494   0.65597
 Alpha virt. eigenvalues --    0.68943   0.69014   0.71621   0.72321   0.76377
 Alpha virt. eigenvalues --    0.79533   0.80016   0.80481   0.86383   0.87143

 Mulliken charges:
               1
     1  O   -0.000620
     2  O    0.001543
     3  O    0.000706
     4  O   -0.001629
 Sum of Mulliken charges =  -0.00000

 Dipole moment (field-independent basis, Debye):
    X=             -0.0029    Y=             -0.0233    Z=             -0.0000  Tot=              0.0234
 Quadrupole moment (field-independent basis, Debye-Ang):
   XX=            -19.6604   YY=            -21.1983   ZZ=            -19.7611
   XY=             -0.0826   XZ=             -0.0000   YZ=              0.0000

 P4DQ=-300.100887\MP4SDQ=-300.1136218\CCSD=-300.1101831\CCSD(T)=-300.15
 Normal termination of Gaussian 16 at Fri Feb  9 19:47:59 2024.
