 Gaussian 16, Revision A.03,
 Gaussian 16:  ES64L-G16RevA.03 25-Dec-2016

 ------------------
 #p CCSD(T)/cc-pVTZ
 ------------------

 ---------
 O2_O2_231
 ---------
 Symbolic Z-matrix:
 Charge =  0 Multiplicity = 1

                         Standard orientation:
 ---------------------------------------------------------------------
 Center     Atomic      Atomic             Coordinates (Angstroms)
 Number     Number       Type             X           Y           Z
 ---------------------------------------------------------------------
      1          8           0        0.000000    0.000000    3.200000
      2          8           0        0.000000    0.000000    2.040000
      3          8           0        0.000000    0.000000   -2.040000
      4          8           0        0.000000    0.000000   -3.200000
 ---------------------------------------------------------------------

 SCF Done:  E(RHF) =  -298.794048324     A.U. after   10 cycles
 E2 =    -0.2554976288D+01 EUMP2 =    -0.30134902461215D+03
 CCSD(T)
 CCSD(T)= -0.30030134691D+03

 The electronic state is 1-SGG.
 Alpha  occ. eigenvalues --  -20.76815 -20.76814 -20.75580 -20.75580  -1.71810
 Alpha  occ. eigenvalues --   -1.71799  -1.10158  -1.10011  -0.76877  -0.76752
 Alpha  occ. eigenvalues --   -0.74407  -0.74407  -0.74119  -0.74119  -0.25841
 Alpha  occ. eigenvalues --   -0.25841
 Alpha virt. eigenvalues --   -0.15390  -0.15390   0.38839   0.45833   0.68702
 Alpha virt. eigenvalues --    0.69677   0.69677   0.69967   0.69967   0.74345
 Alpha virt. eigenvalues --    0.77242   0.82040   0.82321   0.82321   0.83231

 Mulliken charges:
               1
     1  O   -0.014667
     2  O    0.014667
     3  O    0.014667
     4  O   -0.014667
 Sum of Mulliken charges =   0.00000

 Dipole moment (field-independent basis, Debye):
    X=             -0.0000    Y=              0.0000    Z=              0.0000  Tot=              0.0000
 Quadrupole moment (field-independent basis, Debye-Ang):
   XX=            -20.0799   YY=            -20.0799   ZZ=            -22.0220
   XY=              0.0000   XZ=              0.0000   YZ=              0.0000

 P4SDQ=-308.7154761\CCSD=-300.0254199\CCSD(T)=-300.3013469\RMSD=1.764e-
 Normal termination of Gaussian 16 at Fri Feb  9 20:45:56 2024.
