 Gaussian 16, Revision A.03,
 Gaussian 16:  ES64L-G16RevA.03 25-Dec-2016

 ------------------
 #p CCSD(T)/cc-pVTZ
 ------------------

 ----
 H2_0
 ----
 Symbolic Z-matrix:
 Charge =  0 Multiplicity = 1

                         Standard orientation:
 ---------------------------------------------------------------------
 Center     Atomic      Atomic             Coordinates (Angstroms)
 Number     Number       Type             X           Y           Z
 ---------------------------------------------------------------------
      1          1           0        0.000000    0.000000    0.250000
      2          1           0        0.000000    0.000000   -0.250000
 ---------------------------------------------------------------------

 SCF Done:  E(RHF) =  -1.06330677086     A.U. after    6 cycles
 E2 =    -0.3114163108D-01 EUMP2 =    -0.10944484019360D+01
 CCSD(T)
 CCSD(T)= -0.11008696848D+01

 The electronic state is 1-SGG.
 Alpha  occ. eigenvalues --   -0.68139
 Alpha virt. eigenvalues --    0.19175   0.28205   0.70137   0.72438   0.72438
 Alpha virt. eigenvalues --    1.13803   1.13803   1.14167   1.59281   2.22925
 Alpha virt. eigenvalues --    2.90041   3.25493   3.25493   3.51868   3.51868

 Mulliken charges:
               1
     1  H   -0.000000
     2  H   -0.000000
 Sum of Mulliken charges =  -0.00000

 Dipole moment (field-independent basis, Debye):
    X=             -0.0000    Y=              0.0000    Z=              0.0000  Tot=              0.0000
 Quadrupole moment (field-independent basis, Debye-Ang):
   XX=             -1.7001   YY=             -1.7001   ZZ=             -1.4024
   XY=             -0.0000   XZ=             -0.0000   YZ=              0.0000

 7825\MP4DQ=-1.100538\MP4SDQ=-1.1005594\CCSD=-1.1008697\CCSD(T)=-1.1008
 Normal termination of Gaussian 16 at Tue Feb 13 16:23:54 2024.
