 Gaussian 16, Revision A.03,
 Gaussian 16:  ES64L-G16RevA.03 25-Dec-2016

 ------------------
 #p CCSD(T)/cc-pVTZ
 ------------------

 -----
 H2_11
 -----
 Symbolic Z-matrix:
 Charge =  0 Multiplicity = 1

                         Standard orientation:
 ---------------------------------------------------------------------
 Center     Atomic      Atomic             Coordinates (Angstroms)
 Number     Number       Type             X           Y           Z
 ---------------------------------------------------------------------
      1          1           0        0.000000    0.000000    0.415000
      2          1           0        0.000000    0.000000   -0.415000
 ---------------------------------------------------------------------

 SCF Done:  E(RHF) =  -1.12758291711     A.U. after    6 cycles
 E2 =    -0.3207365766D-01 EUMP2 =    -0.11596565747776D+01
 CCSD(T)
 CCSD(T)= -0.11681245192D+01

 The electronic state is 1-SGG.
 Alpha  occ. eigenvalues --   -0.56849
 Alpha virt. eigenvalues --    0.15377   0.31327   0.60846   0.68371   0.68371
 Alpha virt. eigenvalues --    1.06970   1.10310   1.10310   1.50539   2.38470
 Alpha virt. eigenvalues --    2.45077   3.17226   3.17226   3.35423   3.35423

 Mulliken charges:
               1
     1  H   -0.000000
     2  H   -0.000000
 Sum of Mulliken charges =  -0.00000

 Dipole moment (field-independent basis, Debye):
    X=             -0.0000    Y=              0.0000    Z=              0.0000  Tot=              0.0000
 Quadrupole moment (field-independent basis, Debye-Ang):
   XX=             -2.2314   YY=             -2.2314   ZZ=             -1.4743
   XY=             -0.0000   XZ=             -0.0000   YZ=              0.0000

 675777\MP4DQ=-1.1672173\MP4SDQ=-1.1673235\CCSD=-1.1681245\CCSD(T)=-1.1
 Normal termination of Gaussian 16 at Tue Feb 13 16:24:06 2024.
