 Gaussian 16, Revision A.03,
 Gaussian 16:  ES64L-G16RevA.03 25-Dec-2016

 ------------------
 #p CCSD(T)/cc-pVTZ
 ------------------

 -----
 H2_13
 -----
 Symbolic Z-matrix:
 Charge =  0 Multiplicity = 1

                         Standard orientation:
 ---------------------------------------------------------------------
 Center     Atomic      Atomic             Coordinates (Angstroms)
 Number     Number       Type             X           Y           Z
 ---------------------------------------------------------------------
      1          1           0        0.000000    0.000000    0.445000
      2          1           0        0.000000    0.000000   -0.445000
 ---------------------------------------------------------------------

 SCF Done:  E(RHF) =  -1.12017009368     A.U. after    6 cycles
 E2 =    -0.3241139692D-01 EUMP2 =    -0.11525814905999D+01
 CCSD(T)
 CCSD(T)= -0.11616795130D+01

 The electronic state is 1-SGG.
 Alpha  occ. eigenvalues --   -0.55259
 Alpha virt. eigenvalues --    0.14391   0.31866   0.58535   0.67870   0.67870
 Alpha virt. eigenvalues --    1.04913   1.08978   1.08978   1.49409   2.45502
 Alpha virt. eigenvalues --    2.47727   3.17892   3.17892   3.31000   3.31000

 Mulliken charges:
               1
     1  H    0.000000
     2  H    0.000000
 Sum of Mulliken charges =   0.00000

 Dipole moment (field-independent basis, Debye):
    X=              0.0000    Y=             -0.0000    Z=              0.0000  Tot=              0.0000
 Quadrupole moment (field-independent basis, Debye-Ang):
   XX=             -2.3233   YY=             -2.3233   ZZ=             -1.4737
   XY=             -0.0000   XZ=             -0.0000   YZ=              0.0000

 0968\MP4DQ=-1.1605766\MP4SDQ=-1.1607092\CCSD=-1.1616795\CCSD(T)=-1.161
 Normal termination of Gaussian 16 at Tue Feb 13 16:24:08 2024.
