 Gaussian 16, Revision A.03,
 Gaussian 16:  ES64L-G16RevA.03 25-Dec-2016

 ------------------
 #p CCSD(T)/cc-pVTZ
 ------------------

 -----
 H2_12
 -----
 Symbolic Z-matrix:
 Charge =  0 Multiplicity = 1

                         Standard orientation:
 ---------------------------------------------------------------------
 Center     Atomic      Atomic             Coordinates (Angstroms)
 Number     Number       Type             X           Y           Z
 ---------------------------------------------------------------------
      1          1           0        0.000000    0.000000    0.430000
      2          1           0        0.000000    0.000000   -0.430000
 ---------------------------------------------------------------------

 SCF Done:  E(RHF) =  -1.12416725882     A.U. after    6 cycles
 E2 =    -0.3223503131D-01 EUMP2 =    -0.11564022901268D+01
 CCSD(T)
 CCSD(T)= -0.11651736908D+01

 The electronic state is 1-SGG.
 Alpha  occ. eigenvalues --   -0.56039
 Alpha virt. eigenvalues --    0.14892   0.31598   0.59679   0.68111   0.68111
 Alpha virt. eigenvalues --    1.05964   1.09660   1.09660   1.49942   2.41743
 Alpha virt. eigenvalues --    2.46425   3.17475   3.17475   3.33250   3.33250

 Mulliken charges:
               1
     1  H    0.000000
     2  H    0.000000
 Sum of Mulliken charges =   0.00000

 Dipole moment (field-independent basis, Debye):
    X=              0.0000    Y=             -0.0000    Z=             -0.0000  Tot=              0.0000
 Quadrupole moment (field-independent basis, Debye-Ang):
   XX=             -2.2776   YY=             -2.2776   ZZ=             -1.4745
   XY=             -0.0000   XZ=             -0.0000   YZ=              0.0000

 645486\MP4DQ=-1.1641733\MP4SDQ=-1.1642921\CCSD=-1.1651737\CCSD(T)=-1.1
 Normal termination of Gaussian 16 at Tue Feb 13 16:24:07 2024.
