 Gaussian 16, Revision A.03,
 Gaussian 16:  ES64L-G16RevA.03 25-Dec-2016

 ------------------
 #p CCSD(T)/cc-pVTZ
 ------------------

 -----
 H2_10
 -----
 Symbolic Z-matrix:
 Charge =  0 Multiplicity = 1

                         Standard orientation:
 ---------------------------------------------------------------------
 Center     Atomic      Atomic             Coordinates (Angstroms)
 Number     Number       Type             X           Y           Z
 ---------------------------------------------------------------------
      1          1           0        0.000000    0.000000    0.400000
      2          1           0        0.000000    0.000000   -0.400000
 ---------------------------------------------------------------------

 SCF Done:  E(RHF) =  -1.13029244240     A.U. after    6 cycles
 E2 =    -0.3192696405D-01 EUMP2 =    -0.11622194064435D+01
 CCSD(T)
 CCSD(T)= -0.11704062678D+01

 The electronic state is 1-SGG.
 Alpha  occ. eigenvalues --   -0.57689
 Alpha virt. eigenvalues --    0.15845   0.31054   0.62027   0.68652   0.68652
 Alpha virt. eigenvalues --    1.07925   1.10923   1.10923   1.51230   2.35912
 Alpha virt. eigenvalues --    2.43679   3.17152   3.17152   3.37494   3.37494

 Mulliken charges:
               1
     1  H    0.000000
     2  H    0.000000
 Sum of Mulliken charges =   0.00000

 Dipole moment (field-independent basis, Debye):
    X=              0.0000    Y=             -0.0000    Z=              0.0000  Tot=              0.0000
 Quadrupole moment (field-independent basis, Debye-Ang):
   XX=             -2.1846   YY=             -2.1846   ZZ=             -1.4731
   XY=             -0.0000   XZ=             -0.0000   YZ=              0.0000

 99299\MP4DQ=-1.1695836\MP4SDQ=-1.1696782\CCSD=-1.1704063\CCSD(T)=-1.17
 Normal termination of Gaussian 16 at Tue Feb 13 16:24:05 2024.
