 Gaussian 16, Revision A.03,
 Gaussian 16:  ES64L-G16RevA.03 25-Dec-2016

 ------------------
 #p CCSD(T)/cc-pVTZ
 ------------------

 -----
 H2_16
 -----
 Symbolic Z-matrix:
 Charge =  0 Multiplicity = 1

                         Standard orientation:
 ---------------------------------------------------------------------
 Center     Atomic      Atomic             Coordinates (Angstroms)
 Number     Number       Type             X           Y           Z
 ---------------------------------------------------------------------
      1          1           0        0.000000    0.000000    0.490000
      2          1           0        0.000000    0.000000   -0.490000
 ---------------------------------------------------------------------

 SCF Done:  E(RHF) =  -1.10565655014     A.U. after    5 cycles
 E2 =    -0.3303260763D-01 EUMP2 =    -0.11386891577643D+01
 CCSD(T)
 CCSD(T)= -0.11489140096D+01

 The electronic state is 1-SGG.
 Alpha  occ. eigenvalues --   -0.53082
 Alpha virt. eigenvalues --    0.12815   0.32656   0.55311   0.67271   0.67271
 Alpha virt. eigenvalues --    1.01546   1.06796   1.06796   1.47886   2.51356
 Alpha virt. eigenvalues --    2.57287   3.20038   3.20038   3.24111   3.24111

 Mulliken charges:
               1
     1  H   -0.000000
     2  H   -0.000000
 Sum of Mulliken charges =  -0.00000

 Dipole moment (field-independent basis, Debye):
    X=             -0.0000    Y=              0.0000    Z=              0.0000  Tot=              0.0000
 Quadrupole moment (field-independent basis, Debye-Ang):
   XX=             -2.4572   YY=             -2.4572   ZZ=             -1.4657
   XY=             -0.0000   XZ=             -0.0000   YZ=              0.0000

 478878\MP4DQ=-1.1474422\MP4SDQ=-1.1476232\CCSD=-1.148914\CCSD(T)=-1.14
 Normal termination of Gaussian 16 at Tue Feb 13 16:24:10 2024.
