 Gaussian 16, Revision A.03,
 Gaussian 16:  ES64L-G16RevA.03 25-Dec-2016

 ------------------
 #p CCSD(T)/cc-pVTZ
 ------------------

 ----
 H2_1
 ----
 Symbolic Z-matrix:
 Charge =  0 Multiplicity = 1

                         Standard orientation:
 ---------------------------------------------------------------------
 Center     Atomic      Atomic             Coordinates (Angstroms)
 Number     Number       Type             X           Y           Z
 ---------------------------------------------------------------------
      1          1           0        0.000000    0.000000    0.265000
      2          1           0        0.000000    0.000000   -0.265000
 ---------------------------------------------------------------------

 SCF Done:  E(RHF) =  -1.08424702217     A.U. after    6 cycles
 E2 =    -0.3117589410D-01 EUMP2 =    -0.11154229162702D+01
 CCSD(T)
 CCSD(T)= -0.11219474967D+01

 The electronic state is 1-SGG.
 Alpha  occ. eigenvalues --   -0.66903
 Alpha virt. eigenvalues --    0.19003   0.28498   0.70190   0.71990   0.71990
 Alpha virt. eigenvalues --    1.13783   1.13801   1.13801   1.58318   2.25934
 Alpha virt. eigenvalues --    2.74980   3.24061   3.24061   3.50837   3.50837

 Mulliken charges:
               1
     1  H   -0.000000
     2  H   -0.000000
 Sum of Mulliken charges =  -0.00000

 Dipole moment (field-independent basis, Debye):
    X=             -0.0000    Y=              0.0000    Z=              0.0000  Tot=              0.0000
 Quadrupole moment (field-independent basis, Debye-Ang):
   XX=             -1.7492   YY=             -1.7492   ZZ=             -1.4144
   XY=             -0.0000   XZ=             -0.0000   YZ=              0.0000

 8408\MP4DQ=-1.1215887\MP4SDQ=-1.1216146\CCSD=-1.1219475\CCSD(T)=-1.121
 Normal termination of Gaussian 16 at Tue Feb 13 16:23:55 2024.
