 Gaussian 16, Revision A.03,
 Gaussian 16:  ES64L-G16RevA.03 25-Dec-2016

 ------------------
 #p CCSD(T)/cc-pVTZ
 ------------------

 -----
 H2_24
 -----
 Symbolic Z-matrix:
 Charge =  0 Multiplicity = 1

                         Standard orientation:
 ---------------------------------------------------------------------
 Center     Atomic      Atomic             Coordinates (Angstroms)
 Number     Number       Type             X           Y           Z
 ---------------------------------------------------------------------
      1          1           0        0.000000    0.000000    0.610000
      2          1           0        0.000000    0.000000   -0.610000
 ---------------------------------------------------------------------

 SCF Done:  E(RHF) =  -1.05882993507     A.U. after    6 cycles
 E2 =    -0.3539731117D-01 EUMP2 =    -0.10942272462311D+01
 CCSD(T)
 CCSD(T)= -0.11086985372D+01

 The electronic state is 1-SGG.
 Alpha  occ. eigenvalues --   -0.48278
 Alpha virt. eigenvalues --    0.08320   0.34643   0.48796   0.66491   0.66491
 Alpha virt. eigenvalues --    0.91919   1.00596   1.00596   1.42244   2.57535
 Alpha virt. eigenvalues --    2.70990   3.11237   3.11237   3.20795   3.29329

 Mulliken charges:
               1
     1  H    0.000000
     2  H    0.000000
 Sum of Mulliken charges =   0.00000

 Dipole moment (field-independent basis, Debye):
    X=              0.0000    Y=              0.0000    Z=             -0.0000  Tot=              0.0000
 Quadrupole moment (field-independent basis, Debye-Ang):
   XX=             -2.7866   YY=             -2.7866   ZZ=             -1.4077
   XY=             -0.0000   XZ=             -0.0000   YZ=              0.0000

 063307\MP4DQ=-1.1056779\MP4SDQ=-1.106056\CCSD=-1.1086985\CCSD(T)=-1.10
 Normal termination of Gaussian 16 at Tue Feb 13 16:24:18 2024.
