 Gaussian 16, Revision A.03,
 Gaussian 16:  ES64L-G16RevA.03 25-Dec-2016

 ------------------
 #p CCSD(T)/cc-pVTZ
 ------------------

 -----
 H2_23
 -----
 Symbolic Z-matrix:
 Charge =  0 Multiplicity = 1

                         Standard orientation:
 ---------------------------------------------------------------------
 Center     Atomic      Atomic             Coordinates (Angstroms)
 Number     Number       Type             X           Y           Z
 ---------------------------------------------------------------------
      1          1           0        0.000000    0.000000    0.595000
      2          1           0        0.000000    0.000000   -0.595000
 ---------------------------------------------------------------------

 SCF Done:  E(RHF) =  -1.06488867172     A.U. after    5 cycles
 E2 =    -0.3504261750D-01 EUMP2 =    -0.10999312892236D+01
 CCSD(T)
 CCSD(T)= -0.11137609056D+01

 The electronic state is 1-SGG.
 Alpha  occ. eigenvalues --   -0.48811
 Alpha virt. eigenvalues --    0.08889   0.34404   0.49445   0.66530   0.66530
 Alpha virt. eigenvalues --    0.93124   1.01372   1.01372   1.43097   2.57210
 Alpha virt. eigenvalues --    2.70719   3.12052   3.12052   3.23625   3.28098

 Mulliken charges:
               1
     1  H   -0.000000
     2  H   -0.000000
 Sum of Mulliken charges =  -0.00000

 Dipole moment (field-independent basis, Debye):
    X=             -0.0000    Y=             -0.0000    Z=             -0.0000  Tot=              0.0000
 Quadrupole moment (field-independent basis, Debye-Ang):
   XX=             -2.7478   YY=             -2.7478   ZZ=             -1.4174
   XY=             -0.0000   XZ=             -0.0000   YZ=              0.0000

 116069\MP4DQ=-1.1109861\MP4SDQ=-1.1113332\CCSD=-1.1137609\CCSD(T)=-1.1
 Normal termination of Gaussian 16 at Tue Feb 13 16:24:17 2024.
