 Gaussian 16, Revision A.03,
 Gaussian 16:  ES64L-G16RevA.03 25-Dec-2016

 ------------------
 #p CCSD(T)/cc-pVTZ
 ------------------

 -----
 H2_26
 -----
 Symbolic Z-matrix:
 Charge =  0 Multiplicity = 1

                         Standard orientation:
 ---------------------------------------------------------------------
 Center     Atomic      Atomic             Coordinates (Angstroms)
 Number     Number       Type             X           Y           Z
 ---------------------------------------------------------------------
      1          1           0        0.000000    0.000000    0.640000
      2          1           0        0.000000    0.000000   -0.640000
 ---------------------------------------------------------------------

 SCF Done:  E(RHF) =  -1.04675768474     A.U. after    6 cycles
 E2 =    -0.3616062513D-01 EUMP2 =    -0.10829183098787D+01
 CCSD(T)
 CCSD(T)= -0.10987784683D+01

 The electronic state is 1-SGG.
 Alpha  occ. eigenvalues --   -0.47264
 Alpha virt. eigenvalues --    0.07188   0.35113   0.47621   0.66455   0.66455
 Alpha virt. eigenvalues --    0.89535   0.99063   0.99063   1.40433   2.57615
 Alpha virt. eigenvalues --    2.70886   3.10424   3.10424   3.16171   3.31693

 Mulliken charges:
               1
     1  H   -0.000000
     2  H   -0.000000
 Sum of Mulliken charges =  -0.00000

 Dipole moment (field-independent basis, Debye):
    X=             -0.0000    Y=             -0.0000    Z=              0.0000  Tot=              0.0000
 Quadrupole moment (field-independent basis, Debye-Ang):
   XX=             -2.8620   YY=             -2.8620   ZZ=             -1.3864
   XY=             -0.0000   XZ=             -0.0000   YZ=              0.0000

 959396\MP4DQ=-1.0952163\MP4SDQ=-1.0956627\CCSD=-1.0987785\CCSD(T)=-1.0
 Normal termination of Gaussian 16 at Tue Feb 13 16:24:20 2024.
