 Gaussian 16, Revision A.03,
 Gaussian 16:  ES64L-G16RevA.03 25-Dec-2016

 ------------------
 #p CCSD(T)/cc-pVTZ
 ------------------

 -----
 H2_20
 -----
 Symbolic Z-matrix:
 Charge =  0 Multiplicity = 1

                         Standard orientation:
 ---------------------------------------------------------------------
 Center     Atomic      Atomic             Coordinates (Angstroms)
 Number     Number       Type             X           Y           Z
 ---------------------------------------------------------------------
      1          1           0        0.000000    0.000000    0.550000
      2          1           0        0.000000    0.000000   -0.550000
 ---------------------------------------------------------------------

 SCF Done:  E(RHF) =  -1.08293447383     A.U. after    5 cycles
 E2 =    -0.3408215614D-01 EUMP2 =    -0.11170166299723D+01
 CCSD(T)
 CCSD(T)= -0.11291199066D+01

 The electronic state is 1-SGG.
 Alpha  occ. eigenvalues --   -0.50518
 Alpha virt. eigenvalues --    0.10594   0.33671   0.51665   0.66743   0.66743
 Alpha virt. eigenvalues --    0.96766   1.03714   1.03714   1.45416   2.55322
 Alpha virt. eigenvalues --    2.67863   3.16042   3.16042   3.24381   3.24381

 Mulliken charges:
               1
     1  H    0.000000
     2  H    0.000000
 Sum of Mulliken charges =   0.00000

 Dipole moment (field-independent basis, Debye):
    X=              0.0000    Y=              0.0000    Z=              0.0000  Tot=              0.0000
 Quadrupole moment (field-independent basis, Debye-Ang):
   XX=             -2.6272   YY=             -2.6272   ZZ=             -1.4428
   XY=             -0.0000   XZ=             -0.0000   YZ=              0.0000

 75245\MP4DQ=-1.1269883\MP4SDQ=-1.1272541\CCSD=-1.1291199\CCSD(T)=-1.12
 Normal termination of Gaussian 16 at Tue Feb 13 16:24:14 2024.
