 Gaussian 16, Revision A.03,
 Gaussian 16:  ES64L-G16RevA.03 25-Dec-2016

 ------------------
 #p CCSD(T)/cc-pVTZ
 ------------------

 -----
 H2_29
 -----
 Symbolic Z-matrix:
 Charge =  0 Multiplicity = 1

                         Standard orientation:
 ---------------------------------------------------------------------
 Center     Atomic      Atomic             Coordinates (Angstroms)
 Number     Number       Type             X           Y           Z
 ---------------------------------------------------------------------
      1          1           0        0.000000    0.000000    0.685000
      2          1           0        0.000000    0.000000   -0.685000
 ---------------------------------------------------------------------

 SCF Done:  E(RHF) =  -1.02895472451     A.U. after    6 cycles
 E2 =    -0.3744620423D-01 EUMP2 =    -0.10664009287404D+01
 CCSD(T)
 CCSD(T)= -0.10846212856D+01

 The electronic state is 1-SGG.
 Alpha  occ. eigenvalues --   -0.45857
 Alpha virt. eigenvalues --    0.05520   0.35796   0.46134   0.66506   0.66506
 Alpha virt. eigenvalues --    0.86050   0.96822   0.96822   1.37497   2.56197
 Alpha virt. eigenvalues --    2.69784   3.11158   3.11158   3.12207   3.34837

 Mulliken charges:
               1
     1  H    0.000000
     2  H    0.000000
 Sum of Mulliken charges =   0.00000

 Dipole moment (field-independent basis, Debye):
    X=              0.0000    Y=             -0.0000    Z=              0.0000  Tot=              0.0000
 Quadrupole moment (field-independent basis, Debye-Ang):
   XX=             -2.9693   YY=             -2.9693   ZZ=             -1.3514
   XY=             -0.0000   XZ=             -0.0000   YZ=              0.0000

 09652\MP4DQ=-1.0801179\MP4SDQ=-1.0806839\CCSD=-1.0846213\CCSD(T)=-1.08
 Normal termination of Gaussian 16 at Tue Feb 13 16:24:23 2024.
