 Gaussian 16, Revision A.03,
 Gaussian 16:  ES64L-G16RevA.03 25-Dec-2016

 ------------------
 #p CCSD(T)/cc-pVTZ
 ------------------

 ----
 H2_2
 ----
 Symbolic Z-matrix:
 Charge =  0 Multiplicity = 1

                         Standard orientation:
 ---------------------------------------------------------------------
 Center     Atomic      Atomic             Coordinates (Angstroms)
 Number     Number       Type             X           Y           Z
 ---------------------------------------------------------------------
      1          1           0        0.000000    0.000000    0.280000
      2          1           0        0.000000    0.000000   -0.280000
 ---------------------------------------------------------------------

 SCF Done:  E(RHF) =  -1.10022903213     A.U. after    6 cycles
 E2 =    -0.3121742793D-01 EUMP2 =    -0.11314464600656D+01
 CCSD(T)
 CCSD(T)= -0.11380884938D+01

 The electronic state is 1-SGG.
 Alpha  occ. eigenvalues --   -0.65714
 Alpha virt. eigenvalues --    0.18785   0.28789   0.69957   0.71555   0.71555
 Alpha virt. eigenvalues --    1.13360   1.13751   1.13751   1.57683   2.28673
 Alpha virt. eigenvalues --    2.62611   3.22725   3.22725   3.49747   3.49747

 Mulliken charges:
               1
     1  H   -0.000000
     2  H   -0.000000
 Sum of Mulliken charges =  -0.00000

 Dipole moment (field-independent basis, Debye):
    X=             -0.0000    Y=              0.0000    Z=              0.0000  Tot=              0.0000
 Quadrupole moment (field-independent basis, Debye-Ang):
   XX=             -1.7984   YY=             -1.7984   ZZ=             -1.4254
   XY=             -0.0000   XZ=             -0.0000   YZ=              0.0000

 959\MP4DQ=-1.1376987\MP4SDQ=-1.1377297\CCSD=-1.1380885\CCSD(T)=-1.1380
 Normal termination of Gaussian 16 at Tue Feb 13 16:23:57 2024.
