 Gaussian 16, Revision A.03,
 Gaussian 16:  ES64L-G16RevA.03 25-Dec-2016

 ------------------
 #p CCSD(T)/cc-pVTZ
 ------------------

 -----
 H2_28
 -----
 Symbolic Z-matrix:
 Charge =  0 Multiplicity = 1

                         Standard orientation:
 ---------------------------------------------------------------------
 Center     Atomic      Atomic             Coordinates (Angstroms)
 Number     Number       Type             X           Y           Z
 ---------------------------------------------------------------------
      1          1           0        0.000000    0.000000    0.670000
      2          1           0        0.000000    0.000000   -0.670000
 ---------------------------------------------------------------------

 SCF Done:  E(RHF) =  -1.03483446563     A.U. after    6 cycles
 E2 =    -0.3699840356D-01 EUMP2 =    -0.10718328691943D+01
 CCSD(T)
 CCSD(T)= -0.10892285790D+01

 The electronic state is 1-SGG.
 Alpha  occ. eigenvalues --   -0.46311
 Alpha virt. eigenvalues --    0.06071   0.35571   0.46596   0.66475   0.66475
 Alpha virt. eigenvalues --    0.87199   0.97560   0.97560   1.38501   2.56868
 Alpha virt. eigenvalues --    2.70233   3.10670   3.10670   3.13121   3.33853

 Mulliken charges:
               1
     1  H   -0.000000
     2  H   -0.000000
 Sum of Mulliken charges =  -0.00000

 Dipole moment (field-independent basis, Debye):
    X=             -0.0000    Y=              0.0000    Z=             -0.0000  Tot=              0.0000
 Quadrupole moment (field-independent basis, Debye-Ang):
   XX=             -2.9343   YY=             -2.9343   ZZ=             -1.3634
   XY=             -0.0000   XZ=             -0.0000   YZ=              0.0000

 858596\MP4DQ=-1.0850563\MP4SDQ=-1.08558\CCSD=-1.0892286\CCSD(T)=-1.089
 Normal termination of Gaussian 16 at Tue Feb 13 16:24:22 2024.
