 Gaussian 16, Revision A.03,
 Gaussian 16:  ES64L-G16RevA.03 25-Dec-2016

 ------------------
 #p CCSD(T)/cc-pVTZ
 ------------------

 -----
 H2_32
 -----
 Symbolic Z-matrix:
 Charge =  0 Multiplicity = 1

                         Standard orientation:
 ---------------------------------------------------------------------
 Center     Atomic      Atomic             Coordinates (Angstroms)
 Number     Number       Type             X           Y           Z
 ---------------------------------------------------------------------
      1          1           0        0.000000    0.000000    0.730000
      2          1           0        0.000000    0.000000   -0.730000
 ---------------------------------------------------------------------

 SCF Done:  E(RHF) =  -1.01173155196     A.U. after    6 cycles
 E2 =    -0.3890995047D-01 EUMP2 =    -0.10506415024288D+01
 CCSD(T)
 CCSD(T)= -0.10715690205D+01

 The electronic state is 1-SGG.
 Alpha  occ. eigenvalues --   -0.44574
 Alpha virt. eigenvalues --    0.03907   0.36454   0.44927   0.66682   0.66682
 Alpha virt. eigenvalues --    0.82690   0.94673   0.94673   1.34361   2.53295
 Alpha virt. eigenvalues --    2.68187   3.11647   3.13830   3.13830   3.37359

 Mulliken charges:
               1
     1  H   -0.000000
     2  H   -0.000000
 Sum of Mulliken charges =  -0.00000

 Dipole moment (field-independent basis, Debye):
    X=             -0.0000    Y=              0.0000    Z=              0.0000  Tot=              0.0000
 Quadrupole moment (field-independent basis, Debye-Ang):
   XX=             -3.0695   YY=             -3.0695   ZZ=             -1.3143
   XY=             -0.0000   XZ=             -0.0000   YZ=              0.0000

 669675\MP4DQ=-1.0659696\MP4SDQ=-1.0666781\CCSD=-1.071569\CCSD(T)=-1.07
 Normal termination of Gaussian 16 at Tue Feb 13 16:24:26 2024.
