 Gaussian 16, Revision A.03,
 Gaussian 16:  ES64L-G16RevA.03 25-Dec-2016

 ------------------
 #p CCSD(T)/cc-pVTZ
 ------------------

 -----
 H2_30
 -----
 Symbolic Z-matrix:
 Charge =  0 Multiplicity = 1

                         Standard orientation:
 ---------------------------------------------------------------------
 Center     Atomic      Atomic             Coordinates (Angstroms)
 Number     Number       Type             X           Y           Z
 ---------------------------------------------------------------------
      1          1           0        0.000000    0.000000    0.700000
      2          1           0        0.000000    0.000000   -0.700000
 ---------------------------------------------------------------------

 SCF Done:  E(RHF) =  -1.02314024472     A.U. after    6 cycles
 E2 =    -0.3791380577D-01 EUMP2 =    -0.10610540504901D+01
 CCSD(T)
 CCSD(T)= -0.10801377160D+01

 The electronic state is 1-SGG.
 Alpha  occ. eigenvalues --   -0.45416
 Alpha virt. eigenvalues --    0.04975   0.36019   0.45703   0.66551   0.66551
 Alpha virt. eigenvalues --    0.84916   0.96094   0.96094   1.36471   2.55355
 Alpha virt. eigenvalues --    2.69283   3.11678   3.11863   3.11863   3.35752

 Mulliken charges:
               1
     1  H   -0.000000
     2  H   -0.000000
 Sum of Mulliken charges =  -0.00000

 Dipole moment (field-independent basis, Debye):
    X=             -0.0000    Y=              0.0000    Z=             -0.0000  Tot=              0.0000
 Quadrupole moment (field-independent basis, Debye-Ang):
   XX=             -3.0035   YY=             -3.0035   ZZ=             -1.3392
   XY=             -0.0000   XZ=             -0.0000   YZ=              0.0000

 61802\MP4DQ=-1.0752858\MP4SDQ=-1.0758967\CCSD=-1.0801377\CCSD(T)=-1.08
 Normal termination of Gaussian 16 at Tue Feb 13 16:24:24 2024.
