 Gaussian 16, Revision A.03,
 Gaussian 16:  ES64L-G16RevA.03 25-Dec-2016

 ------------------
 #p CCSD(T)/cc-pVTZ
 ------------------

 -----
 H2_34
 -----
 Symbolic Z-matrix:
 Charge =  0 Multiplicity = 1

                         Standard orientation:
 ---------------------------------------------------------------------
 Center     Atomic      Atomic             Coordinates (Angstroms)
 Number     Number       Type             X           Y           Z
 ---------------------------------------------------------------------
      1          1           0        0.000000    0.000000    0.760000
      2          1           0        0.000000    0.000000   -0.760000
 ---------------------------------------------------------------------

 SCF Done:  E(RHF) =  -1.00064731205     A.U. after    6 cycles
 E2 =    -0.3998979556D-01 EUMP2 =    -0.10406371076093D+01
 CCSD(T)
 CCSD(T)= -0.10635649812D+01

 The electronic state is 1-SGG.
 Alpha  occ. eigenvalues --   -0.43780
 Alpha virt. eigenvalues --    0.02869   0.36877   0.44254   0.66870   0.66870
 Alpha virt. eigenvalues --    0.80521   0.93300   0.93300   1.32190   2.50983
 Alpha virt. eigenvalues --    2.67032   3.12700   3.16363   3.16363   3.38671

 Mulliken charges:
               1
     1  H    0.000000
     2  H    0.000000
 Sum of Mulliken charges =   0.00000

 Dipole moment (field-independent basis, Debye):
    X=              0.0000    Y=              0.0000    Z=              0.0000  Tot=              0.0000
 Quadrupole moment (field-independent basis, Debye-Ang):
   XX=             -3.1323   YY=             -3.1323   ZZ=             -1.2892
   XY=             -0.0000   XZ=             -0.0000   YZ=              0.0000

 582701\MP4DQ=-1.0571544\MP4SDQ=-1.057972\CCSD=-1.063565\CCSD(T)=-1.063
 Normal termination of Gaussian 16 at Tue Feb 13 16:24:27 2024.
