 Gaussian 16, Revision A.03,
 Gaussian 16:  ES64L-G16RevA.03 25-Dec-2016

 ------------------
 #p CCSD(T)/cc-pVTZ
 ------------------

 -----
 H2_37
 -----
 Symbolic Z-matrix:
 Charge =  0 Multiplicity = 1

                         Standard orientation:
 ---------------------------------------------------------------------
 Center     Atomic      Atomic             Coordinates (Angstroms)
 Number     Number       Type             X           Y           Z
 ---------------------------------------------------------------------
      1          1           0        0.000000    0.000000    0.805000
      2          1           0        0.000000    0.000000   -0.805000
 ---------------------------------------------------------------------

 SCF Done:  E(RHF) = -0.984682727829     A.U. after    6 cycles
 E2 =    -0.4177236715D-01 EUMP2 =    -0.10264550949797D+01
 CCSD(T)
 CCSD(T)= -0.10526697804D+01

 The electronic state is 1-SGG.
 Alpha  occ. eigenvalues --   -0.42674
 Alpha virt. eigenvalues --    0.01379   0.37490   0.43409   0.67258   0.67258
 Alpha virt. eigenvalues --    0.77378   0.91336   0.91336   1.28850   2.47623
 Alpha virt. eigenvalues --    2.65286   3.15570   3.20756   3.20756   3.40119

 Mulliken charges:
               1
     1  H   -0.000000
     2  H   -0.000000
 Sum of Mulliken charges =  -0.00000

 Dipole moment (field-independent basis, Debye):
    X=             -0.0000    Y=             -0.0000    Z=              0.0000  Tot=              0.0000
 Quadrupole moment (field-independent basis, Debye-Ang):
   XX=             -3.2205   YY=             -3.2205   ZZ=             -1.2525
   XY=             -0.0000   XZ=             -0.0000   YZ=              0.0000

 462643\MP4DQ=-1.044941\MP4SDQ=-1.0459451\CCSD=-1.0526698\CCSD(T)=-1.05
 Normal termination of Gaussian 16 at Tue Feb 13 16:24:30 2024.
