 Gaussian 16, Revision A.03,
 Gaussian 16:  ES64L-G16RevA.03 25-Dec-2016

 ------------------
 #p CCSD(T)/cc-pVTZ
 ------------------

 -----
 H2_31
 -----
 Symbolic Z-matrix:
 Charge =  0 Multiplicity = 1

                         Standard orientation:
 ---------------------------------------------------------------------
 Center     Atomic      Atomic             Coordinates (Angstroms)
 Number     Number       Type             X           Y           Z
 ---------------------------------------------------------------------
      1          1           0        0.000000    0.000000    0.715000
      2          1           0        0.000000    0.000000   -0.715000
 ---------------------------------------------------------------------

 SCF Done:  E(RHF) =  -1.01739741926     A.U. after    6 cycles
 E2 =    -0.3840159553D-01 EUMP2 =    -0.10557990147953D+01
 CCSD(T)
 CCSD(T)= -0.10757850073D+01

 The electronic state is 1-SGG.
 Alpha  occ. eigenvalues --   -0.44989
 Alpha virt. eigenvalues --    0.04437   0.36238   0.45301   0.66609   0.66609
 Alpha virt. eigenvalues --    0.83796   0.95378   0.95378   1.35425   2.54375
 Alpha virt. eigenvalues --    2.68747   3.11505   3.12763   3.12763   3.36592

 Mulliken charges:
               1
     1  H   -0.000000
     2  H   -0.000000
 Sum of Mulliken charges =  -0.00000

 Dipole moment (field-independent basis, Debye):
    X=             -0.0000    Y=             -0.0000    Z=             -0.0000  Tot=              0.0000
 Quadrupole moment (field-independent basis, Debye-Ang):
   XX=             -3.0369   YY=             -3.0369   ZZ=             -1.3268
   XY=             -0.0000   XZ=             -0.0000   YZ=              0.0000

 5121\MP4DQ=-1.0705677\MP4SDQ=-1.071226\CCSD=-1.075785\CCSD(T)=-1.07578
 Normal termination of Gaussian 16 at Tue Feb 13 16:24:25 2024.
