 Gaussian 16, Revision A.03,
 Gaussian 16:  ES64L-G16RevA.03 25-Dec-2016

 ------------------
 #p CCSD(T)/cc-pVTZ
 ------------------

 -----
 H2_36
 -----
 Symbolic Z-matrix:
 Charge =  0 Multiplicity = 1

                         Standard orientation:
 ---------------------------------------------------------------------
 Center     Atomic      Atomic             Coordinates (Angstroms)
 Number     Number       Type             X           Y           Z
 ---------------------------------------------------------------------
      1          1           0        0.000000    0.000000    0.790000
      2          1           0        0.000000    0.000000   -0.790000
 ---------------------------------------------------------------------

 SCF Done:  E(RHF) = -0.989913223156     A.U. after    6 cycles
 E2 =    -0.4115605777D-01 EUMP2 =    -0.10310692809219D+01
 CCSD(T)
 CCSD(T)= -0.10561511791D+01

 The electronic state is 1-SGG.
 Alpha  occ. eigenvalues --   -0.43032
 Alpha virt. eigenvalues --    0.01866   0.37288   0.43670   0.67115   0.67115
 Alpha virt. eigenvalues --    0.78411   0.91978   0.91978   1.29972   2.48693
 Alpha virt. eigenvalues --    2.65865   3.14492   3.19247   3.19247   3.39701

 Mulliken charges:
               1
     1  H    0.000000
     2  H    0.000000
 Sum of Mulliken charges =   0.00000

 Dipole moment (field-independent basis, Debye):
    X=              0.0000    Y=              0.0000    Z=              0.0000  Tot=              0.0000
 Quadrupole moment (field-independent basis, Debye-Ang):
   XX=             -3.1919   YY=             -3.1919   ZZ=             -1.2645
   XY=             -0.0000   XZ=             -0.0000   YZ=              0.0000

 501232\MP4DQ=-1.0488736\MP4SDQ=-1.0498123\CCSD=-1.0561512\CCSD(T)=-1.0
 Normal termination of Gaussian 16 at Tue Feb 13 16:24:29 2024.
