 Gaussian 16, Revision A.03,
 Gaussian 16:  ES64L-G16RevA.03 25-Dec-2016

 ------------------
 #p CCSD(T)/cc-pVTZ
 ------------------

 -----
 H2_39
 -----
 Symbolic Z-matrix:
 Charge =  0 Multiplicity = 1

                         Standard orientation:
 ---------------------------------------------------------------------
 Center     Atomic      Atomic             Coordinates (Angstroms)
 Number     Number       Type             X           Y           Z
 ---------------------------------------------------------------------
      1          1           0        0.000000    0.000000    0.835000
      2          1           0        0.000000    0.000000   -0.835000
 ---------------------------------------------------------------------

 SCF Done:  E(RHF) = -0.974501016817     A.U. after    6 cycles
 E2 =    -0.4307272337D-01 EUMP2 =    -0.10175737401881D+01
 CCSD(T)
 CCSD(T)= -0.10461589636D+01

 The electronic state is 1-SGG.
 Alpha  occ. eigenvalues --   -0.41986
 Alpha virt. eigenvalues --    0.00432   0.37886   0.42939   0.67583   0.67583
 Alpha virt. eigenvalues --    0.75366   0.90093   0.90093   1.26589   2.45714
 Alpha virt. eigenvalues --    2.64143   3.17931   3.23798   3.23798   3.40779

 Mulliken charges:
               1
     1  H    0.000000
     2  H    0.000000
 Sum of Mulliken charges =   0.00000

 Dipole moment (field-independent basis, Debye):
    X=              0.0000    Y=              0.0000    Z=             -0.0000  Tot=              0.0000
 Quadrupole moment (field-independent basis, Debye-Ang):
   XX=             -3.2753   YY=             -3.2753   ZZ=             -1.2292
   XY=             -0.0000   XZ=             -0.0000   YZ=              0.0000

 89876\MP4DQ=-1.0375022\MP4SDQ=-1.0386469\CCSD=-1.046159\CCSD(T)=-1.046
 Normal termination of Gaussian 16 at Tue Feb 13 16:24:32 2024.
