 Gaussian 16, Revision A.03,
 Gaussian 16:  ES64L-G16RevA.03 25-Dec-2016

 ------------------
 #p CCSD(T)/cc-pVTZ
 ------------------

 ----
 H2_3
 ----
 Symbolic Z-matrix:
 Charge =  0 Multiplicity = 1

                         Standard orientation:
 ---------------------------------------------------------------------
 Center     Atomic      Atomic             Coordinates (Angstroms)
 Number     Number       Type             X           Y           Z
 ---------------------------------------------------------------------
      1          1           0        0.000000    0.000000    0.295000
      2          1           0        0.000000    0.000000   -0.295000
 ---------------------------------------------------------------------

 SCF Done:  E(RHF) =  -1.11218596620     A.U. after    6 cycles
 E2 =    -0.3126742869D-01 EUMP2 =    -0.11434533948954D+01
 CCSD(T)
 CCSD(T)= -0.11502278756D+01

 The electronic state is 1-SGG.
 Alpha  occ. eigenvalues --   -0.64569
 Alpha virt. eigenvalues --    0.18522   0.29079   0.69430   0.71134   0.71134
 Alpha virt. eigenvalues --    1.12892   1.13640   1.13640   1.57153   2.31155
 Alpha virt. eigenvalues --    2.52846   3.21500   3.21500   3.48586   3.48586

 Mulliken charges:
               1
     1  H    0.000000
     2  H    0.000000
 Sum of Mulliken charges =   0.00000

 Dipole moment (field-independent basis, Debye):
    X=              0.0000    Y=              0.0000    Z=              0.0000  Tot=              0.0000
 Quadrupole moment (field-independent basis, Debye-Ang):
   XX=             -1.8474   YY=             -1.8474   ZZ=             -1.4352
   XY=             -0.0000   XZ=             -0.0000   YZ=              0.0000

 0719\MP4DQ=-1.1498029\MP4SDQ=-1.1498396\CCSD=-1.1502279\CCSD(T)=-1.150
 Normal termination of Gaussian 16 at Tue Feb 13 16:23:58 2024.
