 Gaussian 16, Revision A.03,
 Gaussian 16:  ES64L-G16RevA.03 25-Dec-2016

 ------------------
 #p CCSD(T)/cc-pVTZ
 ------------------

 -----
 H2_46
 -----
 Symbolic Z-matrix:
 Charge =  0 Multiplicity = 1

                         Standard orientation:
 ---------------------------------------------------------------------
 Center     Atomic      Atomic             Coordinates (Angstroms)
 Number     Number       Type             X           Y           Z
 ---------------------------------------------------------------------
      1          1           0        0.000000    0.000000    0.940000
      2          1           0        0.000000    0.000000   -0.940000
 ---------------------------------------------------------------------

 SCF Done:  E(RHF) = -0.941821826415     A.U. after    6 cycles
 E2 =    -0.4835853224D-01 EUMP2 =    -0.99018035865474D+00
 CCSD(T)
 CCSD(T)= -0.10279559108D+01

 The electronic state is 1-SGG.
 Alpha  occ. eigenvalues --   -0.39857
 Alpha virt. eigenvalues --   -0.02579   0.39237   0.41755   0.69042   0.69042
 Alpha virt. eigenvalues --    0.69086   0.86171   0.86171   1.18608   2.42084
 Alpha virt. eigenvalues --    2.60315   3.26286   3.33019   3.33019   3.41725

 Mulliken charges:
               1
     1  H    0.000000
     2  H    0.000000
 Sum of Mulliken charges =   0.00000

 Dipole moment (field-independent basis, Debye):
    X=              0.0000    Y=              0.0000    Z=             -0.0000  Tot=              0.0000
 Quadrupole moment (field-independent basis, Debye-Ang):
   XX=             -3.4426   YY=             -3.4426   ZZ=             -1.1622
   XY=             -0.0000   XZ=             -0.0000   YZ=              0.0000

 182873\MP4DQ=-1.0160431\MP4SDQ=-1.0177948\CCSD=-1.0279559\CCSD(T)=-1.0
 Normal termination of Gaussian 16 at Tue Feb 13 16:24:39 2024.
