 Gaussian 16, Revision A.03,
 Gaussian 16:  ES64L-G16RevA.03 25-Dec-2016

 ------------------
 #p CCSD(T)/cc-pVTZ
 ------------------

 -----
 H2_45
 -----
 Symbolic Z-matrix:
 Charge =  0 Multiplicity = 1

                         Standard orientation:
 ---------------------------------------------------------------------
 Center     Atomic      Atomic             Coordinates (Angstroms)
 Number     Number       Type             X           Y           Z
 ---------------------------------------------------------------------
      1          1           0        0.000000    0.000000    0.925000
      2          1           0        0.000000    0.000000   -0.925000
 ---------------------------------------------------------------------

 SCF Done:  E(RHF) = -0.946211202583     A.U. after    6 cycles
 E2 =    -0.4753198412D-01 EUMP2 =    -0.99374318669948D+00
 CCSD(T)
 CCSD(T)= -0.10301412758D+01

 The electronic state is 1-SGG.
 Alpha  occ. eigenvalues --   -0.40137
 Alpha virt. eigenvalues --   -0.02178   0.39045   0.41887   0.68812   0.68812
 Alpha virt. eigenvalues --    0.69888   0.86690   0.86690   1.19748   2.42312
 Alpha virt. eigenvalues --    2.60852   3.25186   3.31922   3.31922   3.41686

 Mulliken charges:
               1
     1  H    0.000000
     2  H    0.000000
 Sum of Mulliken charges =   0.00000

 Dipole moment (field-independent basis, Debye):
    X=              0.0000    Y=             -0.0000    Z=              0.0000  Tot=              0.0000
 Quadrupole moment (field-independent basis, Debye-Ang):
   XX=             -3.4210   YY=             -3.4210   ZZ=             -1.1700
   XY=             -0.0000   XZ=             -0.0000   YZ=              0.0000

 207848\MP4DQ=-1.0186702\MP4SDQ=-1.0203235\CCSD=-1.0301413\CCSD(T)=-1.0
 Normal termination of Gaussian 16 at Tue Feb 13 16:24:38 2024.
