 Gaussian 16, Revision A.03,
 Gaussian 16:  ES64L-G16RevA.03 25-Dec-2016

 ------------------
 #p CCSD(T)/cc-pVTZ
 ------------------

 -----
 H2_43
 -----
 Symbolic Z-matrix:
 Charge =  0 Multiplicity = 1

                         Standard orientation:
 ---------------------------------------------------------------------
 Center     Atomic      Atomic             Coordinates (Angstroms)
 Number     Number       Type             X           Y           Z
 ---------------------------------------------------------------------
      1          1           0        0.000000    0.000000    0.895000
      2          1           0        0.000000    0.000000   -0.895000
 ---------------------------------------------------------------------

 SCF Done:  E(RHF) = -0.955266600300     A.U. after    6 cycles
 E2 =    -0.4595096277D-01 EUMP2 =    -0.10012175630680D+01
 CCSD(T)
 CCSD(T)= -0.10349136870D+01

 The electronic state is 1-SGG.
 Alpha  occ. eigenvalues --   -0.40721
 Alpha virt. eigenvalues --   -0.01347   0.38660   0.42185   0.68368   0.68368
 Alpha virt. eigenvalues --    0.71600   0.87769   0.87769   1.22030   2.43047
 Alpha virt. eigenvalues --    2.61931   3.22858   3.29479   3.29479   3.41527

 Mulliken charges:
               1
     1  H    0.000000
     2  H    0.000000
 Sum of Mulliken charges =   0.00000

 Dipole moment (field-independent basis, Debye):
    X=              0.0000    Y=             -0.0000    Z=             -0.0000  Tot=              0.0000
 Quadrupole moment (field-independent basis, Debye-Ang):
   XX=             -3.3754   YY=             -3.3754   ZZ=             -1.1875
   XY=             -0.0000   XZ=             -0.0000   YZ=              0.0000

 26241\MP4DQ=-1.0243627\MP4SDQ=-1.0258314\CCSD=-1.0349137\CCSD(T)=-1.03
 Normal termination of Gaussian 16 at Tue Feb 13 16:24:36 2024.
