 Gaussian 16, Revision A.03,
 Gaussian 16:  ES64L-G16RevA.03 25-Dec-2016

 ------------------
 #p CCSD(T)/cc-pVTZ
 ------------------

 -----
 H2_49
 -----
 Symbolic Z-matrix:
 Charge =  0 Multiplicity = 1

                         Standard orientation:
 ---------------------------------------------------------------------
 Center     Atomic      Atomic             Coordinates (Angstroms)
 Number     Number       Type             X           Y           Z
 ---------------------------------------------------------------------
      1          1           0        0.000000    0.000000    0.985000
      2          1           0        0.000000    0.000000   -0.985000
 ---------------------------------------------------------------------

 SCF Done:  E(RHF) = -0.929195666006     A.U. after    6 cycles
 E2 =    -0.5098383792D-01 EUMP2 =    -0.98017950392841D+00
 CCSD(T)
 CCSD(T)= -0.10221532514D+01

 The electronic state is 1-SGG.
 Alpha  occ. eigenvalues --   -0.39058
 Alpha virt. eigenvalues --   -0.03727   0.39810   0.41418   0.66934   0.69755
 Alpha virt. eigenvalues --    0.69755   0.84696   0.84696   1.15202   2.41901
 Alpha virt. eigenvalues --    2.58706   3.29280   3.35782   3.35782   3.41723

 Mulliken charges:
               1
     1  H    0.000000
     2  H    0.000000
 Sum of Mulliken charges =   0.00000

 Dipole moment (field-independent basis, Debye):
    X=              0.0000    Y=              0.0000    Z=             -0.0000  Tot=              0.0000
 Quadrupole moment (field-independent basis, Debye-Ang):
   XX=             -3.5033   YY=             -3.5033   ZZ=             -1.1436
   XY=             -0.0000   XZ=             -0.0000   YZ=              0.0000

 117172\MP4DQ=-1.0090329\MP4SDQ=-1.0111047\CCSD=-1.0221533\CCSD(T)=-1.0
 Normal termination of Gaussian 16 at Tue Feb 13 16:24:42 2024.
