 Gaussian 16, Revision A.03,
 Gaussian 16:  ES64L-G16RevA.03 25-Dec-2016

 ------------------
 #p CCSD(T)/cc-pVTZ
 ------------------

 -----
 H2_40
 -----
 Symbolic Z-matrix:
 Charge =  0 Multiplicity = 1

                         Standard orientation:
 ---------------------------------------------------------------------
 Center     Atomic      Atomic             Coordinates (Angstroms)
 Number     Number       Type             X           Y           Z
 ---------------------------------------------------------------------
      1          1           0        0.000000    0.000000    0.850000
      2          1           0        0.000000    0.000000   -0.850000
 ---------------------------------------------------------------------

 SCF Done:  E(RHF) = -0.969551102960     A.U. after    6 cycles
 E2 =    -0.4375726680D-01 EUMP2 =    -0.10133083697608D+01
 CCSD(T)
 CCSD(T)= -0.10431282430D+01

 The electronic state is 1-SGG.
 Alpha  occ. eigenvalues --   -0.41657
 Alpha virt. eigenvalues --   -0.00028   0.38081   0.42729   0.67763   0.67763
 Alpha virt. eigenvalues --    0.74389   0.89492   0.89492   1.25452   2.44897
 Alpha virt. eigenvalues --    2.63581   3.19165   3.25291   3.25291   3.41031

 Mulliken charges:
               1
     1  H   -0.000000
     2  H   -0.000000
 Sum of Mulliken charges =  -0.00000

 Dipole moment (field-independent basis, Debye):
    X=             -0.0000    Y=             -0.0000    Z=             -0.0000  Tot=              0.0000
 Quadrupole moment (field-independent basis, Debye-Ang):
   XX=             -3.3015   YY=             -3.3015   ZZ=             -1.2181
   XY=             -0.0000   XZ=             -0.0000   YZ=              0.0000

 55734\MP4DQ=-1.0339988\MP4SDQ=-1.0352191\CCSD=-1.0431282\CCSD(T)=-1.04
 Normal termination of Gaussian 16 at Tue Feb 13 16:24:33 2024.
