 Gaussian 16, Revision A.03,
 Gaussian 16:  ES64L-G16RevA.03 25-Dec-2016

 ------------------
 #p CCSD(T)/cc-pVTZ
 ------------------

 ----
 H2_4
 ----
 Symbolic Z-matrix:
 Charge =  0 Multiplicity = 1

                         Standard orientation:
 ---------------------------------------------------------------------
 Center     Atomic      Atomic             Coordinates (Angstroms)
 Number     Number       Type             X           Y           Z
 ---------------------------------------------------------------------
      1          1           0        0.000000    0.000000    0.310000
      2          1           0        0.000000    0.000000   -0.310000
 ---------------------------------------------------------------------

 SCF Done:  E(RHF) =  -1.12085791195     A.U. after    6 cycles
 E2 =    -0.3132689781D-01 EUMP2 =    -0.11521848097577D+01
 CCSD(T)
 CCSD(T)= -0.11591075013D+01

 The electronic state is 1-SGG.
 Alpha  occ. eigenvalues --   -0.63468
 Alpha virt. eigenvalues --    0.18221   0.29367   0.68661   0.70728   0.70728
 Alpha virt. eigenvalues --    1.12371   1.13458   1.13458   1.56554   2.33405
 Alpha virt. eigenvalues --    2.45423   3.20402   3.20402   3.47340   3.47340

 Mulliken charges:
               1
     1  H    0.000000
     2  H    0.000000
 Sum of Mulliken charges =   0.00000

 Dipole moment (field-independent basis, Debye):
    X=              0.0000    Y=              0.0000    Z=              0.0000  Tot=              0.0000
 Quadrupole moment (field-independent basis, Debye-Ang):
   XX=             -1.8964   YY=             -1.8964   ZZ=             -1.4439
   XY=             -0.0000   XZ=             -0.0000   YZ=              0.0000

 8921\MP4DQ=-1.1586429\MP4SDQ=-1.1586857\CCSD=-1.1591075\CCSD(T)=-1.159
 Normal termination of Gaussian 16 at Tue Feb 13 16:23:59 2024.
