 Gaussian 16, Revision A.03,
 Gaussian 16:  ES64L-G16RevA.03 25-Dec-2016

 ------------------
 #p CCSD(T)/cc-pVTZ
 ------------------

 -----
 H2_42
 -----
 Symbolic Z-matrix:
 Charge =  0 Multiplicity = 1

                         Standard orientation:
 ---------------------------------------------------------------------
 Center     Atomic      Atomic             Coordinates (Angstroms)
 Number     Number       Type             X           Y           Z
 ---------------------------------------------------------------------
      1          1           0        0.000000    0.000000    0.880000
      2          1           0        0.000000    0.000000   -0.880000
 ---------------------------------------------------------------------

 SCF Done:  E(RHF) = -0.959934088101     A.U. after    6 cycles
 E2 =    -0.4519619092D-01 EUMP2 =    -0.10051302790206D+01
 CCSD(T)
 CCSD(T)= -0.10375080079D+01

 The electronic state is 1-SGG.
 Alpha  occ. eigenvalues --   -0.41024
 Alpha virt. eigenvalues --   -0.00917   0.38468   0.42353   0.68157   0.68157
 Alpha virt. eigenvalues --    0.72503   0.88330   0.88330   1.23172   2.43562
 Alpha virt. eigenvalues --    2.62476   3.21643   3.28144   3.28144   3.41401

 Mulliken charges:
               1
     1  H   -0.000000
     2  H   -0.000000
 Sum of Mulliken charges =  -0.00000

 Dipole moment (field-independent basis, Debye):
    X=             -0.0000    Y=              0.0000    Z=              0.0000  Tot=              0.0000
 Quadrupole moment (field-independent basis, Debye-Ang):
   XX=             -3.3516   YY=             -3.3516   ZZ=             -1.1972
   XY=             -0.0000   XZ=             -0.0000   YZ=              0.0000

 291992\MP4DQ=-1.0274286\MP4SDQ=-1.0288107\CCSD=-1.037508\CCSD(T)=-1.03
 Normal termination of Gaussian 16 at Tue Feb 13 16:24:35 2024.
