 Gaussian 16, Revision A.03,
 Gaussian 16:  ES64L-G16RevA.03 25-Dec-2016

 ------------------
 #p CCSD(T)/cc-pVTZ
 ------------------

 -----
 H2_41
 -----
 Symbolic Z-matrix:
 Charge =  0 Multiplicity = 1

                         Standard orientation:
 ---------------------------------------------------------------------
 Center     Atomic      Atomic             Coordinates (Angstroms)
 Number     Number       Type             X           Y           Z
 ---------------------------------------------------------------------
      1          1           0        0.000000    0.000000    0.865000
      2          1           0        0.000000    0.000000   -0.865000
 ---------------------------------------------------------------------

 SCF Done:  E(RHF) = -0.964695487229     A.U. after    6 cycles
 E2 =    -0.4446502135D-01 EUMP2 =    -0.10091605085812D+01
 CCSD(T)
 CCSD(T)= -0.10402453114D+01

 The electronic state is 1-SGG.
 Alpha  occ. eigenvalues --   -0.41336
 Alpha virt. eigenvalues --   -0.00477   0.38275   0.42534   0.67955   0.67955
 Alpha virt. eigenvalues --    0.73434   0.88904   0.88904   1.24313   2.44179
 Alpha virt. eigenvalues --    2.63026   3.20408   3.26744   3.26744   3.41237

 Mulliken charges:
               1
     1  H    0.000000
     2  H    0.000000
 Sum of Mulliken charges =   0.00000

 Dipole moment (field-independent basis, Debye):
    X=              0.0000    Y=             -0.0000    Z=              0.0000  Tot=              0.0000
 Quadrupole moment (field-independent basis, Debye-Ang):
   XX=             -3.3269   YY=             -3.3269   ZZ=             -1.2074
   XY=             -0.0000   XZ=             -0.0000   YZ=              0.0000

 323102\MP4DQ=-1.0306407\MP4SDQ=-1.0319401\CCSD=-1.0402453\CCSD(T)=-1.0
 Normal termination of Gaussian 16 at Tue Feb 13 16:24:34 2024.
