 Gaussian 16, Revision A.03,
 Gaussian 16:  ES64L-G16RevA.03 25-Dec-2016

 ------------------
 #p CCSD(T)/cc-pVTZ
 ------------------

 -----
 H2_51
 -----
 Symbolic Z-matrix:
 Charge =  0 Multiplicity = 1

                         Standard orientation:
 ---------------------------------------------------------------------
 Center     Atomic      Atomic             Coordinates (Angstroms)
 Number     Number       Type             X           Y           Z
 ---------------------------------------------------------------------
      1          1           0        0.000000    0.000000    1.015000
      2          1           0        0.000000    0.000000   -1.015000
 ---------------------------------------------------------------------

 SCF Done:  E(RHF) = -0.921218660462     A.U. after    6 cycles
 E2 =    -0.5285644558D-01 EUMP2 =    -0.97407510604450D+00
 CCSD(T)
 CCSD(T)= -0.10188668092D+01

 The electronic state is 1-SGG.
 Alpha  occ. eigenvalues --   -0.38558
 Alpha virt. eigenvalues --   -0.04448   0.40180   0.41238   0.65747   0.70235
 Alpha virt. eigenvalues --    0.70235   0.83783   0.83783   1.12947   2.42135
 Alpha virt. eigenvalues --    2.57631   3.31015   3.37189   3.37189   3.41651

 Mulliken charges:
               1
     1  H   -0.000000
     2  H   -0.000000
 Sum of Mulliken charges =  -0.00000

 Dipole moment (field-independent basis, Debye):
    X=             -0.0000    Y=             -0.0000    Z=             -0.0000  Tot=              0.0000
 Quadrupole moment (field-independent basis, Debye-Ang):
   XX=             -3.5403   YY=             -3.5403   ZZ=             -1.1356
   XY=             -0.0000   XZ=             -0.0000   YZ=              0.0000

 081031\MP4DQ=-1.005078\MP4SDQ=-1.0073848\CCSD=-1.0188668\CCSD(T)=-1.01
 Normal termination of Gaussian 16 at Tue Feb 13 16:24:44 2024.
