 Gaussian 16, Revision A.03,
 Gaussian 16:  ES64L-G16RevA.03 25-Dec-2016

 ------------------
 #p CCSD(T)/cc-pVTZ
 ------------------

 -----
 H2_53
 -----
 Symbolic Z-matrix:
 Charge =  0 Multiplicity = 1

                         Standard orientation:
 ---------------------------------------------------------------------
 Center     Atomic      Atomic             Coordinates (Angstroms)
 Number     Number       Type             X           Y           Z
 ---------------------------------------------------------------------
      1          1           0        0.000000    0.000000    1.045000
      2          1           0        0.000000    0.000000   -1.045000
 ---------------------------------------------------------------------

 SCF Done:  E(RHF) = -0.913582402843     A.U. after    6 cycles
 E2 =    -0.5482772329D-01 EUMP2 =    -0.96841012613498D+00
 CCSD(T)
 CCSD(T)= -0.10160008269D+01

 The electronic state is 1-SGG.
 Alpha  occ. eigenvalues --   -0.38082
 Alpha virt. eigenvalues --   -0.05133   0.40524   0.41089   0.64790   0.70708
 Alpha virt. eigenvalues --    0.70708   0.82925   0.82925   1.10708   2.42591
 Alpha virt. eigenvalues --    2.56556   3.32550   3.38277   3.38277   3.41543

 Mulliken charges:
               1
     1  H    0.000000
     2  H    0.000000
 Sum of Mulliken charges =   0.00000

 Dipole moment (field-independent basis, Debye):
    X=              0.0000    Y=              0.0000    Z=             -0.0000  Tot=              0.0000
 Quadrupole moment (field-independent basis, Debye-Ang):
   XX=             -3.5746   YY=             -3.5746   ZZ=             -1.1315
   XY=             -0.0000   XZ=             -0.0000   YZ=              0.0000

 05098\MP4DQ=-1.0016891\MP4SDQ=-1.0042489\CCSD=-1.0160008\CCSD(T)=-1.01
 Normal termination of Gaussian 16 at Tue Feb 13 16:24:46 2024.
