 Gaussian 16, Revision A.03,
 Gaussian 16:  ES64L-G16RevA.03 25-Dec-2016

 ------------------
 #p CCSD(T)/cc-pVTZ
 ------------------

 -----
 H2_50
 -----
 Symbolic Z-matrix:
 Charge =  0 Multiplicity = 1

                         Standard orientation:
 ---------------------------------------------------------------------
 Center     Atomic      Atomic             Coordinates (Angstroms)
 Number     Number       Type             X           Y           Z
 ---------------------------------------------------------------------
      1          1           0        0.000000    0.000000    1.000000
      2          1           0        0.000000    0.000000   -1.000000
 ---------------------------------------------------------------------

 SCF Done:  E(RHF) = -0.925163923450     A.U. after    6 cycles
 E2 =    -0.5190784270D-01 EUMP2 =    -0.97707176614961D+00
 CCSD(T)
 CCSD(T)= -0.10204550057D+01

 The electronic state is 1-SGG.
 Alpha  occ. eigenvalues --   -0.38805
 Alpha virt. eigenvalues --   -0.04092   0.39997   0.41324   0.66313   0.69995
 Alpha virt. eigenvalues --    0.69995   0.84232   0.84232   1.14072   2.41987
 Alpha virt. eigenvalues --    2.58169   3.30174   3.36528   3.36528   3.41693

 Mulliken charges:
               1
     1  H   -0.000000
     2  H   -0.000000
 Sum of Mulliken charges =  -0.00000

 Dipole moment (field-independent basis, Debye):
    X=             -0.0000    Y=             -0.0000    Z=             -0.0000  Tot=              0.0000
 Quadrupole moment (field-independent basis, Debye-Ang):
   XX=             -3.5221   YY=             -3.5221   ZZ=             -1.1391
   XY=             -0.0000   XZ=             -0.0000   YZ=              0.0000

 8338\MP4DQ=-1.0069842\MP4SDQ=-1.0091713\CCSD=-1.020455\CCSD(T)=-1.0204
 Normal termination of Gaussian 16 at Tue Feb 13 16:24:43 2024.
