 Gaussian 16, Revision A.03,
 Gaussian 16:  ES64L-G16RevA.03 25-Dec-2016

 ------------------
 #p CCSD(T)/cc-pVTZ
 ------------------

 -----
 H2_55
 -----
 Symbolic Z-matrix:
 Charge =  0 Multiplicity = 1

                         Standard orientation:
 ---------------------------------------------------------------------
 Center     Atomic      Atomic             Coordinates (Angstroms)
 Number     Number       Type             X           Y           Z
 ---------------------------------------------------------------------
      1          1           0        0.000000    0.000000    1.075000
      2          1           0        0.000000    0.000000   -1.075000
 ---------------------------------------------------------------------

 SCF Done:  E(RHF) = -0.906276211870     A.U. after    6 cycles
 E2 =    -0.5689812004D-01 EUMP2 =    -0.96317433190552D+00
 CCSD(T)
 CCSD(T)= -0.10135157025D+01

 The electronic state is 1-SGG.
 Alpha  occ. eigenvalues --   -0.37629
 Alpha virt. eigenvalues --   -0.05785   0.40823   0.40968   0.64086   0.71168
 Alpha virt. eigenvalues --    0.71168   0.82125   0.82125   1.08492   2.43214
 Alpha virt. eigenvalues --    2.55493   3.33904   3.39085   3.39085   3.41412

 Mulliken charges:
               1
     1  H    0.000000
     2  H    0.000000
 Sum of Mulliken charges =   0.00000

 Dipole moment (field-independent basis, Debye):
    X=              0.0000    Y=              0.0000    Z=             -0.0000  Tot=              0.0000
 Quadrupole moment (field-independent basis, Debye-Ang):
   XX=             -3.6063   YY=             -3.6063   ZZ=             -1.1315
   XY=             -0.0000   XZ=             -0.0000   YZ=              0.0000

 026973\MP4DQ=-0.9988568\MP4SDQ=-1.0016881\CCSD=-1.0135157\CCSD(T)=-1.0
 Normal termination of Gaussian 16 at Tue Feb 13 16:24:48 2024.
