 Gaussian 16, Revision A.03,
 Gaussian 16:  ES64L-G16RevA.03 25-Dec-2016

 ------------------
 #p CCSD(T)/cc-pVTZ
 ------------------

 ----
 H2_5
 ----
 Symbolic Z-matrix:
 Charge =  0 Multiplicity = 1

                         Standard orientation:
 ---------------------------------------------------------------------
 Center     Atomic      Atomic             Coordinates (Angstroms)
 Number     Number       Type             X           Y           Z
 ---------------------------------------------------------------------
      1          1           0        0.000000    0.000000    0.325000
      2          1           0        0.000000    0.000000   -0.325000
 ---------------------------------------------------------------------

 SCF Done:  E(RHF) =  -1.12683721678     A.U. after    6 cycles
 E2 =    -0.3139671359D-01 EUMP2 =    -0.11582339303716D+01
 CCSD(T)
 CCSD(T)= -0.11653213414D+01

 The electronic state is 1-SGG.
 Alpha  occ. eigenvalues --   -0.62410
 Alpha virt. eigenvalues --    0.17887   0.29653   0.67719   0.70338   0.70338
 Alpha virt. eigenvalues --    1.11791   1.13202   1.13202   1.55802   2.35453
 Alpha virt. eigenvalues --    2.40042   3.19446   3.19446   3.45997   3.45997

 Mulliken charges:
               1
     1  H   -0.000000
     2  H   -0.000000
 Sum of Mulliken charges =  -0.00000

 Dipole moment (field-independent basis, Debye):
    X=             -0.0000    Y=              0.0000    Z=              0.0000  Tot=              0.0000
 Quadrupole moment (field-independent basis, Debye-Ang):
   XX=             -1.9452   YY=             -1.9452   ZZ=             -1.4515
   XY=             -0.0000   XZ=             -0.0000   YZ=              0.0000

 50999\MP4DQ=-1.1648121\MP4SDQ=-1.1648618\CCSD=-1.1653213\CCSD(T)=-1.16
 Normal termination of Gaussian 16 at Tue Feb 13 16:24:00 2024.
