 Gaussian 16, Revision A.03,
 Gaussian 16:  ES64L-G16RevA.03 25-Dec-2016

 ------------------
 #p CCSD(T)/cc-pVTZ
 ------------------

 -----
 H2_59
 -----
 Symbolic Z-matrix:
 Charge =  0 Multiplicity = 1

                         Standard orientation:
 ---------------------------------------------------------------------
 Center     Atomic      Atomic             Coordinates (Angstroms)
 Number     Number       Type             X           Y           Z
 ---------------------------------------------------------------------
      1          1           0        0.000000    0.000000    1.135000
      2          1           0        0.000000    0.000000   -1.135000
 ---------------------------------------------------------------------

 SCF Done:  E(RHF) = -0.892609451580     A.U. after    6 cycles
 E2 =    -0.6133715452D-01 EUMP2 =    -0.95394660609995D+00
 CCSD(T)
 CCSD(T)= -0.10095325962D+01

 The electronic state is 1-SGG.
 Alpha  occ. eigenvalues --   -0.36784
 Alpha virt. eigenvalues --   -0.06994   0.40801   0.41207   0.63489   0.72021
 Alpha virt. eigenvalues --    0.72021   0.80692   0.80692   1.04150   2.44744
 Alpha virt. eigenvalues --    2.53465   3.36142   3.40042   3.40042   3.41124

 Mulliken charges:
               1
     1  H   -0.000000
     2  H   -0.000000
 Sum of Mulliken charges =  -0.00000

 Dipole moment (field-independent basis, Debye):
    X=             -0.0000    Y=             -0.0000    Z=              0.0000  Tot=              0.0000
 Quadrupole moment (field-independent basis, Debye-Ang):
   XX=             -3.6622   YY=             -3.6622   ZZ=             -1.1444
   XY=             -0.0000   XZ=             -0.0000   YZ=              0.0000

 996862\MP4DQ=-0.9948188\MP4SDQ=-0.9982501\CCSD=-1.0095326\CCSD(T)=-1.0
 Normal termination of Gaussian 16 at Tue Feb 13 16:24:52 2024.
