 Gaussian 16, Revision A.03,
 Gaussian 16:  ES64L-G16RevA.03 25-Dec-2016

 ------------------
 #p CCSD(T)/cc-pVTZ
 ------------------

 -----
 H2_63
 -----
 Symbolic Z-matrix:
 Charge =  0 Multiplicity = 1

                         Standard orientation:
 ---------------------------------------------------------------------
 Center     Atomic      Atomic             Coordinates (Angstroms)
 Number     Number       Type             X           Y           Z
 ---------------------------------------------------------------------
      1          1           0        0.000000    0.000000    1.195000
      2          1           0        0.000000    0.000000   -1.195000
 ---------------------------------------------------------------------

 SCF Done:  E(RHF) = -0.880127465674     A.U. after    6 cycles
 E2 =    -0.6617318752D-01 EUMP2 =    -0.94630065318964D+00
 CCSD(T)
 CCSD(T)= -0.10066233067D+01

 The electronic state is 1-SGG.
 Alpha  occ. eigenvalues --   -0.36011
 Alpha virt. eigenvalues --   -0.08083   0.40720   0.41217   0.63930   0.72761
 Alpha virt. eigenvalues --    0.72761   0.79482   0.79482   0.99983   2.46319
 Alpha virt. eigenvalues --    2.51682   3.37837   3.40412   3.40412   3.40839

 Mulliken charges:
               1
     1  H    0.000000
     2  H    0.000000
 Sum of Mulliken charges =   0.00000

 Dipole moment (field-independent basis, Debye):
    X=              0.0000    Y=              0.0000    Z=              0.0000  Tot=              0.0000
 Quadrupole moment (field-independent basis, Debye-Ang):
   XX=             -3.7084   YY=             -3.7084   ZZ=             -1.1746
   XY=             -0.0000   XZ=             -0.0000   YZ=              0.0000

 990155\MP4DQ=-0.9928642\MP4SDQ=-0.9969736\CCSD=-1.0066233\CCSD(T)=-1.0
 Normal termination of Gaussian 16 at Tue Feb 13 16:24:57 2024.
