 Gaussian 16, Revision A.03,
 Gaussian 16:  ES64L-G16RevA.03 25-Dec-2016

 ------------------
 #p CCSD(T)/cc-pVTZ
 ------------------

 -----
 H2_61
 -----
 Symbolic Z-matrix:
 Charge =  0 Multiplicity = 1

                         Standard orientation:
 ---------------------------------------------------------------------
 Center     Atomic      Atomic             Coordinates (Angstroms)
 Number     Number       Type             X           Y           Z
 ---------------------------------------------------------------------
      1          1           0        0.000000    0.000000    1.165000
      2          1           0        0.000000    0.000000   -1.165000
 ---------------------------------------------------------------------

 SCF Done:  E(RHF) = -0.886226101268     A.U. after    6 cycles
 E2 =    -0.6370571408D-01 EUMP2 =    -0.94993181535087D+00
 CCSD(T)
 CCSD(T)= -0.10079607800D+01

 The electronic state is 1-SGG.
 Alpha  occ. eigenvalues --   -0.36389
 Alpha virt. eigenvalues --   -0.07553   0.40751   0.41261   0.63590   0.72406
 Alpha virt. eigenvalues --    0.72406   0.80060   0.80060   1.02040   2.45548
 Alpha virt. eigenvalues --    2.52535   3.37053   3.40281   3.40281   3.40979

 Mulliken charges:
               1
     1  H    0.000000
     2  H    0.000000
 Sum of Mulliken charges =   0.00000

 Dipole moment (field-independent basis, Debye):
    X=              0.0000    Y=              0.0000    Z=             -0.0000  Tot=              0.0000
 Quadrupole moment (field-independent basis, Debye-Ang):
   XX=             -3.6864   YY=             -3.6864   ZZ=             -1.1574
   XY=             -0.0000   XZ=             -0.0000   YZ=              0.0000

 990623\MP4DQ=-0.993588\MP4SDQ=-0.9973486\CCSD=-1.0079608\CCSD(T)=-1.00
 Normal termination of Gaussian 16 at Tue Feb 13 16:24:55 2024.
