 Gaussian 16, Revision A.03,
 Gaussian 16:  ES64L-G16RevA.03 25-Dec-2016

 ------------------
 #p CCSD(T)/cc-pVTZ
 ------------------

 -----
 H2_65
 -----
 Symbolic Z-matrix:
 Charge =  0 Multiplicity = 1

                         Standard orientation:
 ---------------------------------------------------------------------
 Center     Atomic      Atomic             Coordinates (Angstroms)
 Number     Number       Type             X           Y           Z
 ---------------------------------------------------------------------
      1          1           0        0.000000    0.000000    1.225000
      2          1           0        0.000000    0.000000   -1.225000
 ---------------------------------------------------------------------

 SCF Done:  E(RHF) = -0.874302105475     A.U. after    6 cycles
 E2 =    -0.6873891354D-01 EUMP2 =    -0.94304101901985D+00
 CCSD(T)
 CCSD(T)= -0.10054894195D+01

 The electronic state is 1-SGG.
 Alpha  occ. eigenvalues --   -0.35649
 Alpha virt. eigenvalues --   -0.08586   0.40709   0.41083   0.64471   0.73082
 Alpha virt. eigenvalues --    0.73082   0.78957   0.78957   0.97987   2.47020
 Alpha virt. eigenvalues --    2.50919   3.38494   3.40468   3.40468   3.40707

 Mulliken charges:
               1
     1  H   -0.000000
     2  H   -0.000000
 Sum of Mulliken charges =  -0.00000

 Dipole moment (field-independent basis, Debye):
    X=             -0.0000    Y=             -0.0000    Z=             -0.0000  Tot=              0.0000
 Quadrupole moment (field-independent basis, Debye-Ang):
   XX=             -3.7280   YY=             -3.7280   ZZ=             -1.1960
   XY=             -0.0000   XZ=             -0.0000   YZ=              0.0000

 95373\MP4DQ=-0.9926318\MP4SDQ=-0.9971099\CCSD=-1.0054894\CCSD(T)=-1.00
 Normal termination of Gaussian 16 at Tue Feb 13 16:24:59 2024.
