 Gaussian 16, Revision A.03,
 Gaussian 16:  ES64L-G16RevA.03 25-Dec-2016

 ------------------
 #p CCSD(T)/cc-pVTZ
 ------------------

 -----
 H2_70
 -----
 Symbolic Z-matrix:
 Charge =  0 Multiplicity = 1

                         Standard orientation:
 ---------------------------------------------------------------------
 Center     Atomic      Atomic             Coordinates (Angstroms)
 Number     Number       Type             X           Y           Z
 ---------------------------------------------------------------------
      1          1           0        0.000000    0.000000    1.300000
      2          1           0        0.000000    0.000000   -1.300000
 ---------------------------------------------------------------------

 SCF Done:  E(RHF) = -0.860860508741     A.U. after    6 cycles
 E2 =    -0.7557631646D-01 EUMP2 =    -0.93643682519861D+00
 CCSD(T)
 CCSD(T)= -0.10033698148D+01

 The electronic state is 1-SGG.
 Alpha  occ. eigenvalues --   -0.34807
 Alpha virt. eigenvalues --   -0.09732   0.40451   0.40756   0.66394   0.73746
 Alpha virt. eigenvalues --    0.73746   0.77862   0.77862   0.93324   2.48313
 Alpha virt. eigenvalues --    2.49446   3.39609   3.40419   3.40419   3.40423

 Mulliken charges:
               1
     1  H   -0.000000
     2  H   -0.000000
 Sum of Mulliken charges =  -0.00000

 Dipole moment (field-independent basis, Debye):
    X=             -0.0000    Y=             -0.0000    Z=             -0.0000  Tot=              0.0000
 Quadrupole moment (field-independent basis, Debye-Ang):
   XX=             -3.7681   YY=             -3.7681   ZZ=             -1.2659
   XY=             -0.0000   XZ=             -0.0000   YZ=              0.0000

 32642\MP4DQ=-0.9940896\MP4SDQ=-0.9995764\CCSD=-1.0033698\CCSD(T)=-1.00
 Normal termination of Gaussian 16 at Tue Feb 13 16:25:05 2024.
