 Gaussian 16, Revision A.03,
 Gaussian 16:  ES64L-G16RevA.03 25-Dec-2016

 ------------------
 #p CCSD(T)/cc-pVTZ
 ------------------

 -----
 H2_71
 -----
 Symbolic Z-matrix:
 Charge =  0 Multiplicity = 1

                         Standard orientation:
 ---------------------------------------------------------------------
 Center     Atomic      Atomic             Coordinates (Angstroms)
 Number     Number       Type             X           Y           Z
 ---------------------------------------------------------------------
      1          1           0        0.000000    0.000000    1.315000
      2          1           0        0.000000    0.000000   -1.315000
 ---------------------------------------------------------------------

 SCF Done:  E(RHF) = -0.858353534405     A.U. after    6 cycles
 E2 =    -0.7701497047D-01 EUMP2 =    -0.93536850487202D+00
 CCSD(T)
 CCSD(T)= -0.10030453470D+01

 The electronic state is 1-SGG.
 Alpha  occ. eigenvalues --   -0.34648
 Alpha virt. eigenvalues --   -0.09943   0.40291   0.40778   0.66831   0.73856
 Alpha virt. eigenvalues --    0.73856   0.77678   0.77678   0.92455   2.48481
 Alpha virt. eigenvalues --    2.49228   3.39750   3.40369   3.40369   3.40390

 Mulliken charges:
               1
     1  H    0.000000
     2  H    0.000000
 Sum of Mulliken charges =   0.00000

 Dipole moment (field-independent basis, Debye):
    X=              0.0000    Y=             -0.0000    Z=             -0.0000  Tot=              0.0000
 Quadrupole moment (field-independent basis, Debye-Ang):
   XX=             -3.7747   YY=             -3.7747   ZZ=             -1.2826
   XY=             -0.0000   XZ=             -0.0000   YZ=              0.0000

 044144\MP4DQ=-0.9947125\MP4SDQ=-1.0004158\CCSD=-1.0030453\CCSD(T)=-1.0
 Normal termination of Gaussian 16 at Tue Feb 13 16:25:07 2024.
