 Gaussian 16, Revision A.03,
 Gaussian 16:  ES64L-G16RevA.03 25-Dec-2016

 ------------------
 #p CCSD(T)/cc-pVTZ
 ------------------

 ----
 H2_7
 ----
 Symbolic Z-matrix:
 Charge =  0 Multiplicity = 1

                         Standard orientation:
 ---------------------------------------------------------------------
 Center     Atomic      Atomic             Coordinates (Angstroms)
 Number     Number       Type             X           Y           Z
 ---------------------------------------------------------------------
      1          1           0        0.000000    0.000000    0.355000
      2          1           0        0.000000    0.000000   -0.355000
 ---------------------------------------------------------------------

 SCF Done:  E(RHF) =  -1.13253948434     A.U. after    6 cycles
 E2 =    -0.3157051180D-01 EUMP2 =    -0.11641099961352D+01
 CCSD(T)
 CCSD(T)= -0.11715794714D+01

 The electronic state is 1-SGG.
 Alpha  occ. eigenvalues --   -0.60411
 Alpha virt. eigenvalues --    0.17136   0.30220   0.65546   0.69609   0.69609
 Alpha virt. eigenvalues --    1.10438   1.12475   1.12475   1.53924   2.34380
 Alpha virt. eigenvalues --    2.39067   3.18008   3.18008   3.42974   3.42974

 Mulliken charges:
               1
     1  H   -0.000000
     2  H   -0.000000
 Sum of Mulliken charges =  -0.00000

 Dipole moment (field-independent basis, Debye):
    X=             -0.0000    Y=             -0.0000    Z=              0.0000  Tot=              0.0000
 Quadrupole moment (field-independent basis, Debye-Ang):
   XX=             -2.0420   YY=             -2.0420   ZZ=             -1.4634
   XY=             -0.0000   XZ=             -0.0000   YZ=              0.0000

 736\MP4DQ=-1.1709645\MP4SDQ=-1.1710298\CCSD=-1.1715795\CCSD(T)=-1.1715
 Normal termination of Gaussian 16 at Tue Feb 13 16:24:02 2024.
