 Gaussian 16, Revision A.03,
 Gaussian 16:  ES64L-G16RevA.03 25-Dec-2016

 ------------------
 #p CCSD(T)/cc-pVTZ
 ------------------

 -----
 H2_74
 -----
 Symbolic Z-matrix:
 Charge =  0 Multiplicity = 1

                         Standard orientation:
 ---------------------------------------------------------------------
 Center     Atomic      Atomic             Coordinates (Angstroms)
 Number     Number       Type             X           Y           Z
 ---------------------------------------------------------------------
      1          1           0        0.000000    0.000000    1.360000
      2          1           0        0.000000    0.000000   -1.360000
 ---------------------------------------------------------------------

 SCF Done:  E(RHF) = -0.851171535712     A.U. after    6 cycles
 E2 =    -0.8146949146D-01 EUMP2 =    -0.93264102717431D+00
 CCSD(T)
 CCSD(T)= -0.10022273196D+01

 The electronic state is 1-SGG.
 Alpha  occ. eigenvalues --   -0.34190
 Alpha virt. eigenvalues --   -0.10545   0.39779   0.40867   0.68156   0.74142
 Alpha virt. eigenvalues --    0.74142   0.77187   0.77187   0.89989   2.48715
 Alpha virt. eigenvalues --    2.48799   3.40040   3.40235   3.40235   3.40250

 Mulliken charges:
               1
     1  H    0.000000
     2  H    0.000000
 Sum of Mulliken charges =   0.00000

 Dipole moment (field-independent basis, Debye):
    X=              0.0000    Y=              0.0000    Z=              0.0000  Tot=              0.0000
 Quadrupole moment (field-independent basis, Debye-Ang):
   XX=             -3.7918   YY=             -3.7918   ZZ=             -1.3375
   XY=             -0.0000   XZ=             -0.0000   YZ=              0.0000

 86491\MP4DQ=-0.9972003\MP4SDQ=-1.0035826\CCSD=-1.0022273\CCSD(T)=-1.00
 Normal termination of Gaussian 16 at Tue Feb 13 16:25:10 2024.
