 Gaussian 16, Revision A.03,
 Gaussian 16:  ES64L-G16RevA.03 25-Dec-2016

 ------------------
 #p CCSD(T)/cc-pVTZ
 ------------------

 -----
 H2_79
 -----
 Symbolic Z-matrix:
 Charge =  0 Multiplicity = 1

                         Standard orientation:
 ---------------------------------------------------------------------
 Center     Atomic      Atomic             Coordinates (Angstroms)
 Number     Number       Type             X           Y           Z
 ---------------------------------------------------------------------
      1          1           0        0.000000    0.000000    1.435000
      2          1           0        0.000000    0.000000   -1.435000
 ---------------------------------------------------------------------

 SCF Done:  E(RHF) = -0.840256649213     A.U. after    6 cycles
 E2 =    -0.8934022665D-01 EUMP2 =    -0.92959687586699D+00
 CCSD(T)
 CCSD(T)= -0.10012688011D+01

 The electronic state is 1-SGG.
 Alpha  occ. eigenvalues --   -0.33483
 Alpha virt. eigenvalues --   -0.11446   0.38902   0.41083   0.70216   0.74495
 Alpha virt. eigenvalues --    0.74495   0.76555   0.76555   0.86378   2.48290
 Alpha virt. eigenvalues --    2.48782   3.40061   3.40061   3.40071   3.40071

 Mulliken charges:
               1
     1  H    0.000000
     2  H    0.000000
 Sum of Mulliken charges =   0.00000

 Dipole moment (field-independent basis, Debye):
    X=              0.0000    Y=              0.0000    Z=              0.0000  Tot=              0.0000
 Quadrupole moment (field-independent basis, Debye-Ang):
   XX=             -3.8126   YY=             -3.8126   ZZ=             -1.4441
   XY=             -0.0000   XZ=             -0.0000   YZ=              0.0000

 182316\MP4DQ=-1.0032552\MP4SDQ=-1.0108653\CCSD=-1.0012688\CCSD(T)=-1.0
 Normal termination of Gaussian 16 at Tue Feb 13 16:25:17 2024.
