 Gaussian 16, Revision A.03,
 Gaussian 16:  ES64L-G16RevA.03 25-Dec-2016

 ------------------
 #p CCSD(T)/cc-pVTZ
 ------------------

 -----
 H2_75
 -----
 Symbolic Z-matrix:
 Charge =  0 Multiplicity = 1

                         Standard orientation:
 ---------------------------------------------------------------------
 Center     Atomic      Atomic             Coordinates (Angstroms)
 Number     Number       Type             X           Y           Z
 ---------------------------------------------------------------------
      1          1           0        0.000000    0.000000    1.375000
      2          1           0        0.000000    0.000000   -1.375000
 ---------------------------------------------------------------------

 SCF Done:  E(RHF) = -0.848886286881     A.U. after    6 cycles
 E2 =    -0.8299970529D-01 EUMP2 =    -0.93188599217343D+00
 CCSD(T)
 CCSD(T)= -0.10019996925D+01

 The electronic state is 1-SGG.
 Alpha  occ. eigenvalues --   -0.34043
 Alpha virt. eigenvalues --   -0.10735   0.39603   0.40904   0.68590   0.74224
 Alpha virt. eigenvalues --    0.74224   0.77044   0.77044   0.89216   2.48590
 Alpha virt. eigenvalues --    2.48847   3.40100   3.40195   3.40195   3.40209

 Mulliken charges:
               1
     1  H    0.000000
     2  H    0.000000
 Sum of Mulliken charges =   0.00000

 Dipole moment (field-independent basis, Debye):
    X=              0.0000    Y=              0.0000    Z=              0.0000  Tot=              0.0000
 Quadrupole moment (field-independent basis, Debye-Ang):
   XX=             -3.7967   YY=             -3.7967   ZZ=             -1.3574
   XY=             -0.0000   XZ=             -0.0000   YZ=              0.0000

 03172\MP4DQ=-0.9982274\MP4SDQ=-1.0048458\CCSD=-1.0019997\CCSD(T)=-1.00
 Normal termination of Gaussian 16 at Tue Feb 13 16:25:12 2024.
