 Gaussian 16, Revision A.03,
 Gaussian 16:  ES64L-G16RevA.03 25-Dec-2016

 ------------------
 #p CCSD(T)/cc-pVTZ
 ------------------

 -----
 H2_77
 -----
 Symbolic Z-matrix:
 Charge =  0 Multiplicity = 1

                         Standard orientation:
 ---------------------------------------------------------------------
 Center     Atomic      Atomic             Coordinates (Angstroms)
 Number     Number       Type             X           Y           Z
 ---------------------------------------------------------------------
      1          1           0        0.000000    0.000000    1.405000
      2          1           0        0.000000    0.000000   -1.405000
 ---------------------------------------------------------------------

 SCF Done:  E(RHF) = -0.844471554861     A.U. after    6 cycles
 E2 =    -0.8612660560D-01 EUMP2 =    -0.93059816045741D+00
 CCSD(T)
 CCSD(T)= -0.10016013605D+01

 The electronic state is 1-SGG.
 Alpha  occ. eigenvalues --   -0.33758
 Alpha virt. eigenvalues --   -0.11100   0.39250   0.40988   0.69429   0.74370
 Alpha virt. eigenvalues --    0.74370   0.76783   0.76783   0.87746   2.48402
 Alpha virt. eigenvalues --    2.48862   3.40123   3.40123   3.40135   3.40135

 Mulliken charges:
               1
     1  H   -0.000000
     2  H   -0.000000
 Sum of Mulliken charges =  -0.00000

 Dipole moment (field-independent basis, Debye):
    X=             -0.0000    Y=              0.0000    Z=             -0.0000  Tot=              0.0000
 Quadrupole moment (field-independent basis, Debye-Ang):
   XX=             -3.8053   YY=             -3.8053   ZZ=             -1.3993
   XY=             -0.0000   XZ=             -0.0000   YZ=              0.0000

 40291\MP4DQ=-1.0005629\MP4SDQ=-1.0076677\CCSD=-1.0016014\CCSD(T)=-1.00
 Normal termination of Gaussian 16 at Tue Feb 13 16:25:14 2024.
