 Gaussian 16, Revision A.03,
 Gaussian 16:  ES64L-G16RevA.03 25-Dec-2016

 ------------------
 #p CCSD(T)/cc-pVTZ
 ------------------

 -----
 H2_82
 -----
 Symbolic Z-matrix:
 Charge =  0 Multiplicity = 1

                         Standard orientation:
 ---------------------------------------------------------------------
 Center     Atomic      Atomic             Coordinates (Angstroms)
 Number     Number       Type             X           Y           Z
 ---------------------------------------------------------------------
      1          1           0        0.000000    0.000000    1.480000
      2          1           0        0.000000    0.000000   -1.480000
 ---------------------------------------------------------------------

 SCF Done:  E(RHF) = -0.834289168961     A.U. after    6 cycles
 E2 =    -0.9431789702D-01 EUMP2 =    -0.92860706597900D+00
 CCSD(T)
 CCSD(T)= -0.10008706272D+01

 The electronic state is 1-SGG.
 Alpha  occ. eigenvalues --   -0.33088
 Alpha virt. eigenvalues --   -0.11932   0.38404   0.41245   0.71272   0.74645
 Alpha virt. eigenvalues --    0.74645   0.76269   0.76269   0.84519   2.48243
 Alpha virt. eigenvalues --    2.48519   3.39983   3.39983   3.39991   3.39991

 Mulliken charges:
               1
     1  H    0.000000
     2  H    0.000000
 Sum of Mulliken charges =   0.00000

 Dipole moment (field-independent basis, Debye):
    X=              0.0000    Y=              0.0000    Z=             -0.0000  Tot=              0.0000
 Quadrupole moment (field-independent basis, Debye-Ang):
   XX=             -3.8213   YY=             -3.8213   ZZ=             -1.5161
   XY=             -0.0000   XZ=             -0.0000   YZ=              0.0000

 254272\MP4DQ=-1.0079141\MP4SDQ=-1.0163164\CCSD=-1.0008706\CCSD(T)=-1.0
 Normal termination of Gaussian 16 at Tue Feb 13 16:25:20 2024.
