 Gaussian 16, Revision A.03,
 Gaussian 16:  ES64L-G16RevA.03 25-Dec-2016

 ------------------
 #p CCSD(T)/cc-pVTZ
 ------------------

 -----
 H2_89
 -----
 Symbolic Z-matrix:
 Charge =  0 Multiplicity = 1

                         Standard orientation:
 ---------------------------------------------------------------------
 Center     Atomic      Atomic             Coordinates (Angstroms)
 Number     Number       Type             X           Y           Z
 ---------------------------------------------------------------------
      1          1           0        0.000000    0.000000    1.585000
      2          1           0        0.000000    0.000000   -1.585000
 ---------------------------------------------------------------------

 SCF Done:  E(RHF) = -0.821874261496     A.U. after    6 cycles
 E2 =    -0.1066187933D+00 EUMP2 =    -0.92849305478484D+00
 CCSD(T)
 CCSD(T)= -0.10002748147D+01

 The electronic state is 1-SGG.
 Alpha  occ. eigenvalues --   -0.32245
 Alpha virt. eigenvalues --   -0.12927   0.37410   0.41654   0.73109   0.74871
 Alpha virt. eigenvalues --    0.74871   0.75809   0.75809   0.81053   2.47504
 Alpha virt. eigenvalues --    2.48522   3.39870   3.39870   3.39875   3.39875

 Mulliken charges:
               1
     1  H   -0.000000
     2  H   -0.000000
 Sum of Mulliken charges =  -0.00000

 Dipole moment (field-independent basis, Debye):
    X=             -0.0000    Y=             -0.0000    Z=              0.0000  Tot=              0.0000
 Quadrupole moment (field-independent basis, Debye-Ang):
   XX=             -3.8327   YY=             -3.8327   ZZ=             -1.7037
   XY=             -0.0000   XZ=             -0.0000   YZ=              0.0000

 461443\MP4DQ=-1.0212731\MP4SDQ=-1.0316751\CCSD=-1.0002748\CCSD(T)=-1.0
 Normal termination of Gaussian 16 at Tue Feb 13 16:25:29 2024.
