 Gaussian 16, Revision A.03,
 Gaussian 16:  ES64L-G16RevA.03 25-Dec-2016

 ------------------
 #p CCSD(T)/cc-pVTZ
 ------------------

 -----
 H2_85
 -----
 Symbolic Z-matrix:
 Charge =  0 Multiplicity = 1

                         Standard orientation:
 ---------------------------------------------------------------------
 Center     Atomic      Atomic             Coordinates (Angstroms)
 Number     Number       Type             X           Y           Z
 ---------------------------------------------------------------------
      1          1           0        0.000000    0.000000    1.525000
      2          1           0        0.000000    0.000000   -1.525000
 ---------------------------------------------------------------------

 SCF Done:  E(RHF) = -0.828721813437     A.U. after    6 cycles
 E2 =    -0.9947633467D-01 EUMP2 =    -0.92819814810518D+00
 CCSD(T)
 CCSD(T)= -0.10005679642D+01

 The electronic state is 1-SGG.
 Alpha  occ. eigenvalues --   -0.32714
 Alpha virt. eigenvalues --   -0.12381   0.37945   0.41419   0.72166   0.74760
 Alpha virt. eigenvalues --    0.74760   0.76041   0.76041   0.82888   2.48130
 Alpha virt. eigenvalues --    2.48311   3.39924   3.39924   3.39931   3.39931

 Mulliken charges:
               1
     1  H    0.000000
     2  H    0.000000
 Sum of Mulliken charges =   0.00000

 Dipole moment (field-independent basis, Debye):
    X=              0.0000    Y=             -0.0000    Z=             -0.0000  Tot=              0.0000
 Quadrupole moment (field-independent basis, Debye-Ang):
   XX=             -3.8275   YY=             -3.8275   ZZ=             -1.5934
   XY=             -0.0000   XZ=             -0.0000   YZ=              0.0000

 336535\MP4DQ=-1.0132486\MP4SDQ=-1.022483\CCSD=-1.000568\CCSD(T)=-1.000
 Normal termination of Gaussian 16 at Tue Feb 13 16:25:24 2024.
