 Gaussian 16, Revision A.03,
 Gaussian 16:  ES64L-G16RevA.03 25-Dec-2016

 ------------------
 #p CCSD(T)/cc-pVTZ
 ------------------

 -----
 H2_83
 -----
 Symbolic Z-matrix:
 Charge =  0 Multiplicity = 1

                         Standard orientation:
 ---------------------------------------------------------------------
 Center     Atomic      Atomic             Coordinates (Angstroms)
 Number     Number       Type             X           Y           Z
 ---------------------------------------------------------------------
      1          1           0        0.000000    0.000000    1.495000
      2          1           0        0.000000    0.000000   -1.495000
 ---------------------------------------------------------------------

 SCF Done:  E(RHF) = -0.832390308335     A.U. after    6 cycles
 E2 =    -0.9601774913D-01 EUMP2 =    -0.92840805746919D+00
 CCSD(T)
 CCSD(T)= -0.10007603606D+01

 The electronic state is 1-SGG.
 Alpha  occ. eigenvalues --   -0.32961
 Alpha virt. eigenvalues --   -0.12085   0.38246   0.41302   0.71588   0.74687
 Alpha virt. eigenvalues --    0.74687   0.76187   0.76187   0.83950   2.48255
 Alpha virt. eigenvalues --    2.48400   3.39961   3.39961   3.39969   3.39969

 Mulliken charges:
               1
     1  H   -0.000000
     2  H   -0.000000
 Sum of Mulliken charges =  -0.00000

 Dipole moment (field-independent basis, Debye):
    X=             -0.0000    Y=             -0.0000    Z=              0.0000  Tot=              0.0000
 Quadrupole moment (field-independent basis, Debye-Ang):
   XX=             -3.8236   YY=             -3.8236   ZZ=             -1.5413
   XY=             -0.0000   XZ=             -0.0000   YZ=              0.0000

 28057\MP4DQ=-1.0096211\MP4SDQ=-1.0182965\CCSD=-1.0007604\CCSD(T)=-1.00
 Normal termination of Gaussian 16 at Tue Feb 13 16:25:21 2024.
