 Gaussian 16, Revision A.03,
 Gaussian 16:  ES64L-G16RevA.03 25-Dec-2016

 ------------------
 #p CCSD(T)/cc-pVTZ
 ------------------

 -----
 H2_84
 -----
 Symbolic Z-matrix:
 Charge =  0 Multiplicity = 1

                         Standard orientation:
 ---------------------------------------------------------------------
 Center     Atomic      Atomic             Coordinates (Angstroms)
 Number     Number       Type             X           Y           Z
 ---------------------------------------------------------------------
      1          1           0        0.000000    0.000000    1.510000
      2          1           0        0.000000    0.000000   -1.510000
 ---------------------------------------------------------------------

 SCF Done:  E(RHF) = -0.830534859361     A.U. after    6 cycles
 E2 =    -0.9773734660D-01 EUMP2 =    -0.92827220596061D+00
 CCSD(T)
 CCSD(T)= -0.10006597492D+01

 The electronic state is 1-SGG.
 Alpha  occ. eigenvalues --   -0.32837
 Alpha virt. eigenvalues --   -0.12235   0.38093   0.41360   0.71887   0.74726
 Alpha virt. eigenvalues --    0.74726   0.76111   0.76111   0.83406   2.48270
 Alpha virt. eigenvalues --    2.48278   3.39942   3.39942   3.39949   3.39949

 Mulliken charges:
               1
     1  H   -0.000000
     2  H   -0.000000
 Sum of Mulliken charges =  -0.00000

 Dipole moment (field-independent basis, Debye):
    X=             -0.0000    Y=              0.0000    Z=             -0.0000  Tot=              0.0000
 Quadrupole moment (field-independent basis, Debye-Ang):
   XX=             -3.8257   YY=             -3.8257   ZZ=             -1.5671
   XY=             -0.0000   XZ=             -0.0000   YZ=              0.0000

 307997\MP4DQ=-1.0114003\MP4SDQ=-1.020353\CCSD=-1.0006597\CCSD(T)=-1.00
 Normal termination of Gaussian 16 at Tue Feb 13 16:25:23 2024.
