 Gaussian 16, Revision A.03,
 Gaussian 16:  ES64L-G16RevA.03 25-Dec-2016

 ------------------
 #p CCSD(T)/cc-pVTZ
 ------------------

 -----
 H2_88
 -----
 Symbolic Z-matrix:
 Charge =  0 Multiplicity = 1

                         Standard orientation:
 ---------------------------------------------------------------------
 Center     Atomic      Atomic             Coordinates (Angstroms)
 Number     Number       Type             X           Y           Z
 ---------------------------------------------------------------------
      1          1           0        0.000000    0.000000    1.570000
      2          1           0        0.000000    0.000000   -1.570000
 ---------------------------------------------------------------------

 SCF Done:  E(RHF) = -0.823527340516     A.U. after    6 cycles
 E2 =    -0.1048059641D+00 EUMP2 =    -0.92833330466179D+00
 CCSD(T)
 CCSD(T)= -0.10003382818D+01

 The electronic state is 1-SGG.
 Alpha  occ. eigenvalues --   -0.32360
 Alpha virt. eigenvalues --   -0.12796   0.37535   0.41597   0.72899   0.74847
 Alpha virt. eigenvalues --    0.74847   0.75860   0.75860   0.81476   2.47667
 Alpha virt. eigenvalues --    2.48460   3.39881   3.39881   3.39887   3.39887

 Mulliken charges:
               1
     1  H   -0.000000
     2  H   -0.000000
 Sum of Mulliken charges =  -0.00000

 Dipole moment (field-independent basis, Debye):
    X=             -0.0000    Y=             -0.0000    Z=              0.0000  Tot=              0.0000
 Quadrupole moment (field-independent basis, Debye-Ang):
   XX=             -3.8317   YY=             -3.8317   ZZ=             -1.6754
   XY=             -0.0000   XZ=             -0.0000   YZ=              0.0000

 428638\MP4DQ=-1.0191784\MP4SDQ=-1.0292826\CCSD=-1.0003383\CCSD(T)=-1.0
 Normal termination of Gaussian 16 at Tue Feb 13 16:25:28 2024.
