 Gaussian 16, Revision A.03,
 Gaussian 16:  ES64L-G16RevA.03 25-Dec-2016

 ------------------
 #p CCSD(T)/cc-pVTZ
 ------------------

 -----
 H2_90
 -----
 Symbolic Z-matrix:
 Charge =  0 Multiplicity = 1

                         Standard orientation:
 ---------------------------------------------------------------------
 Center     Atomic      Atomic             Coordinates (Angstroms)
 Number     Number       Type             X           Y           Z
 ---------------------------------------------------------------------
      1          1           0        0.000000    0.000000    1.600000
      2          1           0        0.000000    0.000000   -1.600000
 ---------------------------------------------------------------------

 SCF Done:  E(RHF) = -0.820258869656     A.U. after    6 cycles
 E2 =    -0.1084491097D+00 EUMP2 =    -0.92870797939626D+00
 CCSD(T)
 CCSD(T)= -0.10002169620D+01

 The electronic state is 1-SGG.
 Alpha  occ. eigenvalues --   -0.32133
 Alpha virt. eigenvalues --   -0.13055   0.37291   0.41711   0.73304   0.74893
 Alpha virt. eigenvalues --    0.74893   0.75763   0.75763   0.80652   2.47339
 Alpha virt. eigenvalues --    2.48589   3.39860   3.39860   3.39865   3.39865

 Mulliken charges:
               1
     1  H    0.000000
     2  H    0.000000
 Sum of Mulliken charges =   0.00000

 Dipole moment (field-independent basis, Debye):
    X=              0.0000    Y=             -0.0000    Z=              0.0000  Tot=              0.0000
 Quadrupole moment (field-independent basis, Debye-Ang):
   XX=             -3.8335   YY=             -3.8335   ZZ=             -1.7324
   XY=             -0.0000   XZ=             -0.0000   YZ=              0.0000

 5269\MP4DQ=-1.0234215\MP4SDQ=-1.0341254\CCSD=-1.000217\CCSD(T)=-1.0002
 Normal termination of Gaussian 16 at Tue Feb 13 16:25:30 2024.
