 Gaussian 16, Revision A.03,
 Gaussian 16:  ES64L-G16RevA.03 25-Dec-2016

 ------------------
 #p CCSD(T)/cc-pVTZ
 ------------------

 -----
 H2_95
 -----
 Symbolic Z-matrix:
 Charge =  0 Multiplicity = 1

                         Standard orientation:
 ---------------------------------------------------------------------
 Center     Atomic      Atomic             Coordinates (Angstroms)
 Number     Number       Type             X           Y           Z
 ---------------------------------------------------------------------
      1          1           0        0.000000    0.000000    1.675000
      2          1           0        0.000000    0.000000   -1.675000
 ---------------------------------------------------------------------

 SCF Done:  E(RHF) = -0.812717092218     A.U. after    6 cycles
 E2 =    -0.1178485223D+00 EUMP2 =    -0.93056561447822D+00
 CCSD(T)
 CCSD(T)= -0.99999612197D+00

 The electronic state is 1-SGG.
 Alpha  occ. eigenvalues --   -0.31599
 Alpha virt. eigenvalues --   -0.13647   0.36787   0.41961   0.74060   0.74976
 Alpha virt. eigenvalues --    0.74976   0.75582   0.75582   0.78964   2.46528
 Alpha virt. eigenvalues --    2.48954   3.39834   3.39834   3.39838   3.39838

 Mulliken charges:
               1
     1  H   -0.000000
     2  H   -0.000000
 Sum of Mulliken charges =  -0.00000

 Dipole moment (field-independent basis, Debye):
    X=             -0.0000    Y=              0.0000    Z=             -0.0000  Tot=              0.0000
 Quadrupole moment (field-independent basis, Debye-Ang):
   XX=             -3.8350   YY=             -3.8350   ZZ=             -1.8809
   XY=             -0.0000   XZ=             -0.0000   YZ=              0.0000

 679044\MP4DQ=-1.0348594\MP4SDQ=-1.0471264\CCSD=-0.9999961\CCSD(T)=-0.9
 Normal termination of Gaussian 16 at Tue Feb 13 16:25:36 2024.
