 Gaussian 16, Revision A.03,
 Gaussian 16:  ES64L-G16RevA.03 25-Dec-2016

 ------------------
 #p CCSD(T)/cc-pVTZ
 ------------------

 -----
 H2_92
 -----
 Symbolic Z-matrix:
 Charge =  0 Multiplicity = 1

                         Standard orientation:
 ---------------------------------------------------------------------
 Center     Atomic      Atomic             Coordinates (Angstroms)
 Number     Number       Type             X           Y           Z
 ---------------------------------------------------------------------
      1          1           0        0.000000    0.000000    1.630000
      2          1           0        0.000000    0.000000   -1.630000
 ---------------------------------------------------------------------

 SCF Done:  E(RHF) = -0.817137645558     A.U. after    6 cycles
 E2 =    -0.1121605733D+00 EUMP2 =    -0.92929821884991D+00
 CCSD(T)
 CCSD(T)= -0.10001161860D+01

 The electronic state is 1-SGG.
 Alpha  occ. eigenvalues --   -0.31914
 Alpha virt. eigenvalues --   -0.13301   0.37071   0.41819   0.73647   0.74931
 Alpha virt. eigenvalues --    0.74931   0.75680   0.75680   0.79915   2.47009
 Alpha virt. eigenvalues --    2.48731   3.39845   3.39845   3.39850   3.39850

 Mulliken charges:
               1
     1  H   -0.000000
     2  H   -0.000000
 Sum of Mulliken charges =  -0.00000

 Dipole moment (field-independent basis, Debye):
    X=             -0.0000    Y=              0.0000    Z=              0.0000  Tot=              0.0000
 Quadrupole moment (field-independent basis, Debye-Ang):
   XX=             -3.8345   YY=             -3.8345   ZZ=             -1.7908
   XY=             -0.0000   XZ=             -0.0000   YZ=              0.0000

 565908\MP4DQ=-1.0278672\MP4SDQ=-1.0391857\CCSD=-1.0001162\CCSD(T)=-1.0
 Normal termination of Gaussian 16 at Tue Feb 13 16:25:33 2024.
