 Gaussian 16, Revision A.03,
 Gaussian 16:  ES64L-G16RevA.03 25-Dec-2016

 ------------------
 #p CCSD(T)/cc-pVTZ
 ------------------

 ----
 H2_9
 ----
 Symbolic Z-matrix:
 Charge =  0 Multiplicity = 1

                         Standard orientation:
 ---------------------------------------------------------------------
 Center     Atomic      Atomic             Coordinates (Angstroms)
 Number     Number       Type             X           Y           Z
 ---------------------------------------------------------------------
      1          1           0        0.000000    0.000000    0.385000
      2          1           0        0.000000    0.000000   -0.385000
 ---------------------------------------------------------------------

 SCF Done:  E(RHF) =  -1.13214691524     A.U. after    6 cycles
 E2 =    -0.3179455025D-01 EUMP2 =    -0.11639414654883D+01
 CCSD(T)
 CCSD(T)= -0.11718687973D+01

 The electronic state is 1-SGG.
 Alpha  occ. eigenvalues --   -0.58562
 Alpha virt. eigenvalues --    0.16295   0.30778   0.63211   0.68952   0.68952
 Alpha virt. eigenvalues --    1.08825   1.11493   1.11493   1.52033   2.34268
 Alpha virt. eigenvalues --    2.42220   3.17258   3.17258   3.39448   3.39448

 Mulliken charges:
               1
     1  H   -0.000000
     2  H   -0.000000
 Sum of Mulliken charges =  -0.00000

 Dipole moment (field-independent basis, Debye):
    X=             -0.0000    Y=              0.0000    Z=             -0.0000  Tot=              0.0000
 Quadrupole moment (field-independent basis, Debye-Ang):
   XX=             -2.1375   YY=             -2.1375   ZZ=             -1.4709
   XY=             -0.0000   XZ=             -0.0000   YZ=              0.0000

 14558\MP4DQ=-1.1711226\MP4SDQ=-1.1712066\CCSD=-1.1718688\CCSD(T)=-1.17
 Normal termination of Gaussian 16 at Tue Feb 13 16:24:04 2024.
