 Gaussian 16, Revision A.03,
 Gaussian 16:  ES64L-G16RevA.03 25-Dec-2016

 ------------------
 #p CCSD(T)/cc-pVTZ
 ------------------

 -----
 H2_93
 -----
 Symbolic Z-matrix:
 Charge =  0 Multiplicity = 1

                         Standard orientation:
 ---------------------------------------------------------------------
 Center     Atomic      Atomic             Coordinates (Angstroms)
 Number     Number       Type             X           Y           Z
 ---------------------------------------------------------------------
      1          1           0        0.000000    0.000000    1.645000
      2          1           0        0.000000    0.000000   -1.645000
 ---------------------------------------------------------------------

 SCF Done:  E(RHF) = -0.815630111873     A.U. after    6 cycles
 E2 =    -0.1140408849D+00 EUMP2 =    -0.92967099678481D+00
 CCSD(T)
 CCSD(T)= -0.10000724066D+01

 The electronic state is 1-SGG.
 Alpha  occ. eigenvalues --   -0.31808
 Alpha virt. eigenvalues --   -0.13419   0.36970   0.41869   0.73797   0.74947
 Alpha virt. eigenvalues --    0.74947   0.75644   0.75644   0.79578   2.46845
 Alpha virt. eigenvalues --    2.48805   3.39840   3.39840   3.39845   3.39845

 Mulliken charges:
               1
     1  H   -0.000000
     2  H   -0.000000
 Sum of Mulliken charges =  -0.00000

 Dipole moment (field-independent basis, Debye):
    X=             -0.0000    Y=             -0.0000    Z=             -0.0000  Tot=              0.0000
 Quadrupole moment (field-independent basis, Debye-Ang):
   XX=             -3.8348   YY=             -3.8348   ZZ=             -1.8205
   XY=             -0.0000   XZ=             -0.0000   YZ=              0.0000

 02682\MP4DQ=-1.030158\MP4SDQ=-1.0417893\CCSD=-1.0000724\CCSD(T)=-1.000
 Normal termination of Gaussian 16 at Tue Feb 13 16:25:34 2024.
