 Gaussian 16, Revision A.03,
 Gaussian 16:  ES64L-G16RevA.03 25-Dec-2016

 ------------------
 #p CCSD(T)/CEP-31G
 ------------------

 ------------
 H2O_H2O_3526
 ------------
 Symbolic Z-matrix:
 Charge =  0 Multiplicity = 1

                         Standard orientation:
 ---------------------------------------------------------------------
 Center     Atomic      Atomic             Coordinates (Angstroms)
 Number     Number       Type             X           Y           Z
 ---------------------------------------------------------------------
      1          8           0        0.003735   -2.678190    0.000000
      2          1           0       -0.795904   -3.249226    0.000000
      3          1           0        0.803238   -3.249418    0.000000
      4          8           0        0.003735    2.678433    0.000000
      5          1           0        0.764316    3.300546    0.000000
      6          1           0       -0.831415    3.196149    0.000000
 ---------------------------------------------------------------------

 SCF Done:  E(RHF) =  -33.6498204590     A.U. after   10 cycles
 E2 =    -0.2284876596D+00 EUMP2 =    -0.33878308118592D+02
 CCSD(T)
 CCSD(T)= -0.33895365081D+02

 The electronic state is 1-A'.
 Alpha  occ. eigenvalues --   -1.34757  -1.34755  -0.70382  -0.70380  -0.54388
 Alpha  occ. eigenvalues --   -0.54369  -0.49299  -0.49296
 Alpha virt. eigenvalues --    0.20890   0.20925   0.31133   0.31139   0.81246
 Alpha virt. eigenvalues --    0.81265   0.84243   0.84722   0.87481   0.87526
 Alpha virt. eigenvalues --    1.18061   1.18064   1.22534   1.22541   2.58118

 Mulliken charges:
               1
     1  O   -0.734187
     2  H    0.366939
     3  H    0.367248
     4  O   -0.734181
     5  H    0.366886
     6  H    0.367295
 Sum of Mulliken charges =  -0.00000

 Dipole moment (field-independent basis, Debye):
    X=             -0.1721    Y=             -0.0057    Z=              0.0000  Tot=              0.1721
 Quadrupole moment (field-independent basis, Debye-Ang):
   XX=             -8.0597   YY=             16.3383   ZZ=            -14.9859
   XY=             -0.3476   XZ=              0.0000   YZ=              0.0000

 MP4DQ=-33.8897054\MP4SDQ=-33.8917384\CCSD=-33.8927972\CCSD(T)=-33.8953
 Normal termination of Gaussian 16 at Sun Dec 10 06:43:22 2023.
