 Gaussian 16, Revision A.03,
 Gaussian 16:  ES64L-G16RevA.03 25-Dec-2016

 ------------------
 #p CCSD(T)/CEP-31G
 ------------------

 -----------
 H2O_H2O_195
 -----------
 Symbolic Z-matrix:
 Charge =  0 Multiplicity = 1

                         Standard orientation:
 ---------------------------------------------------------------------
 Center     Atomic      Atomic             Coordinates (Angstroms)
 Number     Number       Type             X           Y           Z
 ---------------------------------------------------------------------
      1          8           0        0.055391   -0.851001    0.000000
      2          1           0       -0.747205   -1.417873    0.000000
      3          1           0        0.851914   -1.426377    0.000000
      4          8           0        0.055391    0.935076    0.000000
      5          1           0       -0.284438    1.857043    0.000000
      6          1           0       -0.706534    0.314612    0.000000
 ---------------------------------------------------------------------

 SCF Done:  E(RHF) =  -33.5306623404     A.U. after   11 cycles
 E2 =    -0.2345313895D+00 EUMP2 =    -0.33765193729831D+02
 CCSD(T)
 CCSD(T)= -0.33781602956D+02

 The electronic state is 1-A'.
 Alpha  occ. eigenvalues --   -1.40203  -1.28847  -0.76672  -0.71201  -0.53485
 Alpha  occ. eigenvalues --   -0.51692  -0.44024  -0.43254
 Alpha virt. eigenvalues --    0.19182   0.28899   0.29750   0.35436   0.79063
 Alpha virt. eigenvalues --    0.83683   0.89920   0.94829   0.98168   1.17309
 Alpha virt. eigenvalues --    1.20029   1.25018   1.31309   1.35797   2.71818

 Mulliken charges:
               1
     1  O   -0.794996
     2  H    0.357467
     3  H    0.430224
     4  O   -0.653427
     5  H    0.293334
     6  H    0.367399
 Sum of Mulliken charges =   0.00000

 Dipole moment (field-independent basis, Debye):
    X=             -2.0402    Y=             -2.3005    Z=              0.0000  Tot=              3.0749
 Quadrupole moment (field-independent basis, Debye-Ang):
   XX=            -10.0056   YY=             -7.2997   ZZ=            -14.9433
   XY=             -2.0440   XZ=              0.0000   YZ=              0.0000

 \MP4DQ=-33.7749597\MP4SDQ=-33.7775433\CCSD=-33.7782373\CCSD(T)=-33.781
 Normal termination of Gaussian 16 at Sun Dec 10 06:28:23 2023.
