 Gaussian 16, Revision A.03,
 Gaussian 16:  ES64L-G16RevA.03 25-Dec-2016

 ------------------
 #p CCSD(T)/CEP-31G
 ------------------

 ------------
 H2O_H2O_2563
 ------------
 Symbolic Z-matrix:
 Charge =  0 Multiplicity = 1

                         Standard orientation:
 ---------------------------------------------------------------------
 Center     Atomic      Atomic             Coordinates (Angstroms)
 Number     Number       Type             X           Y           Z
 ---------------------------------------------------------------------
      1          8           0        0.042973   -2.138728    0.000000
      2          1           0       -0.757575   -2.708490    0.000000
      3          1           0        0.841565   -2.711229    0.000000
      4          8           0        0.042973    2.177492    0.000000
      5          1           0        0.142442    3.155046    0.000000
      6          1           0       -0.914004    1.954555    0.000000
 ---------------------------------------------------------------------

 SCF Done:  E(RHF) =  -33.6497534193     A.U. after   11 cycles
 E2 =    -0.2285623397D+00 EUMP2 =    -0.33878315759033D+02
 CCSD(T)
 CCSD(T)= -0.33895376360D+02

 The electronic state is 1-A'.
 Alpha  occ. eigenvalues --   -1.34897  -1.34253  -0.70525  -0.69853  -0.54522
 Alpha  occ. eigenvalues --   -0.53858  -0.49439  -0.48798
 Alpha virt. eigenvalues --    0.20607   0.21552   0.30985   0.31623   0.81038
 Alpha virt. eigenvalues --    0.81624   0.81816   0.85853   0.87400   0.90294
 Alpha virt. eigenvalues --    1.17919   1.18580   1.22375   1.23063   2.57971

 Mulliken charges:
               1
     1  O   -0.734126
     2  H    0.363922
     3  H    0.370258
     4  O   -0.732345
     5  H    0.361349
     6  H    0.370942
 Sum of Mulliken charges =   0.00000

 Dipole moment (field-independent basis, Debye):
    X=             -1.9679    Y=             -0.9265    Z=              0.0000  Tot=              2.1751
 Quadrupole moment (field-independent basis, Debye-Ang):
   XX=             -9.2448   YY=              7.8959   ZZ=            -14.9867
   XY=             -3.5231   XZ=              0.0000   YZ=              0.0000

 MP4DQ=-33.8897121\MP4SDQ=-33.8917486\CCSD=-33.892804\CCSD(T)=-33.89537
 Normal termination of Gaussian 16 at Sun Dec 10 06:25:54 2023.
