 Gaussian 16, Revision A.03,
 Gaussian 16:  ES64L-G16RevA.03 25-Dec-2016

 ------------------
 #p CCSD(T)/CEP-31G
 ------------------

 ----------
 H2O_H2O_40
 ----------
 Symbolic Z-matrix:
 Charge =  0 Multiplicity = 1

                         Standard orientation:
 ---------------------------------------------------------------------
 Center     Atomic      Atomic             Coordinates (Angstroms)
 Number     Number       Type             X           Y           Z
 ---------------------------------------------------------------------
      1          8           0        0.047615   -0.789576    0.000000
      2          1           0       -0.754812   -1.356688    0.000000
      3          1           0        0.844310   -1.364712    0.000000
      4          8           0        0.047615    0.839864    0.000000
      5          1           0        0.021882    1.822129    0.000000
      6          1           0       -0.873214    0.496965    0.000000
 ---------------------------------------------------------------------

 SCF Done:  E(RHF) =  -33.4736229406     A.U. after   12 cycles
 E2 =    -0.2378164545D+00 EUMP2 =    -0.33711439395148D+02
 CCSD(T)
 CCSD(T)= -0.33728163530D+02

 The electronic state is 1-A'.
 Alpha  occ. eigenvalues --   -1.40483  -1.28627  -0.75755  -0.70830  -0.56876
 Alpha  occ. eigenvalues --   -0.53853  -0.42884  -0.36252
 Alpha virt. eigenvalues --    0.19747   0.29253   0.30661   0.33528   0.80841
 Alpha virt. eigenvalues --    0.83541   0.88844   0.94727   0.96756   1.19551
 Alpha virt. eigenvalues --    1.22150   1.25926   1.26689   1.40409   2.63254

 Mulliken charges:
               1
     1  O   -0.757844
     2  H    0.336001
     3  H    0.402420
     4  O   -0.628453
     5  H    0.296161
     6  H    0.351714
 Sum of Mulliken charges =   0.00000

 Dipole moment (field-independent basis, Debye):
    X=             -1.6710    Y=             -1.3453    Z=              0.0000  Tot=              2.1453
 Quadrupole moment (field-independent basis, Debye-Ang):
   XX=             -9.6383   YY=             -8.2739   ZZ=            -14.9160
   XY=             -1.2792   XZ=              0.0000   YZ=              0.0000

 P4DQ=-33.7212083\MP4SDQ=-33.7240384\CCSD=-33.7245607\CCSD(T)=-33.72816
 Normal termination of Gaussian 16 at Sun Dec 10 06:25:28 2023.
