 Gaussian 16, Revision A.03,
 Gaussian 16:  ES64L-G16RevA.03 25-Dec-2016

 ------------------
 #p CCSD(T)/CEP-31G
 ------------------

 ------------
 H2O_H2O_1521
 ------------
 Symbolic Z-matrix:
 Charge =  0 Multiplicity = 1

                         Standard orientation:
 ---------------------------------------------------------------------
 Center     Atomic      Atomic             Coordinates (Angstroms)
 Number     Number       Type             X           Y           Z
 ---------------------------------------------------------------------
      1          8           0        0.056154   -1.551602    0.000000
      2          1           0       -0.745137   -2.120317    0.000000
      3          1           0        0.853998   -2.125145    0.000000
      4          8           0        0.056154    1.643205    0.000000
      5          1           0       -0.345309    2.540051    0.000000
      6          1           0       -0.662020    0.972585    0.000000
 ---------------------------------------------------------------------

 SCF Done:  E(RHF) =  -33.6525149306     A.U. after   11 cycles
 E2 =    -0.2290172938D+00 EUMP2 =    -0.33881532224468D+02
 CCSD(T)
 CCSD(T)= -0.33898579055D+02

 The electronic state is 1-A'.
 Alpha  occ. eigenvalues --   -1.35864  -1.32907  -0.71511  -0.68493  -0.55633
 Alpha  occ. eigenvalues --   -0.52630  -0.50448  -0.47496
 Alpha virt. eigenvalues --    0.19243   0.24180   0.30128   0.33650   0.76312
 Alpha virt. eigenvalues --    0.78782   0.84457   0.86437   0.88430   1.07052
 Alpha virt. eigenvalues --    1.16947   1.20546   1.21823   1.28085   2.54576

 Mulliken charges:
               1
     1  O   -0.745913
     2  H    0.364117
     3  H    0.383139
     4  O   -0.738377
     5  H    0.349593
     6  H    0.387441
 Sum of Mulliken charges =  -0.00000

 Dipole moment (field-independent basis, Debye):
    X=             -2.5216    Y=             -2.2972    Z=              0.0000  Tot=              3.4111
 Quadrupole moment (field-independent basis, Debye-Ang):
   XX=            -10.0601   YY=             -0.5152   ZZ=            -14.9944
   XY=             -4.1336   XZ=              0.0000   YZ=              0.0000

 8\MP4DQ=-33.8928313\MP4SDQ=-33.8949204\CCSD=-33.8959542\CCSD(T)=-33.89
 Normal termination of Gaussian 16 at Sun Dec 10 06:53:10 2023.
