 Gaussian 16, Revision A.03,
 Gaussian 16:  ES64L-G16RevA.03 25-Dec-2016

 ------------------
 #p CCSD(T)/CEP-31G
 ------------------

 -----------
 H2O_H2O_123
 -----------
 Symbolic Z-matrix:
 Charge =  0 Multiplicity = 1

                         Standard orientation:
 ---------------------------------------------------------------------
 Center     Atomic      Atomic             Coordinates (Angstroms)
 Number     Number       Type             X           Y           Z
 ---------------------------------------------------------------------
      1          8           0        0.057297   -0.799153    0.000000
      2          1           0       -0.745548   -1.365672    0.000000
      3          1           0        0.853567   -1.374878    0.000000
      4          8           0        0.057297    0.905250    0.000000
      5          1           0       -0.455501    1.743429    0.000000
      6          1           0       -0.569275    0.148339    0.000000
 ---------------------------------------------------------------------

 SCF Done:  E(RHF) =  -33.4580681122     A.U. after   11 cycles
 E2 =    -0.2350722490D+00 EUMP2 =    -0.33693140361254D+02
 CCSD(T)
 CCSD(T)= -0.33708430231D+02

 The electronic state is 1-A'.
 Alpha  occ. eigenvalues --   -1.45609  -1.27336  -0.81994  -0.74145  -0.56851
 Alpha  occ. eigenvalues --   -0.48527  -0.42119  -0.41697
 Alpha virt. eigenvalues --    0.18380   0.26465   0.31362   0.38243   0.77824
 Alpha virt. eigenvalues --    0.83495   0.90611   0.92428   0.97286   1.14155
 Alpha virt. eigenvalues --    1.17466   1.28467   1.32952   1.41361   2.89370

 Mulliken charges:
               1
     1  O   -0.762182
     2  H    0.363875
     3  H    0.466658
     4  O   -0.692953
     5  H    0.269334
     6  H    0.355268
 Sum of Mulliken charges =  -0.00000

 Dipole moment (field-independent basis, Debye):
    X=             -2.0267    Y=             -3.2924    Z=              0.0000  Tot=              3.8662
 Quadrupole moment (field-independent basis, Debye-Ang):
   XX=            -10.0866   YY=             -8.7765   ZZ=            -14.8757
   XY=             -2.3014   XZ=              0.0000   YZ=              0.0000

 \MP4DQ=-33.7014782\MP4SDQ=-33.7042561\CCSD=-33.7047455\CCSD(T)=-33.708
 Normal termination of Gaussian 16 at Sun Dec 10 06:27:02 2023.
