 Gaussian 16, Revision A.03,
 Gaussian 16:  ES64L-G16RevA.03 25-Dec-2016

 ------------------
 #p CCSD(T)/CEP-31G
 ------------------

 -----------
 H2O_H2O_182
 -----------
 Symbolic Z-matrix:
 Charge =  0 Multiplicity = 1

                         Standard orientation:
 ---------------------------------------------------------------------
 Center     Atomic      Atomic             Coordinates (Angstroms)
 Number     Number       Type             X           Y           Z
 ---------------------------------------------------------------------
      1          8           0        0.025275   -0.890337    0.000000
      2          1           0       -0.775680   -1.459527    0.000000
      3          1           0        0.823458   -1.463408    0.000000
      4          8           0        0.025275    0.901994    0.000000
      5          1           0        0.491882    1.766740    0.000000
      6          1           0       -0.944057    1.062939    0.000000
 ---------------------------------------------------------------------

 SCF Done:  E(RHF) =  -33.5458420334     A.U. after   11 cycles
 E2 =    -0.2350880877D+00 EUMP2 =    -0.33780930121052D+02
 CCSD(T)
 CCSD(T)= -0.33797783363D+02

 The electronic state is 1-A'.
 Alpha  occ. eigenvalues --   -1.35207  -1.29523  -0.69995  -0.66766  -0.61203
 Alpha  occ. eigenvalues --   -0.50047  -0.43132  -0.36944
 Alpha virt. eigenvalues --    0.21033   0.27573   0.32014   0.33561   0.81631
 Alpha virt. eigenvalues --    0.81725   0.89727   0.92135   1.02413   1.19763
 Alpha virt. eigenvalues --    1.22296   1.23580   1.27393   1.33815   2.50234

 Mulliken charges:
               1
     1  O   -0.716937
     2  H    0.337007
     3  H    0.371636
     4  O   -0.681110
     5  H    0.347522
     6  H    0.341881
 Sum of Mulliken charges =  -0.00000

 Dipole moment (field-independent basis, Debye):
    X=             -0.9366    Y=             -0.2982    Z=              0.0000  Tot=              0.9829
 Quadrupole moment (field-independent basis, Debye-Ang):
   XX=             -8.7716   YY=             -5.9830   ZZ=            -15.0161
   XY=             -0.5809   XZ=              0.0000   YZ=              0.0000

 P4DQ=-33.7912354\MP4SDQ=-33.7937592\CCSD=-33.7945609\CCSD(T)=-33.79778
 Normal termination of Gaussian 16 at Sun Dec 10 06:28:09 2023.
