 Gaussian 16, Revision A.03,
 Gaussian 16:  ES64L-G16RevA.03 25-Dec-2016

 ------------------
 #p CCSD(T)/CEP-31G
 ------------------

 ------------
 H2O_H2O_2776
 ------------
 Symbolic Z-matrix:
 Charge =  0 Multiplicity = 1

                         Standard orientation:
 ---------------------------------------------------------------------
 Center     Atomic      Atomic             Coordinates (Angstroms)
 Number     Number       Type             X           Y           Z
 ---------------------------------------------------------------------
      1          8           0        0.003735   -2.279313    0.000000
      2          1           0       -0.795916   -2.850332    0.000000
      3          1           0        0.803226   -2.850557    0.000000
      4          8           0        0.003735    2.279556    0.000000
      5          1           0        0.764329    2.901652    0.000000
      6          1           0       -0.831405    2.797288    0.000000
 ---------------------------------------------------------------------

 SCF Done:  E(RHF) =  -33.6486152689     A.U. after   10 cycles
 E2 =    -0.2285670952D+00 EUMP2 =    -0.33877182364126D+02
 CCSD(T)
 CCSD(T)= -0.33894274400D+02

 The electronic state is 1-A'.
 Alpha  occ. eigenvalues --   -1.34454  -1.34450  -0.70077  -0.70072  -0.54072
 Alpha  occ. eigenvalues --   -0.53929  -0.48984  -0.48969
 Alpha virt. eigenvalues --    0.21030   0.21263   0.31345   0.31402   0.81453
 Alpha virt. eigenvalues --    0.81693   0.82991   0.86944   0.87623   0.88165
 Alpha virt. eigenvalues --    1.18316   1.18319   1.22767   1.22843   2.58357

 Mulliken charges:
               1
     1  O   -0.730074
     2  H    0.364797
     3  H    0.365278
     4  O   -0.730062
     5  H    0.364730
     6  H    0.365331
 Sum of Mulliken charges =   0.00000

 Dipole moment (field-independent basis, Debye):
    X=             -0.1715    Y=             -0.0058    Z=              0.0000  Tot=              0.1715
 Quadrupole moment (field-independent basis, Debye-Ang):
   XX=             -8.0787   YY=             12.0358   ZZ=            -14.9849
   XY=             -0.2811   XZ=              0.0000   YZ=              0.0000

 P4DQ=-33.8886037\MP4SDQ=-33.8906409\CCSD=-33.8917009\CCSD(T)=-33.89427
 Normal termination of Gaussian 16 at Sun Dec 10 06:29:53 2023.
