 Gaussian 16, Revision A.03,
 Gaussian 16:  ES64L-G16RevA.03 25-Dec-2016

 ------------------
 #p CCSD(T)/CEP-31G
 ------------------

 ------------
 H2O_H2O_2026
 ------------
 Symbolic Z-matrix:
 Charge =  0 Multiplicity = 1

                         Standard orientation:
 ---------------------------------------------------------------------
 Center     Atomic      Atomic             Coordinates (Angstroms)
 Number     Number       Type             X           Y           Z
 ---------------------------------------------------------------------
      1          8           0        0.003735   -1.880435    0.000000
      2          1           0       -0.795933   -2.451431    0.000000
      3          1           0        0.803209   -2.451704    0.000000
      4          8           0        0.003735    1.880679    0.000000
      5          1           0        0.764348    2.502753    0.000000
      6          1           0       -0.831389    2.398436    0.000000
 ---------------------------------------------------------------------

 SCF Done:  E(RHF) =  -33.6461974802     A.U. after   10 cycles
 E2 =    -0.2287707197D+00 EUMP2 =    -0.33874968199948D+02
 CCSD(T)
 CCSD(T)= -0.33892137810D+02

 The electronic state is 1-A'.
 Alpha  occ. eigenvalues --   -1.33979  -1.33957  -0.69600  -0.69574  -0.53720
 Alpha  occ. eigenvalues --   -0.53002  -0.48512  -0.48407
 Alpha virt. eigenvalues --    0.21092   0.21916   0.31611   0.31860   0.78319
 Alpha virt. eigenvalues --    0.81231   0.82937   0.86492   0.90504   0.95123
 Alpha virt. eigenvalues --    1.18699   1.18720   1.23047   1.23428   2.58222

 Mulliken charges:
               1
     1  O   -0.722098
     2  H    0.360647
     3  H    0.361453
     4  O   -0.722068
     5  H    0.360560
     6  H    0.361507
 Sum of Mulliken charges =   0.00000

 Dipole moment (field-independent basis, Debye):
    X=             -0.1703    Y=             -0.0059    Z=              0.0000  Tot=              0.1704
 Quadrupole moment (field-independent basis, Debye-Ang):
   XX=             -8.1169   YY=              7.6795   ZZ=            -14.9836
   XY=             -0.2166   XZ=              0.0000   YZ=              0.0000

 \MP4DQ=-33.8864312\MP4SDQ=-33.888486\CCSD=-33.889546\CCSD(T)=-33.89213
 Normal termination of Gaussian 16 at Sun Dec 10 07:03:52 2023.
