 Gaussian 16, Revision A.03,
 Gaussian 16:  ES64L-G16RevA.03 25-Dec-2016

 ------------------
 #p CCSD(T)/CEP-31G
 ------------------

 ------------
 H2O_H2O_4749
 ------------
 Symbolic Z-matrix:
 Charge =  0 Multiplicity = 1

                         Standard orientation:
 ---------------------------------------------------------------------
 Center     Atomic      Atomic             Coordinates (Angstroms)
 Number     Number       Type             X           Y           Z
 ---------------------------------------------------------------------
      1          8           0        0.057198   -3.254584    0.000000
      2          1           0       -0.743220   -3.824529    0.000000
      3          1           0        0.855920   -3.826903    0.000000
      4          8           0        0.057198    3.368641    0.000000
      5          1           0       -0.512746    4.169060    0.000000
      6          1           0       -0.515121    2.569919    0.000000
 ---------------------------------------------------------------------

 SCF Done:  E(RHF) =  -33.6520877400     A.U. after   11 cycles
 E2 =    -0.2283657876D+00 EUMP2 =    -0.33880453527615D+02
 CCSD(T)
 CCSD(T)= -0.33897444975D+02

 The electronic state is 1-A'.
 Alpha  occ. eigenvalues --   -1.35738  -1.34980  -0.71372  -0.70603  -0.55489
 Alpha  occ. eigenvalues --   -0.54720  -0.50314  -0.49555
 Alpha virt. eigenvalues --    0.20050   0.20829   0.30292   0.31070   0.80237
 Alpha virt. eigenvalues --    0.80985   0.83233   0.84006   0.86355   0.87156
 Alpha virt. eigenvalues --    1.17177   1.17933   1.21632   1.22404   2.57186

 Mulliken charges:
               1
     1  O   -0.742199
     2  H    0.369933
     3  H    0.372266
     4  O   -0.742123
     5  H    0.368087
     6  H    0.374036
 Sum of Mulliken charges =  -0.00000

 Dipole moment (field-independent basis, Debye):
    X=             -2.6400    Y=             -2.6645    Z=              0.0000  Tot=              3.7509
 Quadrupole moment (field-independent basis, Debye-Ang):
   XX=            -10.1667   YY=              7.2468   ZZ=            -14.9892
   XY=             -9.0758   XZ=              0.0000   YZ=              0.0000

 3\MP4DQ=-33.8918032\MP4SDQ=-33.89383\CCSD=-33.8948848\CCSD(T)=-33.8974
 Normal termination of Gaussian 16 at Sun Dec 10 07:07:11 2023.
