 Gaussian 16, Revision A.03,
 Gaussian 16:  ES64L-G16RevA.03 25-Dec-2016

 ------------------
 #p CCSD(T)/CEP-31G
 ------------------

 -----------
 H2O_H2O_599
 -----------
 Symbolic Z-matrix:
 Charge =  0 Multiplicity = 1

                         Standard orientation:
 ---------------------------------------------------------------------
 Center     Atomic      Atomic             Coordinates (Angstroms)
 Number     Number       Type             X           Y           Z
 ---------------------------------------------------------------------
      1          8           0        0.057367   -1.047641    0.000000
      2          1           0       -0.744739   -1.615208    0.000000
      3          1           0        0.854388   -1.622326    0.000000
      4          8           0        0.057367    1.161357    0.000000
      5          1           0       -0.510200    1.963464    0.000000
      6          1           0       -0.517319    0.364337    0.000000
 ---------------------------------------------------------------------

 SCF Done:  E(RHF) =  -33.6284241241     A.U. after   11 cycles
 E2 =    -0.2307891154D+00 EUMP2 =    -0.33859213239560D+02
 CCSD(T)
 CCSD(T)= -0.33875406427D+02

 The electronic state is 1-A'.
 Alpha  occ. eigenvalues --   -1.38669  -1.29792  -0.74482  -0.70228  -0.53492
 Alpha  occ. eigenvalues --   -0.53006  -0.49847  -0.44266
 Alpha virt. eigenvalues --    0.18521   0.28299   0.28427   0.38929   0.76329
 Alpha virt. eigenvalues --    0.84491   0.89855   0.91825   0.98395   1.13555
 Alpha virt. eigenvalues --    1.18430   1.19412   1.27615   1.31512   2.78783

 Mulliken charges:
               1
     1  O   -0.796823
     2  H    0.375077
     3  H    0.434282
     4  O   -0.717774
     5  H    0.317134
     6  H    0.388105
 Sum of Mulliken charges =   0.00000

 Dipole moment (field-independent basis, Debye):
    X=             -2.3397    Y=             -3.1834    Z=              0.0000  Tot=              3.9508
 Quadrupole moment (field-independent basis, Debye-Ang):
   XX=            -10.1039   YY=             -5.7924   ZZ=            -15.0007
   XY=             -3.2651   XZ=              0.0000   YZ=              0.0000

 \MP4DQ=-33.8692746\MP4SDQ=-33.8715558\CCSD=-33.8724072\CCSD(T)=-33.875
 Normal termination of Gaussian 16 at Sun Dec 10 06:35:56 2023.
