 Gaussian 16, Revision A.03,
 Gaussian 16:  ES64L-G16RevA.03 25-Dec-2016

 ------------------
 #p CCSD(T)/CEP-31G
 ------------------

 ------------
 H2O_H2O_1935
 ------------
 Symbolic Z-matrix:
 Charge =  0 Multiplicity = 1

                         Standard orientation:
 ---------------------------------------------------------------------
 Center     Atomic      Atomic             Coordinates (Angstroms)
 Number     Number       Type             X           Y           Z
 ---------------------------------------------------------------------
      1          8           0        0.034788   -1.814625    0.000000
      2          1           0       -0.765718   -2.384446    0.000000
      3          1           0        0.833422   -2.387067    0.000000
      4          8           0        0.034788    1.838116    0.000000
      5          1           0        0.322987    2.777503    0.000000
      6          1           0       -0.947292    1.806086    0.000000
 ---------------------------------------------------------------------

 SCF Done:  E(RHF) =  -33.6473567738     A.U. after   11 cycles
 E2 =    -0.2288024229D+00 EUMP2 =    -0.33876159196740D+02
 CCSD(T)
 CCSD(T)= -0.33893303394D+02

 The electronic state is 1-A'.
 Alpha  occ. eigenvalues --   -1.34360  -1.33808  -0.69985  -0.69401  -0.54000
 Alpha  occ. eigenvalues --   -0.53102  -0.48875  -0.48315
 Alpha virt. eigenvalues --    0.20701   0.22177   0.31407   0.31925   0.76937
 Alpha virt. eigenvalues --    0.80846   0.83055   0.85755   0.89303   0.99160
 Alpha virt. eigenvalues --    1.18357   1.19049   1.22874   1.23462   2.58025

 Mulliken charges:
               1
     1  O   -0.726182
     2  H    0.359152
     3  H    0.367211
     4  O   -0.723507
     5  H    0.356414
     6  H    0.366913
 Sum of Mulliken charges =   0.00000

 Dipole moment (field-independent basis, Debye):
    X=             -1.5803    Y=             -0.5748    Z=              0.0000  Tot=              1.6816
 Quadrupole moment (field-independent basis, Debye-Ang):
   XX=             -8.8620   YY=              5.7895   ZZ=            -14.9852
   XY=             -2.1800   XZ=              0.0000   YZ=              0.0000

 MP4DQ=-33.8875975\MP4SDQ=-33.889656\CCSD=-33.8907104\CCSD(T)=-33.89330
 Normal termination of Gaussian 16 at Sun Dec 10 07:01:09 2023.
