 Gaussian 16, Revision A.03,
 Gaussian 16:  ES64L-G16RevA.03 25-Dec-2016

 ------------------
 #p CCSD(T)/CEP-31G
 ------------------

 ------------
 H2O_H2O_1634
 ------------
 Symbolic Z-matrix:
 Charge =  0 Multiplicity = 1

                         Standard orientation:
 ---------------------------------------------------------------------
 Center     Atomic      Atomic             Coordinates (Angstroms)
 Number     Number       Type             X           Y           Z
 ---------------------------------------------------------------------
      1          8           0        0.031746   -1.657433    0.000000
      2          1           0       -0.768760   -2.227255    0.000000
      3          1           0        0.830380   -2.229875    0.000000
      4          8           0        0.031746    1.676580    0.000000
      5          1           0        0.380767    2.595106    0.000000
      6          1           0       -0.950325    1.708850    0.000000
 ---------------------------------------------------------------------

 SCF Done:  E(RHF) =  -33.6454451919     A.U. after   11 cycles
 E2 =    -0.2289895582D+00 EUMP2 =    -0.33874434750006D+02
 CCSD(T)
 CCSD(T)= -0.33891657531D+02

 The electronic state is 1-A'.
 Alpha  occ. eigenvalues --   -1.34042  -1.33503  -0.69665  -0.69094  -0.53856
 Alpha  occ. eigenvalues --   -0.52415  -0.48553  -0.47967
 Alpha virt. eigenvalues --    0.20767   0.22606   0.31650   0.32131   0.75814
 Alpha virt. eigenvalues --    0.80379   0.84223   0.84703   0.91412   1.05562
 Alpha virt. eigenvalues --    1.18601   1.19520   1.23204   1.23710   2.58593

 Mulliken charges:
               1
     1  O   -0.720889
     2  H    0.355823
     3  H    0.365176
     4  O   -0.717277
     5  H    0.353064
     6  H    0.364103
 Sum of Mulliken charges =   0.00000

 Dipole moment (field-independent basis, Debye):
    X=             -1.4322    Y=             -0.4748    Z=              0.0000  Tot=              1.5089
 Quadrupole moment (field-independent basis, Debye-Ang):
   XX=             -8.7555   YY=              4.3865   ZZ=            -14.9847
   XY=             -1.7320   XZ=              0.0000   YZ=              0.0000

 \MP4DQ=-33.8859109\MP4SDQ=-33.8879881\CCSD=-33.8890466\CCSD(T)=-33.891
 Normal termination of Gaussian 16 at Sun Dec 10 06:55:16 2023.
