 Gaussian 16, Revision A.03,
 Gaussian 16:  ES64L-G16RevA.03 25-Dec-2016

 ------------------
 #p CCSD(T)/CEP-31G
 ------------------

 ------------
 H2O_H2O_1349
 ------------
 Symbolic Z-matrix:
 Charge =  0 Multiplicity = 1

                         Standard orientation:
 ---------------------------------------------------------------------
 Center     Atomic      Atomic             Coordinates (Angstroms)
 Number     Number       Type             X           Y           Z
 ---------------------------------------------------------------------
      1          8           0        0.057300   -1.446447    0.000000
      2          1           0       -0.744135   -2.014962    0.000000
      3          1           0        0.854999   -2.020191    0.000000
      4          8           0        0.057300    1.560300    0.000000
      5          1           0       -0.511214    2.361735    0.000000
      6          1           0       -0.516444    0.762601    0.000000
 ---------------------------------------------------------------------

 SCF Done:  E(RHF) =  -33.6552718830     A.U. after   11 cycles
 E2 =    -0.2291653763D+00 EUMP2 =    -0.33884437259251D+02
 CCSD(T)
 CCSD(T)= -0.33901381521D+02

 The electronic state is 1-A'.
 Alpha  occ. eigenvalues --   -1.36637  -1.32344  -0.72286  -0.68134  -0.56505
 Alpha  occ. eigenvalues --   -0.52164  -0.51262  -0.46957
 Alpha virt. eigenvalues --    0.18826   0.25219   0.29560   0.35683   0.76850
 Alpha virt. eigenvalues --    0.77707   0.85374   0.86699   0.91615   1.08278
 Alpha virt. eigenvalues --    1.16398   1.20066   1.21817   1.30338   2.53266

 Mulliken charges:
               1
     1  O   -0.760961
     2  H    0.369204
     3  H    0.393779
     4  O   -0.749289
     5  H    0.346496
     6  H    0.400771
 Sum of Mulliken charges =  -0.00000

 Dipole moment (field-independent basis, Debye):
    X=             -2.5545    Y=             -2.9099    Z=              0.0000  Tot=              3.8721
 Quadrupole moment (field-independent basis, Debye-Ang):
   XX=            -10.1306   YY=             -2.7420   ZZ=            -15.0014
   XY=             -4.3716   XZ=              0.0000   YZ=              0.0000

 \MP4DQ=-33.8955912\MP4SDQ=-33.8976966\CCSD=-33.898713\CCSD(T)=-33.9013
 Normal termination of Gaussian 16 at Sun Dec 10 06:49:58 2023.
