 Gaussian 16, Revision A.03,
 Gaussian 16:  ES64L-G16RevA.03 25-Dec-2016

 ------------------
 #p CCSD(T)/CEP-31G
 ------------------

 ------------
 H2O_H2O_3125
 ------------
 Symbolic Z-matrix:
 Charge =  0 Multiplicity = 1

                         Standard orientation:
 ---------------------------------------------------------------------
 Center     Atomic      Atomic             Coordinates (Angstroms)
 Number     Number       Type             X           Y           Z
 ---------------------------------------------------------------------
      1          8           0        0.000000   -0.000000    2.465588
      2          1           0        0.000000    0.799571    3.036720
      3          1           0       -0.000000   -0.799571    3.036720
      4          8           0        0.000000   -0.000000   -2.465588
      5          1           0       -0.000000   -0.799571   -3.036720
      6          1           0        0.000000    0.799571   -3.036720
 ---------------------------------------------------------------------

 SCF Done:  E(RHF) =  -33.6492617832     A.U. after   10 cycles
 E2 =    -0.2285223671D+00 EUMP2 =    -0.33877784150377D+02
 CCSD(T)
 CCSD(T)= -0.33894857325D+02

 The electronic state is 1-AG.
 Alpha  occ. eigenvalues --   -1.34609  -1.34608  -0.70233  -0.70232  -0.54227
 Alpha  occ. eigenvalues --   -0.54169  -0.49145  -0.49140
 Alpha virt. eigenvalues --    0.20973   0.21077   0.31241   0.31263   0.81370
 Alpha virt. eigenvalues --    0.81449   0.83905   0.85507   0.87593   0.87777
 Alpha virt. eigenvalues --    1.18187   1.18187   1.22653   1.22681   2.58262

 Mulliken charges:
               1
     1  O   -0.732274
     2  H    0.366137
     3  H    0.366137
     4  O   -0.732274
     5  H    0.366137
     6  H    0.366137
 Sum of Mulliken charges =   0.00000

 Dipole moment (field-independent basis, Debye):
    X=             -0.0000    Y=              0.0000    Z=             -0.0000  Tot=              0.0000
 Quadrupole moment (field-independent basis, Debye-Ang):
   XX=            -14.9854   YY=             -8.0594   ZZ=             14.0682
   XY=              0.0000   XZ=              0.0000   YZ=             -0.0000

 -33.8891928\MP4SDQ=-33.8912276\CCSD=-33.8922871\CCSD(T)=-33.8948573\RM
 Normal termination of Gaussian 16 at Sun Dec 10 06:36:09 2023.
