 Gaussian 16, Revision A.03,
 Gaussian 16:  ES64L-G16RevA.03 25-Dec-2016

 ------------------
 #p CCSD(T)/CEP-31G
 ------------------

 ------------
 H2O_H2O_3806
 ------------
 Symbolic Z-matrix:
 Charge =  0 Multiplicity = 1

                         Standard orientation:
 ---------------------------------------------------------------------
 Center     Atomic      Atomic             Coordinates (Angstroms)
 Number     Number       Type             X           Y           Z
 ---------------------------------------------------------------------
      1          8           0        0.021859   -2.819871    0.000000
      2          1           0       -0.778092   -3.390470    0.000000
      3          1           0        0.821049   -3.391535    0.000000
      4          8           0        0.021859    2.828537    0.000000
      5          1           0        0.542559    3.661830    0.000000
      6          1           0       -0.935263    3.050848    0.000000
 ---------------------------------------------------------------------

 SCF Done:  E(RHF) =  -33.6502746055     A.U. after   11 cycles
 E2 =    -0.2284645593D+00 EUMP2 =    -0.33878739164819D+02
 CCSD(T)
 CCSD(T)= -0.33895783069D+02

 The electronic state is 1-A'.
 Alpha  occ. eigenvalues --   -1.34913  -1.34831  -0.70540  -0.70455  -0.54563
 Alpha  occ. eigenvalues --   -0.54480  -0.49462  -0.49380
 Alpha virt. eigenvalues --    0.20774   0.20859   0.31006   0.31085   0.81092
 Alpha virt. eigenvalues --    0.81173   0.84210   0.84404   0.87315   0.87418
 Alpha virt. eigenvalues --    1.17924   1.18005   1.22395   1.22476   2.57978

 Mulliken charges:
               1
     1  O   -0.735772
     2  H    0.367105
     3  H    0.368667
     4  O   -0.735609
     5  H    0.366714
     6  H    0.368895
 Sum of Mulliken charges =   0.00000

 Dipole moment (field-independent basis, Debye):
    X=             -1.0076    Y=             -0.2035    Z=              0.0000  Tot=              1.0280
 Quadrupole moment (field-independent basis, Debye-Ang):
   XX=             -8.3540   YY=             17.0649   ZZ=            -14.9864
   XY=             -2.2372   XZ=              0.0000   YZ=              0.0000

 \MP4DQ=-33.890127\MP4SDQ=-33.8921588\CCSD=-33.8932168\CCSD(T)=-33.8957
 Normal termination of Gaussian 16 at Sun Dec 10 06:48:30 2023.
