 Gaussian 16, Revision A.03,
 Gaussian 16:  ES64L-G16RevA.03 25-Dec-2016

 ------------------
 #p CCSD(T)/CEP-31G
 ------------------

 ------------
 H2O_H2O_3905
 ------------
 Symbolic Z-matrix:
 Charge =  0 Multiplicity = 1

                         Standard orientation:
 ---------------------------------------------------------------------
 Center     Atomic      Atomic             Coordinates (Angstroms)
 Number     Number       Type             X           Y           Z
 ---------------------------------------------------------------------
      1          8           0        0.018360   -2.874480    0.000000
      2          1           0       -0.781525   -3.445172    0.000000
      3          1           0        0.817617   -3.446051    0.000000
      4          8           0        0.018360    2.880521    0.000000
      5          1           0        0.592352    3.678042    0.000000
      6          1           0       -0.922206    3.164846    0.000000
 ---------------------------------------------------------------------

 SCF Done:  E(RHF) =  -33.6503103728     A.U. after   11 cycles
 E2 =    -0.2284608915D+00 EUMP2 =    -0.33878771264376D+02
 CCSD(T)
 CCSD(T)= -0.33895814122D+02

 The electronic state is 1-A'.
 Alpha  occ. eigenvalues --   -1.34916  -1.34861  -0.70543  -0.70486  -0.54568
 Alpha  occ. eigenvalues --   -0.54513  -0.49465  -0.49410
 Alpha virt. eigenvalues --    0.20773   0.20830   0.31004   0.31058   0.81088
 Alpha virt. eigenvalues --    0.81143   0.84218   0.84356   0.87310   0.87379
 Alpha virt. eigenvalues --    1.17923   1.17977   1.22393   1.22448   2.57976

 Mulliken charges:
               1
     1  O   -0.735890
     2  H    0.367321
     3  H    0.368568
     4  O   -0.735783
     5  H    0.367026
     6  H    0.368756
 Sum of Mulliken charges =   0.00000

 Dipole moment (field-independent basis, Debye):
    X=             -0.8465    Y=             -0.1418    Z=              0.0000  Tot=              0.8583
 Quadrupole moment (field-independent basis, Debye-Ang):
   XX=             -8.2621   YY=             17.8855   ZZ=            -14.9865
   XY=             -1.9080   XZ=              0.0000   YZ=              0.0000

 MP4DQ=-33.8901584\MP4SDQ=-33.8921901\CCSD=-33.893248\CCSD(T)=-33.89581
 Normal termination of Gaussian 16 at Sun Dec 10 06:50:21 2023.
