 Gaussian 16, Revision A.03,
 Gaussian 16:  ES64L-G16RevA.03 25-Dec-2016

 ------------------
 #p CCSD(T)/CEP-31G
 ------------------

 -----------
 H2O_H2O_527
 -----------
 Symbolic Z-matrix:
 Charge =  0 Multiplicity = 1

                         Standard orientation:
 ---------------------------------------------------------------------
 Center     Atomic      Atomic             Coordinates (Angstroms)
 Number     Number       Type             X           Y           Z
 ---------------------------------------------------------------------
      1          8           0        0.007455   -1.082287    0.000000
      2          1           0       -0.792454   -1.652945    0.000000
      3          1           0        0.806688   -1.653893    0.000000
      4          8           0        0.007455    1.083255    0.000000
      5          1           0        0.726035    1.753441    0.000000
      6          1           0       -0.859550    1.545650    0.000000
 ---------------------------------------------------------------------

 SCF Done:  E(RHF) =  -33.6107056423     A.U. after   11 cycles
 E2 =    -0.2313205583D+00 EUMP2 =    -0.33842026200648D+02
 CCSD(T)
 CCSD(T)= -0.33859316038D+02

 The electronic state is 1-A'.
 Alpha  occ. eigenvalues --   -1.32811  -1.30996  -0.68120  -0.66820  -0.57079
 Alpha  occ. eigenvalues --   -0.47692  -0.44729  -0.43700
 Alpha virt. eigenvalues --    0.21571   0.25359   0.32891   0.33288   0.78285
 Alpha virt. eigenvalues --    0.80223   0.90097   0.98798   1.00170   1.17406
 Alpha virt. eigenvalues --    1.20109   1.22877   1.23608   1.26908   2.50340

 Mulliken charges:
               1
     1  O   -0.698852
     2  H    0.345617
     3  H    0.352670
     4  O   -0.696733
     5  H    0.349766
     6  H    0.347533
 Sum of Mulliken charges =  -0.00000

 Dipole moment (field-independent basis, Debye):
    X=             -0.2992    Y=             -0.0226    Z=              0.0000  Tot=              0.3001
 Quadrupole moment (field-independent basis, Debye-Ang):
   XX=             -8.3365   YY=             -2.4417   ZZ=            -15.0156
   XY=             -0.1823   XZ=              0.0000   YZ=              0.0000

 Q=-33.8532298\MP4SDQ=-33.85541\CCSD=-33.8564576\CCSD(T)=-33.859316\RMS
 Normal termination of Gaussian 16 at Sun Dec 10 06:34:36 2023.
