 Gaussian 16, Revision A.03,
 Gaussian 16:  ES64L-G16RevA.03 25-Dec-2016

 ------------------
 #p CCSD(T)/CEP-31G
 ------------------

 -----------
 H2O_H2O_423
 -----------
 Symbolic Z-matrix:
 Charge =  0 Multiplicity = 1

                         Standard orientation:
 ---------------------------------------------------------------------
 Center     Atomic      Atomic             Coordinates (Angstroms)
 Number     Number       Type             X           Y           Z
 ---------------------------------------------------------------------
      1          8           0        0.057249   -0.958650    0.000000
      2          1           0       -0.745082   -1.525898    0.000000
      3          1           0        0.854041   -1.533652    0.000000
      4          8           0        0.057249    1.064851    0.000000
      5          1           0       -0.456310    1.902564    0.000000
      6          1           0       -0.568635    0.307371    0.000000
 ---------------------------------------------------------------------

 SCF Done:  E(RHF) =  -33.5974560811     A.U. after   11 cycles
 E2 =    -0.2318818612D+00 EUMP2 =    -0.33829337942316D+02
 CCSD(T)
 CCSD(T)= -0.33845381060D+02

 The electronic state is 1-A'.
 Alpha  occ. eigenvalues --   -1.39453  -1.29199  -0.75697  -0.71085  -0.53387
 Alpha  occ. eigenvalues --   -0.50628  -0.49553  -0.43611
 Alpha virt. eigenvalues --    0.18641   0.28253   0.29049   0.38189   0.77097
 Alpha virt. eigenvalues --    0.84848   0.90339   0.93838   0.99023   1.15124
 Alpha virt. eigenvalues --    1.18643   1.20734   1.30254   1.32064   2.83325

 Mulliken charges:
               1
     1  O   -0.799722
     2  H    0.372153
     3  H    0.440590
     4  O   -0.698737
     5  H    0.306088
     6  H    0.379628
 Sum of Mulliken charges =   0.00000

 Dipole moment (field-independent basis, Debye):
    X=             -2.2462    Y=             -3.0167    Z=              0.0000  Tot=              3.7611
 Quadrupole moment (field-independent basis, Debye-Ang):
   XX=            -10.0949   YY=             -6.4130   ZZ=            -14.9816
   XY=             -2.8455   XZ=              0.0000   YZ=              0.0000

 \MP4DQ=-33.8390747\MP4SDQ=-33.841453\CCSD=-33.8422393\CCSD(T)=-33.8453
 Normal termination of Gaussian 16 at Sun Dec 10 06:32:41 2023.
