 Gaussian 16, Revision A.03,
 Gaussian 16:  ES64L-G16RevA.03 25-Dec-2016

 ------------------
 #p CCSD(T)/CEP-31G
 ------------------

 ------------
 H2O_H2O_2295
 ------------
 Symbolic Z-matrix:
 Charge =  0 Multiplicity = 1

                         Standard orientation:
 ---------------------------------------------------------------------
 Center     Atomic      Atomic             Coordinates (Angstroms)
 Number     Number       Type             X           Y           Z
 ---------------------------------------------------------------------
      1          8           0        0.055267   -1.967687    0.000000
      2          1           0       -0.745651   -2.536929    0.000000
      3          1           0        0.853486   -2.540707    0.000000
      4          8           0        0.055267    2.052089    0.000000
      5          1           0       -0.287285    2.973048    0.000000
      6          1           0       -0.704822    1.429376    0.000000
 ---------------------------------------------------------------------

 SCF Done:  E(RHF) =  -33.6518915394     A.U. after   11 cycles
 E2 =    -0.2285513112D+00 EUMP2 =    -0.33880442850553D+02
 CCSD(T)
 CCSD(T)= -0.33897447223D+02

 The electronic state is 1-A'.
 Alpha  occ. eigenvalues --   -1.35584  -1.33919  -0.71220  -0.69491  -0.55324
 Alpha  occ. eigenvalues --   -0.53624  -0.50155  -0.48495
 Alpha virt. eigenvalues --    0.19744   0.22283   0.30359   0.32180   0.80014
 Alpha virt. eigenvalues --    0.80275   0.82152   0.85703   0.86493   0.92502
 Alpha virt. eigenvalues --    1.17310   1.19300   1.21686   1.24282   2.56884

 Mulliken charges:
               1
     1  O   -0.741279
     2  H    0.366082
     3  H    0.375650
     4  O   -0.739193
     5  H    0.359391
     6  H    0.379349
 Sum of Mulliken charges =   0.00000

 Dipole moment (field-independent basis, Debye):
    X=             -2.5247    Y=             -2.0400    Z=              0.0000  Tot=              3.2458
 Quadrupole moment (field-independent basis, Debye-Ang):
   XX=            -10.0099   YY=              2.9222   ZZ=            -14.9904
   XY=             -4.9644   XZ=              0.0000   YZ=              0.0000

 5\MP4DQ=-33.8917866\MP4SDQ=-33.8938273\CCSD=-33.8948731\CCSD(T)=-33.89
 Normal termination of Gaussian 16 at Sun Dec 10 07:08:42 2023.
