 Gaussian 16, Revision A.03,
 Gaussian 16:  ES64L-G16RevA.03 25-Dec-2016

 ------------------
 #p CCSD(T)/CEP-31G
 ------------------

 ------------
 H2O_H2O_2888
 ------------
 Symbolic Z-matrix:
 Charge =  0 Multiplicity = 1

                         Standard orientation:
 ---------------------------------------------------------------------
 Center     Atomic      Atomic             Coordinates (Angstroms)
 Number     Number       Type             X           Y           Z
 ---------------------------------------------------------------------
      1          8           0        0.042971   -2.311569    0.000000
      2          1           0       -0.757505   -2.881432    0.000000
      3          1           0        0.841635   -2.883968    0.000000
      4          8           0        0.042971    2.350344    0.000000
      5          1           0        0.142315    3.327911    0.000000
      6          1           0       -0.913978    2.127285    0.000000
 ---------------------------------------------------------------------

 SCF Done:  E(RHF) =  -33.6501513765     A.U. after   11 cycles
 E2 =    -0.2285104050D+00 EUMP2 =    -0.33878661781511D+02
 CCSD(T)
 CCSD(T)= -0.33895709994D+02

 The electronic state is 1-A'.
 Alpha  occ. eigenvalues --   -1.34987  -1.34439  -0.70615  -0.70045  -0.54630
 Alpha  occ. eigenvalues --   -0.54075  -0.49533  -0.48989
 Alpha virt. eigenvalues --    0.20639   0.21302   0.30925   0.31461   0.81005
 Alpha virt. eigenvalues --    0.81567   0.83104   0.85370   0.87249   0.88464
 Alpha virt. eigenvalues --    1.17847   1.18392   1.22313   1.22871   2.57905

 Mulliken charges:
               1
     1  O   -0.735471
     2  H    0.365175
     3  H    0.370310
     4  O   -0.734214
     5  H    0.363124
     6  H    0.371076
 Sum of Mulliken charges =  -0.00000

 Dipole moment (field-independent basis, Debye):
    X=             -1.9728    Y=             -0.9204    Z=              0.0000  Tot=              2.1769
 Quadrupole moment (field-independent basis, Debye-Ang):
   XX=             -9.2418   YY=              9.4574   ZZ=            -14.9869
   XY=             -3.8553   XZ=              0.0000   YZ=              0.0000

 \MP4DQ=-33.8900516\MP4SDQ=-33.8920848\CCSD=-33.8931413\CCSD(T)=-33.895
 Normal termination of Gaussian 16 at Sun Dec 10 06:32:00 2023.
