 Gaussian 16, Revision A.03,
 Gaussian 16:  ES64L-G16RevA.03 25-Dec-2016

 ------------------
 #p CCSD(T)/CEP-31G
 ------------------

 ------------
 H2O_H2O_4604
 ------------
 Symbolic Z-matrix:
 Charge =  0 Multiplicity = 1

                         Standard orientation:
 ---------------------------------------------------------------------
 Center     Atomic      Atomic             Coordinates (Angstroms)
 Number     Number       Type             X           Y           Z
 ---------------------------------------------------------------------
      1          8           0        0.014783   -3.247939    0.000000
      2          1           0       -0.785012   -3.818758    0.000000
      3          1           0        0.814130   -3.819384    0.000000
      4          8           0        0.014783    3.251820    0.000000
      5          1           0        0.639587    4.010190    0.000000
      6          1           0       -0.905229    3.596906    0.000000
 ---------------------------------------------------------------------

 SCF Done:  E(RHF) =  -33.6507449807     A.U. after   11 cycles
 E2 =    -0.2284335016D+00 EUMP2 =    -0.33879178482284D+02
 CCSD(T)
 CCSD(T)= -0.33896208888D+02

 The electronic state is 1-A'.
 Alpha  occ. eigenvalues --   -1.35050  -1.35022  -0.70678  -0.70649  -0.54727
 Alpha  occ. eigenvalues --   -0.54699  -0.49605  -0.49578
 Alpha virt. eigenvalues --    0.20664   0.20692   0.30896   0.30923   0.80948
 Alpha virt. eigenvalues --    0.80976   0.84073   0.84101   0.87147   0.87180
 Alpha virt. eigenvalues --    1.17807   1.17835   1.22274   1.22301   2.57850

 Mulliken charges:
               1
     1  O   -0.737398
     2  H    0.368341
     3  H    0.369057
     4  O   -0.737358
     5  H    0.368169
     6  H    0.369189
 Sum of Mulliken charges =   0.00000

 Dipole moment (field-independent basis, Debye):
    X=             -0.6825    Y=             -0.0907    Z=              0.0000  Tot=              0.6885
 Quadrupole moment (field-independent basis, Debye-Ang):
   XX=             -8.1786   YY=             22.0240   ZZ=            -14.9869
   XY=             -1.7761   XZ=              0.0000   YZ=              0.0000

 4DQ=-33.8905566\MP4SDQ=-33.8925871\CCSD=-33.8936445\CCSD(T)=-33.896208
 Normal termination of Gaussian 16 at Sun Dec 10 07:04:31 2023.
