 Gaussian 16, Revision A.03,
 Gaussian 16:  ES64L-G16RevA.03 25-Dec-2016

 ------------------
 #p CCSD(T)/CEP-31G
 ------------------

 ------------
 H2O_H2O_1322
 ------------
 Symbolic Z-matrix:
 Charge =  0 Multiplicity = 1

                         Standard orientation:
 ---------------------------------------------------------------------
 Center     Atomic      Atomic             Coordinates (Angstroms)
 Number     Number       Type             X           Y           Z
 ---------------------------------------------------------------------
      1          8           0        0.056787   -1.441246    0.000000
      2          1           0       -0.744648   -2.009761    0.000000
      3          1           0        0.854486   -2.014990    0.000000
      4          8           0        0.056787    1.540192    0.000000
      5          1           0       -0.402256    2.408976    0.000000
      6          1           0       -0.616169    0.824206    0.000000
 ---------------------------------------------------------------------

 SCF Done:  E(RHF) =  -33.6531160216     A.U. after   11 cycles
 E2 =    -0.2292435792D+00 EUMP2 =    -0.33882359600828D+02
 CCSD(T)
 CCSD(T)= -0.33899385035D+02

 The electronic state is 1-A'.
 Alpha  occ. eigenvalues --   -1.36168  -1.32458  -0.71820  -0.68173  -0.55913
 Alpha  occ. eigenvalues --   -0.52231  -0.50768  -0.47054
 Alpha virt. eigenvalues --    0.19090   0.24986   0.29918   0.34603   0.76963
 Alpha virt. eigenvalues --    0.77994   0.85513   0.86788   0.90782   1.10703
 Alpha virt. eigenvalues --    1.16786   1.20240   1.21999   1.29387   2.54901

 Mulliken charges:
               1
     1  O   -0.753078
     2  H    0.365121
     3  H    0.389377
     4  O   -0.739754
     5  H    0.345640
     6  H    0.392695
 Sum of Mulliken charges =  -0.00000

 Dipole moment (field-independent basis, Debye):
    X=             -2.5263    Y=             -2.5164    Z=              0.0000  Tot=              3.5657
 Quadrupole moment (field-independent basis, Debye-Ang):
   XX=            -10.0979   YY=             -1.7772   ZZ=            -14.9981
   XY=             -4.0364   XZ=              0.0000   YZ=              0.0000

 4DQ=-33.8935907\MP4SDQ=-33.8957004\CCSD=-33.8967257\CCSD(T)=-33.899385
 Normal termination of Gaussian 16 at Sun Dec 10 06:49:28 2023.
