 Gaussian 16, Revision A.03,
 Gaussian 16:  ES64L-G16RevA.03 25-Dec-2016

 ------------------
 #p CCSD(T)/CEP-31G
 ------------------

 -----------
 H2O_H2O_358
 -----------
 Symbolic Z-matrix:
 Charge =  0 Multiplicity = 1

                         Standard orientation:
 ---------------------------------------------------------------------
 Center     Atomic      Atomic             Coordinates (Angstroms)
 Number     Number       Type             X           Y           Z
 ---------------------------------------------------------------------
      1          8           0        0.028575   -0.981505    0.000000
      2          1           0       -0.772413   -1.550648    0.000000
      3          1           0        0.826724   -1.554623    0.000000
      4          8           0        0.028575    0.996667    0.000000
      5          1           0        0.437681    1.890053    0.000000
      6          1           0       -0.949201    1.093926    0.000000
 ---------------------------------------------------------------------

 SCF Done:  E(RHF) =  -33.5914685665     A.U. after   11 cycles
 E2 =    -0.2325920218D+00 EUMP2 =    -0.33824060588337D+02
 CCSD(T)
 CCSD(T)= -0.33841237390D+02

 The electronic state is 1-A'.
 Alpha  occ. eigenvalues --   -1.33835  -1.30412  -0.69085  -0.66800  -0.58519
 Alpha  occ. eigenvalues --   -0.48746  -0.44125  -0.41661
 Alpha virt. eigenvalues --    0.21065   0.26511   0.32314   0.33362   0.80655
 Alpha virt. eigenvalues --    0.81355   0.90103   0.96421   1.01078   1.18772
 Alpha virt. eigenvalues --    1.19753   1.23812   1.26309   1.30026   2.49713

 Mulliken charges:
               1
     1  O   -0.722505
     2  H    0.340848
     3  H    0.371154
     4  O   -0.682381
     5  H    0.349545
     6  H    0.343339
 Sum of Mulliken charges =  -0.00000

 Dipole moment (field-independent basis, Debye):
    X=             -1.1085    Y=             -0.3624    Z=              0.0000  Tot=              1.1662
 Quadrupole moment (field-independent basis, Debye-Ang):
   XX=             -8.8117   YY=             -4.1431   ZZ=            -15.0136
   XY=             -0.7279   XZ=              0.0000   YZ=              0.0000

 MP4DQ=-33.8349828\MP4SDQ=-33.8372906\CCSD=-33.8382606\CCSD(T)=-33.8412
 Normal termination of Gaussian 16 at Sun Dec 10 06:31:28 2023.
