 Gaussian 16, Revision A.03,
 Gaussian 16:  ES64L-G16RevA.03 25-Dec-2016

 ------------------
 #p CCSD(T)/CEP-31G
 ------------------

 ------------
 H2O_H2O_3194
 ------------
 Symbolic Z-matrix:
 Charge =  0 Multiplicity = 1

                         Standard orientation:
 ---------------------------------------------------------------------
 Center     Atomic      Atomic             Coordinates (Angstroms)
 Number     Number       Type             X           Y           Z
 ---------------------------------------------------------------------
      1          8           0        0.054155   -2.450194    0.000000
      2          1           0       -0.746483   -3.019829    0.000000
      3          1           0        0.852656   -3.022820    0.000000
      4          8           0        0.054155    2.527501    0.000000
      5          1           0       -0.227894    3.468753    0.000000
      6          1           0       -0.744753    1.955440    0.000000
 ---------------------------------------------------------------------

 SCF Done:  E(RHF) =  -33.6515491707     A.U. after   11 cycles
 E2 =    -0.2284301292D+00 EUMP2 =    -0.33879979299859D+02
 CCSD(T)
 CCSD(T)= -0.33896986558D+02

 The electronic state is 1-A'.
 Alpha  occ. eigenvalues --   -1.35476  -1.34522  -0.71109  -0.70126  -0.55200
 Alpha  occ. eigenvalues --   -0.54230  -0.50044  -0.49091
 Alpha virt. eigenvalues --    0.20243   0.21296   0.30516   0.31484   0.80510
 Alpha virt. eigenvalues --    0.81443   0.83331   0.84670   0.86651   0.87834
 Alpha virt. eigenvalues --    1.17415   1.18370   1.21868   1.22866   2.57430

 Mulliken charges:
               1
     1  O   -0.740336
     2  H    0.367555
     3  H    0.372796
     4  O   -0.739388
     5  H    0.364396
     6  H    0.374976
 Sum of Mulliken charges =  -0.00000

 Dipole moment (field-independent basis, Debye):
    X=             -2.4907    Y=             -1.8282    Z=              0.0000  Tot=              3.0896
 Quadrupole moment (field-independent basis, Debye-Ang):
   XX=             -9.9389   YY=              6.9805   ZZ=            -14.9889
   XY=             -5.9125   XZ=              0.0000   YZ=              0.0000

 \MP4DQ=-33.8913396\MP4SDQ=-33.8933688\CCSD=-33.8944229\CCSD(T)=-33.896
 Normal termination of Gaussian 16 at Sun Dec 10 06:37:22 2023.
