 Gaussian 16, Revision A.03,
 Gaussian 16:  ES64L-G16RevA.03 25-Dec-2016

 ------------------
 #p CCSD(T)/CEP-31G
 ------------------

 ------------
 H2O_H2O_1388
 ------------
 Symbolic Z-matrix:
 Charge =  0 Multiplicity = 1

                         Standard orientation:
 ---------------------------------------------------------------------
 Center     Atomic      Atomic             Coordinates (Angstroms)
 Number     Number       Type             X           Y           Z
 ---------------------------------------------------------------------
      1          8           0        0.042987   -1.513851    0.000000
      2          1           0       -0.757959   -2.083054    0.000000
      3          1           0        0.841178   -2.086909    0.000000
      4          8           0        0.042987    1.552556    0.000000
      5          1           0        0.143138    2.530040    0.000000
      6          1           0       -0.914146    1.330287    0.000000
 ---------------------------------------------------------------------

 SCF Done:  E(RHF) =  -33.6457886310     A.U. after   11 cycles
 E2 =    -0.2292184093D+00 EUMP2 =    -0.33875007040381D+02
 CCSD(T)
 CCSD(T)= -0.33892254884D+02

 The electronic state is 1-A'.
 Alpha  occ. eigenvalues --   -1.34351  -1.33079  -0.69981  -0.68649  -0.54201
 Alpha  occ. eigenvalues --   -0.52045  -0.48877  -0.47557
 Alpha virt. eigenvalues --    0.20324   0.23410   0.31367   0.32511   0.76388
 Alpha virt. eigenvalues --    0.79479   0.84332   0.85328   0.91393   1.12131
 Alpha virt. eigenvalues --    1.18278   1.21443   1.22907   1.24721   2.59627

 Mulliken charges:
               1
     1  O   -0.725035
     2  H    0.354643
     3  H    0.370212
     4  O   -0.715351
     5  H    0.348354
     6  H    0.367178
 Sum of Mulliken charges =   0.00000

 Dipole moment (field-independent basis, Debye):
    X=             -1.9178    Y=             -0.9656    Z=              0.0000  Tot=              2.1472
 Quadrupole moment (field-independent basis, Debye-Ang):
   XX=             -9.2778   YY=              2.0546   ZZ=            -14.9870
   XY=             -2.3482   XZ=              0.0000   YZ=              0.0000

 MP4DQ=-33.8864713\MP4SDQ=-33.8885694\CCSD=-33.8896267\CCSD(T)=-33.8922
 Normal termination of Gaussian 16 at Sun Dec 10 06:50:42 2023.
