 Gaussian 16, Revision A.03,
 Gaussian 16:  ES64L-G16RevA.03 25-Dec-2016

 ------------------
 #p CCSD(T)/CEP-31G
 ------------------

 -----------
 H2O_H2O_399
 -----------
 Symbolic Z-matrix:
 Charge =  0 Multiplicity = 1

                         Standard orientation:
 ---------------------------------------------------------------------
 Center     Atomic      Atomic             Coordinates (Angstroms)
 Number     Number       Type             X           Y           Z
 ---------------------------------------------------------------------
      1          8           0        0.057394   -0.941302    0.000000
      2          1           0       -0.744981   -1.508489    0.000000
      3          1           0        0.854142   -1.516365    0.000000
      4          8           0        0.057394    1.054964    0.000000
      5          1           0       -0.509793    1.857339    0.000000
      6          1           0       -0.517670    0.258216    0.000000
 ---------------------------------------------------------------------

 SCF Done:  E(RHF) =  -33.5882605530     A.U. after   11 cycles
 E2 =    -0.2317643347D+00 EUMP2 =    -0.33820024887685D+02
 CCSD(T)
 CCSD(T)= -0.33835712316D+02

 The electronic state is 1-A'.
 Alpha  occ. eigenvalues --   -1.40632  -1.28685  -0.76983  -0.72005  -0.54299
 Alpha  occ. eigenvalues --   -0.50273  -0.48795  -0.43061
 Alpha virt. eigenvalues --    0.18373   0.27626   0.29497   0.39516   0.76765
 Alpha virt. eigenvalues --    0.85037   0.90601   0.93288   0.98658   1.15621
 Alpha virt. eigenvalues --    1.18185   1.19978   1.30952   1.32643   2.89026

 Mulliken charges:
               1
     1  O   -0.800037
     2  H    0.376792
     3  H    0.451924
     4  O   -0.707729
     5  H    0.301415
     6  H    0.377635
 Sum of Mulliken charges =  -0.00000

 Dipole moment (field-independent basis, Debye):
    X=             -2.2324    Y=             -3.3391    Z=              0.0000  Tot=              4.0166
 Quadrupole moment (field-independent basis, Debye-Ang):
   XX=            -10.0894   YY=             -6.9301   ZZ=            -14.9706
   XY=             -2.9321   XZ=              0.0000   YZ=              0.0000

 MP4DQ=-33.8293677\MP4SDQ=-33.8317728\CCSD=-33.8325071\CCSD(T)=-33.8357
 Normal termination of Gaussian 16 at Sun Dec 10 06:32:14 2023.
