 Gaussian 16, Revision A.03,
 Gaussian 16:  ES64L-G16RevA.03 25-Dec-2016

 ------------------
 #p CCSD(T)/CEP-31G
 ------------------

 ------------
 H2O_H2O_1585
 ------------
 Symbolic Z-matrix:
 Charge =  0 Multiplicity = 1

                         Standard orientation:
 ---------------------------------------------------------------------
 Center     Atomic      Atomic             Coordinates (Angstroms)
 Number     Number       Type             X           Y           Z
 ---------------------------------------------------------------------
      1          8           0        0.034790   -1.628489    0.000000
      2          1           0       -0.765822   -2.198161    0.000000
      3          1           0        0.833317   -2.201079    0.000000
      4          8           0        0.034790    1.651966    0.000000
      5          1           0        0.323164    2.591300    0.000000
      6          1           0       -0.947296    1.620120    0.000000
 ---------------------------------------------------------------------

 SCF Done:  E(RHF) =  -33.6455356790     A.U. after   11 cycles
 E2 =    -0.2290276992D+00 EUMP2 =    -0.33874563378222D+02
 CCSD(T)
 CCSD(T)= -0.33891790324D+02

 The electronic state is 1-A'.
 Alpha  occ. eigenvalues --   -1.34105  -1.33425  -0.69730  -0.69009  -0.53921
 Alpha  occ. eigenvalues --   -0.52354  -0.48618  -0.47893
 Alpha virt. eigenvalues --    0.20671   0.22749   0.31591   0.32203   0.75698
 Alpha virt. eigenvalues --    0.80208   0.84418   0.84560   0.91376   1.07100
 Alpha virt. eigenvalues --    1.18536   1.19821   1.23140   1.23809   2.58709

 Mulliken charges:
               1
     1  O   -0.721566
     2  H    0.355502
     3  H    0.366171
     4  O   -0.716928
     5  H    0.352069
     6  H    0.364753
 Sum of Mulliken charges =   0.00000

 Dipole moment (field-independent basis, Debye):
    X=             -1.5664    Y=             -0.5829    Z=              0.0000  Tot=              1.6713
 Quadrupole moment (field-independent basis, Debye-Ang):
   XX=             -8.8818   YY=              3.8908   ZZ=            -14.9851
   XY=             -1.9029   XZ=              0.0000   YZ=              0.0000

 \MP4DQ=-33.8860377\MP4SDQ=-33.8881187\CCSD=-33.8891766\CCSD(T)=-33.891
 Normal termination of Gaussian 16 at Sun Dec 10 06:54:21 2023.
