 Gaussian 16, Revision A.03,
 Gaussian 16:  ES64L-G16RevA.03 25-Dec-2016

 ------------------
 #p CCSD(T)/CEP-31G
 ------------------

 ------------
 H2O_H2O_2029
 ------------
 Symbolic Z-matrix:
 Charge =  0 Multiplicity = 1

                         Standard orientation:
 ---------------------------------------------------------------------
 Center     Atomic      Atomic             Coordinates (Angstroms)
 Number     Number       Type             X           Y           Z
 ---------------------------------------------------------------------
      1          8           0        0.014783   -1.878464    0.000000
      2          1           0       -0.785174   -2.449055    0.000000
      3          1           0        0.813968   -2.450137    0.000000
      4          8           0        0.014783    1.882337    0.000000
      5          1           0        0.639804    2.640529    0.000000
      6          1           0       -0.905130    2.227686    0.000000
 ---------------------------------------------------------------------

 SCF Done:  E(RHF) =  -33.6464361435     A.U. after   11 cycles
 E2 =    -0.2287694791D+00 EUMP2 =    -0.33875205622601D+02
 CCSD(T)
 CCSD(T)= -0.33892368935D+02

 The electronic state is 1-A'.
 Alpha  occ. eigenvalues --   -1.34042  -1.33954  -0.69663  -0.69569  -0.53759
 Alpha  occ. eigenvalues --   -0.53055  -0.48561  -0.48426
 Alpha virt. eigenvalues --    0.21042   0.21924   0.31612   0.31820   0.78200
 Alpha virt. eigenvalues --    0.81194   0.82905   0.86372   0.90142   0.95638
 Alpha virt. eigenvalues --    1.18643   1.18737   1.23065   1.23374   2.58215

 Mulliken charges:
               1
     1  O   -0.722913
     2  H    0.359877
     3  H    0.363063
     4  O   -0.722449
     5  H    0.359308
     6  H    0.363114
 Sum of Mulliken charges =   0.00000

 Dipole moment (field-independent basis, Debye):
    X=             -0.6736    Y=             -0.0946    Z=              0.0000  Tot=              0.6802
 Quadrupole moment (field-independent basis, Debye-Ang):
   XX=             -8.2434   YY=              7.4774   ZZ=            -14.9839
   XY=             -0.8732   XZ=              0.0000   YZ=              0.0000

 \MP4DQ=-33.8866638\MP4SDQ=-33.8887185\CCSD=-33.8897775\CCSD(T)=-33.892
 Normal termination of Gaussian 16 at Sun Dec 10 07:03:56 2023.
