 Gaussian 16, Revision A.03,
 Gaussian 16:  ES64L-G16RevA.03 25-Dec-2016

 ------------------
 #p CCSD(T)/CEP-31G
 ------------------

 ------------
 H2O_H2O_1012
 ------------
 Symbolic Z-matrix:
 Charge =  0 Multiplicity = 1

                         Standard orientation:
 ---------------------------------------------------------------------
 Center     Atomic      Atomic             Coordinates (Angstroms)
 Number     Number       Type             X           Y           Z
 ---------------------------------------------------------------------
      1          8           0        0.040429   -1.317377    0.000000
      2          1           0       -0.760628   -1.886424    0.000000
      3          1           0        0.838508   -1.890591    0.000000
      4          8           0        0.040429    1.350623    0.000000
      5          1           0        0.204485    2.319432    0.000000
      6          1           0       -0.929223    1.191618    0.000000
 ---------------------------------------------------------------------

 SCF Done:  E(RHF) =  -33.6404613674     A.U. after   11 cycles
 E2 =    -0.2297653950D+00 EUMP2 =    -0.33870226762406D+02
 CCSD(T)
 CCSD(T)= -0.33887597365D+02

 The electronic state is 1-A'.
 Alpha  occ. eigenvalues --   -1.33874  -1.32463  -0.69495  -0.68098  -0.54439
 Alpha  occ. eigenvalues --   -0.50322  -0.48459  -0.46799
 Alpha virt. eigenvalues --    0.20524   0.24299   0.31765   0.32786   0.78830
 Alpha virt. eigenvalues --    0.82611   0.83381   0.87594   0.95358   1.15739
 Alpha virt. eigenvalues --    1.18757   1.22535   1.23451   1.27495   2.58490

 Mulliken charges:
               1
     1  O   -0.723292
     2  H    0.349742
     3  H    0.370280
     4  O   -0.701930
     5  H    0.344482
     6  H    0.360718
 Sum of Mulliken charges =   0.00000

 Dipole moment (field-independent basis, Debye):
    X=             -1.7590    Y=             -0.8259    Z=              0.0000  Tot=              1.9432
 Quadrupole moment (field-independent basis, Debye-Ang):
   XX=             -9.1775   YY=              0.1945   ZZ=            -14.9898
   XY=             -1.8002   XZ=              0.0000   YZ=              0.0000

 \MP4DQ=-33.8817183\MP4SDQ=-33.8838468\CCSD=-33.8849199\CCSD(T)=-33.887
 Normal termination of Gaussian 16 at Sun Dec 10 06:43:41 2023.
