 Gaussian 16, Revision A.03,
 Gaussian 16:  ES64L-G16RevA.03 25-Dec-2016

 ------------------
 #p CCSD(T)/CEP-31G
 ------------------

 ------------
 H2O_H2O_1554
 ------------
 Symbolic Z-matrix:
 Charge =  0 Multiplicity = 1

                         Standard orientation:
 ---------------------------------------------------------------------
 Center     Atomic      Atomic             Coordinates (Angstroms)
 Number     Number       Type             X           Y           Z
 ---------------------------------------------------------------------
      1          8           0        0.014784   -1.625844    0.000000
      2          1           0       -0.785234   -2.196350    0.000000
      3          1           0        0.813908   -2.197600    0.000000
      4          8           0        0.014784    1.629712    0.000000
      5          1           0        0.639883    2.387840    0.000000
      6          1           0       -0.905094    1.975159    0.000000
 ---------------------------------------------------------------------

 SCF Done:  E(RHF) =  -33.6433693448     A.U. after   11 cycles
 E2 =    -0.2290325826D+00 EUMP2 =    -0.33872401927406D+02
 CCSD(T)
 CCSD(T)= -0.33889681887D+02

 The electronic state is 1-A'.
 Alpha  occ. eigenvalues --   -1.33601  -1.33456  -0.69216  -0.69068  -0.53653
 Alpha  occ. eigenvalues --   -0.51889  -0.48148  -0.47822
 Alpha virt. eigenvalues --    0.21117   0.22583   0.31894   0.32212   0.76592
 Alpha virt. eigenvalues --    0.80438   0.84116   0.84718   0.93927   1.04756
 Alpha virt. eigenvalues --    1.18976   1.19258   1.23453   1.23902   2.59183

 Mulliken charges:
               1
     1  O   -0.714529
     2  H    0.354926
     3  H    0.359602
     4  O   -0.713568
     5  H    0.354357
     6  H    0.359212
 Sum of Mulliken charges =   0.00000

 Dipole moment (field-independent basis, Debye):
    X=             -0.6667    Y=             -0.0964    Z=              0.0000  Tot=              0.6736
 Quadrupole moment (field-independent basis, Debye-Ang):
   XX=             -8.2845   YY=              4.6683   ZZ=            -14.9836
   XY=             -0.7166   XZ=              0.0000   YZ=              0.0000

 P4DQ=-33.8839172\MP4SDQ=-33.8859963\CCSD=-33.8870632\CCSD(T)=-33.88968
 Normal termination of Gaussian 16 at Sun Dec 10 06:53:47 2023.
