 Gaussian 16, Revision A.03,
 Gaussian 16:  ES64L-G16RevA.03 25-Dec-2016

 ------------------
 #p CCSD(T)/CEP-31G
 ------------------

 ------------
 H2O_H2O_3055
 ------------
 Symbolic Z-matrix:
 Charge =  0 Multiplicity = 1

                         Standard orientation:
 ---------------------------------------------------------------------
 Center     Atomic      Atomic             Coordinates (Angstroms)
 Number     Number       Type             X           Y           Z
 ---------------------------------------------------------------------
      1          8           0        0.018360   -2.422420    0.000000
      2          1           0       -0.781583   -2.993031    0.000000
      3          1           0        0.817559   -2.994073    0.000000
      4          8           0        0.018360    2.428459    0.000000
      5          1           0        0.592434    3.225921    0.000000
      6          1           0       -0.922176    2.712879    0.000000
 ---------------------------------------------------------------------

 SCF Done:  E(RHF) =  -33.6493204075     A.U. after   11 cycles
 E2 =    -0.2285255220D+00 EUMP2 =    -0.33877845929513D+02
 CCSD(T)
 CCSD(T)= -0.33894917556D+02

 The electronic state is 1-A'.
 Alpha  occ. eigenvalues --   -1.34648  -1.34570  -0.70272  -0.70191  -0.54253
 Alpha  occ. eigenvalues --   -0.54150  -0.49183  -0.49105
 Alpha virt. eigenvalues --    0.20950   0.21106   0.31216   0.31292   0.81344
 Alpha virt. eigenvalues --    0.81471   0.83744   0.85587   0.87600   0.87855
 Alpha virt. eigenvalues --    1.18150   1.18227   1.22629   1.22709   2.58228

 Mulliken charges:
               1
     1  O   -0.732499
     2  H    0.365254
     3  H    0.367246
     4  O   -0.732265
     5  H    0.364824
     6  H    0.367440
 Sum of Mulliken charges =   0.00000

 Dipole moment (field-independent basis, Debye):
    X=             -0.8440    Y=             -0.1430    Z=              0.0000  Tot=              0.8560
 Quadrupole moment (field-independent basis, Debye-Ang):
   XX=             -8.2763   YY=             13.1474   ZZ=            -14.9856
   XY=             -1.5344   XZ=              0.0000   YZ=              0.0000

 \MP4DQ=-33.8892534\MP4SDQ=-33.8912881\CCSD=-33.8923472\CCSD(T)=-33.894
 Normal termination of Gaussian 16 at Sun Dec 10 06:34:55 2023.
