 Gaussian 16, Revision A.03,
 Gaussian 16:  ES64L-G16RevA.03 25-Dec-2016

 ------------------
 #p CCSD(T)/CEP-31G
 ------------------

 -----------
 H2O_H2O_965
 -----------
 Symbolic Z-matrix:
 Charge =  0 Multiplicity = 1

                         Standard orientation:
 ---------------------------------------------------------------------
 Center     Atomic      Atomic             Coordinates (Angstroms)
 Number     Number       Type             X           Y           Z
 ---------------------------------------------------------------------
      1          8           0        0.047567   -1.281431    0.000000
      2          1           0       -0.753787   -1.850058    0.000000
      3          1           0        0.845347   -1.855062    0.000000
      4          8           0        0.047567    1.331899    0.000000
      5          1           0        0.019979    2.314113    0.000000
      6          1           0       -0.872613    0.987261    0.000000
 ---------------------------------------------------------------------

 SCF Done:  E(RHF) =  -33.6422018462     A.U. after   11 cycles
 E2 =    -0.2299217609D+00 EUMP2 =    -0.33872123607055D+02
 CCSD(T)
 CCSD(T)= -0.33889440431D+02

 The electronic state is 1-A'.
 Alpha  occ. eigenvalues --   -1.34459  -1.32240  -0.70099  -0.67969  -0.54618
 Alpha  occ. eigenvalues --   -0.50677  -0.49042  -0.46648
 Alpha virt. eigenvalues --    0.20104   0.24887   0.31306   0.33119   0.78375
 Alpha virt. eigenvalues --    0.82664   0.86246   0.87769   0.93707   1.16451
 Alpha virt. eigenvalues --    1.18690   1.22244   1.22899   1.29158   2.60633

 Mulliken charges:
               1
     1  O   -0.734415
     2  H    0.352350
     3  H    0.377726
     4  O   -0.703607
     5  H    0.341313
     6  H    0.366632
 Sum of Mulliken charges =   0.00000

 Dipole moment (field-independent basis, Debye):
    X=             -2.0590    Y=             -1.2638    Z=              0.0000  Tot=              2.4159
 Quadrupole moment (field-independent basis, Debye-Ang):
   XX=             -9.5427   YY=             -0.7713   ZZ=            -14.9919
   XY=             -2.2973   XZ=              0.0000   YZ=              0.0000

 \MP4DQ=-33.8835431\MP4SDQ=-33.8856879\CCSD=-33.8867464\CCSD(T)=-33.889
 Normal termination of Gaussian 16 at Sun Dec 10 06:42:48 2023.
