 Gaussian 16, Revision A.03,
 Gaussian 16:  ES64L-G16RevA.03 25-Dec-2016

 ------------------
 #p CCSD(T)/CEP-31G
 ------------------

 ------------
 H2O_H2O_2964
 ------------
 Symbolic Z-matrix:
 Charge =  0 Multiplicity = 1

                         Standard orientation:
 ---------------------------------------------------------------------
 Center     Atomic      Atomic             Coordinates (Angstroms)
 Number     Number       Type             X           Y           Z
 ---------------------------------------------------------------------
      1          8           0        0.045348   -2.348325    0.000000
      2          1           0       -0.755162   -2.918141    0.000000
      3          1           0        0.843978   -2.920772    0.000000
      4          8           0        0.045348    2.392866    0.000000
      5          1           0        0.080602    3.374835    0.000000
      6          1           0       -0.894981    2.107754    0.000000
 ---------------------------------------------------------------------

 SCF Done:  E(RHF) =  -33.6504209461     A.U. after   11 cycles
 E2 =    -0.2284941211D+00 EUMP2 =    -0.33878915067197D+02
 CCSD(T)
 CCSD(T)= -0.33895955400D+02

 The electronic state is 1-A'.
 Alpha  occ. eigenvalues --   -1.35075  -1.34467  -0.70704  -0.70073  -0.54733
 Alpha  occ. eigenvalues --   -0.54119  -0.49626  -0.49021
 Alpha virt. eigenvalues --    0.20575   0.21282   0.30852   0.31450   0.80920
 Alpha virt. eigenvalues --    0.81528   0.83270   0.85170   0.87138   0.88258
 Alpha virt. eigenvalues --    1.17769   1.18375   1.22233   1.22853   2.57819

 Mulliken charges:
               1
     1  O   -0.736407
     2  H    0.365629
     3  H    0.370789
     4  O   -0.735171
     5  H    0.363422
     6  H    0.371737
 Sum of Mulliken charges =   0.00000

 Dipole moment (field-independent basis, Debye):
    X=             -2.0829    Y=             -1.0560    Z=              0.0000  Tot=              2.3353
 Quadrupole moment (field-independent basis, Debye-Ang):
   XX=             -9.3755   YY=              9.2943   ZZ=            -14.9872
   XY=             -4.2327   XZ=              0.0000   YZ=              0.0000

 \MP4DQ=-33.8902993\MP4SDQ=-33.8923317\CCSD=-33.8933878\CCSD(T)=-33.895
 Normal termination of Gaussian 16 at Sun Dec 10 06:33:20 2023.
