 Gaussian 16, Revision A.03,
 Gaussian 16:  ES64L-G16RevA.03 25-Dec-2016

 ------------------
 #p CCSD(T)/CEP-31G
 ------------------

 -----------
 H2O_H2O_378
 -----------
 Symbolic Z-matrix:
 Charge =  0 Multiplicity = 1

                         Standard orientation:
 ---------------------------------------------------------------------
 Center     Atomic      Atomic             Coordinates (Angstroms)
 Number     Number       Type             X           Y           Z
 ---------------------------------------------------------------------
      1          8           0        0.011143   -1.001857    0.000000
      2          1           0       -0.788973   -1.572224    0.000000
      3          1           0        0.810168   -1.573753    0.000000
      4          8           0        0.011143    1.004030    0.000000
      5          1           0        0.684613    1.719534    0.000000
      6          1           0       -0.884100    1.409055    0.000000
 ---------------------------------------------------------------------

 SCF Done:  E(RHF) =  -33.5913620724     A.U. after   11 cycles
 E2 =    -0.2324807797D+00 EUMP2 =    -0.33823842852140D+02
 CCSD(T)
 CCSD(T)= -0.33840980976D+02

 The electronic state is 1-A'.
 Alpha  occ. eigenvalues --   -1.33264  -1.30386  -0.68360  -0.66369  -0.58940
 Alpha  occ. eigenvalues --   -0.48218  -0.44001  -0.41013
 Alpha virt. eigenvalues --    0.21505   0.26135   0.32769   0.33446   0.78654
 Alpha virt. eigenvalues --    0.80879   0.90237   0.94985   1.04176   1.20121
 Alpha virt. eigenvalues --    1.21150   1.22838   1.25711   1.27658   2.48551

 Mulliken charges:
               1
     1  O   -0.701249
     2  H    0.343521
     3  H    0.356168
     4  O   -0.695362
     5  H    0.350937
     6  H    0.345985
 Sum of Mulliken charges =  -0.00000

 Dipole moment (field-independent basis, Debye):
    X=             -0.4317    Y=             -0.0515    Z=              0.0000  Tot=              0.4347
 Quadrupole moment (field-independent basis, Debye-Ang):
   XX=             -8.4148   YY=             -3.8267   ZZ=            -15.0261
   XY=             -0.2475   XZ=              0.0000   YZ=              0.0000

 Q=-33.8347512\MP4SDQ=-33.8370253\CCSD=-33.8380085\CCSD(T)=-33.840981\R
 Normal termination of Gaussian 16 at Sun Dec 10 06:31:50 2023.
