 Gaussian 16, Revision A.03,
 Gaussian 16:  ES64L-G16RevA.03 25-Dec-2016

 ------------------
 #p CCSD(T)/CEP-31G
 ------------------

 ------------
 H2O_H2O_2717
 ------------
 Symbolic Z-matrix:
 Charge =  0 Multiplicity = 1

                         Standard orientation:
 ---------------------------------------------------------------------
 Center     Atomic      Atomic             Coordinates (Angstroms)
 Number     Number       Type             X           Y           Z
 ---------------------------------------------------------------------
      1          8           0        0.051286   -2.205068    0.000000
      2          1           0       -0.749409   -2.774622    0.000000
      3          1           0        0.849730   -2.777775    0.000000
      4          8           0        0.051286    2.268571    0.000000
      5          1           0       -0.105393    3.238601    0.000000
      6          1           0       -0.815502    1.805771    0.000000
 ---------------------------------------------------------------------

 SCF Done:  E(RHF) =  -33.6509451868     A.U. after   11 cycles
 E2 =    -0.2284966113D+00 EUMP2 =    -0.33879441798069D+02
 CCSD(T)
 CCSD(T)= -0.33896467451D+02

 The electronic state is 1-A'.
 Alpha  occ. eigenvalues --   -1.35277  -1.34293  -0.70909  -0.69887  -0.54965
 Alpha  occ. eigenvalues --   -0.53967  -0.49835  -0.48855
 Alpha virt. eigenvalues --    0.20306   0.21575   0.30665   0.31671   0.80698
 Alpha virt. eigenvalues --    0.81699   0.82316   0.85383   0.86881   0.89185
 Alpha virt. eigenvalues --    1.17589   1.18607   1.22021   1.23127   2.57629

 Mulliken charges:
               1
     1  O   -0.738250
     2  H    0.365777
     3  H    0.372538
     4  O   -0.736549
     5  H    0.362148
     6  H    0.374335
 Sum of Mulliken charges =  -0.00000

 Dipole moment (field-independent basis, Debye):
    X=             -2.3519    Y=             -1.5136    Z=              0.0000  Tot=              2.7968
 Quadrupole moment (field-independent basis, Debye-Ang):
   XX=             -9.7425   YY=              6.4574   ZZ=            -14.9883
   XY=             -4.7883   XZ=              0.0000   YZ=              0.0000

 \MP4DQ=-33.8908134\MP4SDQ=-33.8928461\CCSD=-33.8938995\CCSD(T)=-33.896
 Normal termination of Gaussian 16 at Sun Dec 10 06:28:47 2023.
