 Gaussian 16, Revision A.03,
 Gaussian 16:  ES64L-G16RevA.03 25-Dec-2016

 ------------------
 #p CCSD(T)/CEP-31G
 ------------------

 ------------
 H2O_H2O_3263
 ------------
 Symbolic Z-matrix:
 Charge =  0 Multiplicity = 1

                         Standard orientation:
 ---------------------------------------------------------------------
 Center     Atomic      Atomic             Coordinates (Angstroms)
 Number     Number       Type             X           Y           Z
 ---------------------------------------------------------------------
      1          8           0        0.042968   -2.511002    0.000000
      2          1           0       -0.757436   -3.080965    0.000000
      3          1           0        0.841704   -3.083301    0.000000
      4          8           0        0.042968    2.549788    0.000000
      5          1           0        0.142191    3.527367    0.000000
      6          1           0       -0.913953    2.326609    0.000000
 ---------------------------------------------------------------------

 SCF Done:  E(RHF) =  -33.6504979687     A.U. after   11 cycles
 E2 =    -0.2284741011D+00 EUMP2 =    -0.33878972069810D+02
 CCSD(T)
 CCSD(T)= -0.33896009854D+02

 The electronic state is 1-A'.
 Alpha  occ. eigenvalues --   -1.35072  -1.34611  -0.70701  -0.70223  -0.54734
 Alpha  occ. eigenvalues --   -0.54270  -0.49624  -0.49164
 Alpha virt. eigenvalues --    0.20616   0.21109   0.30861   0.31312   0.80927
 Alpha virt. eigenvalues --    0.81382   0.83796   0.84754   0.87137   0.87770
 Alpha virt. eigenvalues --    1.17775   1.18232   1.22243   1.22705   2.57821

 Mulliken charges:
               1
     1  O   -0.736634
     2  H    0.366269
     3  H    0.370368
     4  O   -0.735776
     5  H    0.364643
     6  H    0.371132
 Sum of Mulliken charges =  -0.00000

 Dipole moment (field-independent basis, Debye):
    X=             -1.9766    Y=             -0.9156    Z=              0.0000  Tot=              2.1784
 Quadrupole moment (field-independent basis, Debye-Ang):
   XX=             -9.2394   YY=             11.2500   ZZ=            -14.9871
   XY=             -4.2413   XZ=              0.0000   YZ=              0.0000

 MP4DQ=-33.8903551\MP4SDQ=-33.8923867\CCSD=-33.8934434\CCSD(T)=-33.8960
 Normal termination of Gaussian 16 at Sun Dec 10 06:38:36 2023.
