 Gaussian 16, Revision A.03,
 Gaussian 16:  ES64L-G16RevA.03 25-Dec-2016

 ------------------
 #p CCSD(T)/CEP-31G
 ------------------

 ------------
 H2O_H2O_1160
 ------------
 Symbolic Z-matrix:
 Charge =  0 Multiplicity = 1

                         Standard orientation:
 ---------------------------------------------------------------------
 Center     Atomic      Atomic             Coordinates (Angstroms)
 Number     Number       Type             X           Y           Z
 ---------------------------------------------------------------------
      1          8           0        0.034793   -1.402469    0.000000
      2          1           0       -0.765985   -1.971908    0.000000
      3          1           0        0.833154   -1.975292    0.000000
      4          8           0        0.034793    1.425927    0.000000
      5          1           0        0.323442    2.365175    0.000000
      6          1           0       -0.947302    1.394366    0.000000
 ---------------------------------------------------------------------

 SCF Done:  E(RHF) =  -33.6414172517     A.U. after   11 cycles
 E2 =    -0.2294843940D+00 EUMP2 =    -0.33870901645691D+02
 CCSD(T)
 CCSD(T)= -0.33888262548D+02

 The electronic state is 1-A'.
 Alpha  occ. eigenvalues --   -1.33696  -1.32792  -0.69313  -0.68389  -0.54128
 Alpha  occ. eigenvalues --   -0.50785  -0.48254  -0.47139
 Alpha virt. eigenvalues --    0.20748   0.23677   0.31901   0.32579   0.79261
 Alpha virt. eigenvalues --    0.79835   0.82653   0.86770   0.95283   1.14364
 Alpha virt. eigenvalues --    1.18846   1.22140   1.23604   1.24914   2.58884

 Mulliken charges:
               1
     1  O   -0.717295
     2  H    0.350203
     3  H    0.365726
     4  O   -0.705727
     5  H    0.347051
     6  H    0.360041
 Sum of Mulliken charges =   0.00000

 Dipole moment (field-independent basis, Debye):
    X=             -1.5333    Y=             -0.5837    Z=              0.0000  Tot=              1.6406
 Quadrupole moment (field-independent basis, Debye-Ang):
   XX=             -8.9166   YY=              1.4575   ZZ=            -14.9873
   XY=             -1.5696   XZ=              0.0000   YZ=              0.0000

 \MP4DQ=-33.8824237\MP4SDQ=-33.8845337\CCSD=-33.8856086\CCSD(T)=-33.888
 Normal termination of Gaussian 16 at Sun Dec 10 06:46:26 2023.
