 Gaussian 16, Revision A.03,
 Gaussian 16:  ES64L-G16RevA.03 25-Dec-2016

 ------------------
 #p CCSD(T)/CEP-31G
 ------------------

 ------------
 H2O_H2O_1343
 ------------
 Symbolic Z-matrix:
 Charge =  0 Multiplicity = 1

                         Standard orientation:
 ---------------------------------------------------------------------
 Center     Atomic      Atomic             Coordinates (Angstroms)
 Number     Number       Type             X           Y           Z
 ---------------------------------------------------------------------
      1          8           0        0.052872   -1.470156    0.000000
      2          1           0       -0.748419   -2.038873    0.000000
      3          1           0        0.850716   -2.043699    0.000000
      4          8           0        0.052872    1.540351    0.000000
      5          1           0       -0.165912    2.498287    0.000000
      6          1           0       -0.782334    1.022724    0.000000
 ---------------------------------------------------------------------

 SCF Done:  E(RHF) =  -33.6493542868     A.U. after   11 cycles
 E2 =    -0.2292672783D+00 EUMP2 =    -0.33878621565059D+02
 CCSD(T)
 CCSD(T)= -0.33895776484D+02

 The electronic state is 1-A'.
 Alpha  occ. eigenvalues --   -1.35251  -1.32782  -0.70896  -0.68377  -0.54939
 Alpha  occ. eigenvalues --   -0.52289  -0.49809  -0.47331
 Alpha virt. eigenvalues --    0.19639   0.24223   0.30634   0.33169   0.76823
 Alpha virt. eigenvalues --    0.78727   0.85433   0.86100   0.89589   1.12553
 Alpha virt. eigenvalues --    1.17482   1.21192   1.22311   1.27318   2.57525

 Mulliken charges:
               1
     1  O   -0.738218
     2  H    0.358989
     3  H    0.379563
     4  O   -0.725077
     5  H    0.346332
     6  H    0.378411
 Sum of Mulliken charges =   0.00000

 Dipole moment (field-independent basis, Debye):
    X=             -2.3525    Y=             -1.7637    Z=              0.0000  Tot=              2.9402
 Quadrupole moment (field-independent basis, Debye-Ang):
   XX=             -9.8446   YY=              0.1278   ZZ=            -14.9917
   XY=             -3.3244   XZ=              0.0000   YZ=              0.0000

 7\MP4DQ=-33.8899893\MP4SDQ=-33.8920957\CCSD=-33.8931383\CCSD(T)=-33.89
 Normal termination of Gaussian 16 at Sun Dec 10 06:49:51 2023.
