 Gaussian 16, Revision A.03,
 Gaussian 16:  ES64L-G16RevA.03 25-Dec-2016

 ------------------
 #p CCSD(T)/CEP-31G
 ------------------

 ------------
 H2O_H2O_2835
 ------------
 Symbolic Z-matrix:
 Charge =  0 Multiplicity = 1

                         Standard orientation:
 ---------------------------------------------------------------------
 Center     Atomic      Atomic             Coordinates (Angstroms)
 Number     Number       Type             X           Y           Z
 ---------------------------------------------------------------------
      1          8           0        0.034784   -2.293266    0.000000
      2          1           0       -0.765528   -2.863359    0.000000
      3          1           0        0.833612   -2.865436    0.000000
      4          8           0        0.034784    2.316780    0.000000
      5          1           0        0.322664    3.256264    0.000000
      6          1           0       -0.947285    2.284416    0.000000
 ---------------------------------------------------------------------

 SCF Done:  E(RHF) =  -33.6495475726     A.U. after   11 cycles
 E2 =    -0.2285360748D+00 EUMP2 =    -0.33878083647471D+02
 CCSD(T)
 CCSD(T)= -0.33895149221D+02

 The electronic state is 1-A'.
 Alpha  occ. eigenvalues --   -1.34778  -1.34439  -0.70404  -0.70050  -0.54390
 Alpha  occ. eigenvalues --   -0.54037  -0.49316  -0.48979
 Alpha virt. eigenvalues --    0.20811   0.21269   0.31102   0.31426   0.81206
 Alpha virt. eigenvalues --    0.81596   0.83039   0.85745   0.87502   0.88529
 Alpha virt. eigenvalues --    1.18030   1.18365   1.22507   1.22846   2.58103

 Mulliken charges:
               1
     1  O   -0.733355
     2  H    0.364527
     3  H    0.368838
     4  O   -0.732393
     5  H    0.363146
     6  H    0.369237
 Sum of Mulliken charges =   0.00000

 Dipole moment (field-independent basis, Debye):
    X=             -1.5964    Y=             -0.5586    Z=              0.0000  Tot=              1.6914
 Quadrupole moment (field-independent basis, Debye-Ang):
   XX=             -8.8368   YY=             10.5026   ZZ=            -14.9861
   XY=             -2.9120   XZ=              0.0000   YZ=              0.0000

 MP4DQ=-33.8894859\MP4SDQ=-33.8915208\CCSD=-33.8925785\CCSD(T)=-33.8951
 Normal termination of Gaussian 16 at Sun Dec 10 06:30:58 2023.
