 Gaussian 16, Revision A.03,
 Gaussian 16:  ES64L-G16RevA.03 25-Dec-2016

 ------------------
 #p CCSD(T)/CEP-31G
 ------------------

 ------------
 H2O_H2O_1810
 ------------
 Symbolic Z-matrix:
 Charge =  0 Multiplicity = 1

                         Standard orientation:
 ---------------------------------------------------------------------
 Center     Atomic      Atomic             Coordinates (Angstroms)
 Number     Number       Type             X           Y           Z
 ---------------------------------------------------------------------
      1          8           0        0.034788   -1.748148    0.000000
      2          1           0       -0.765753   -2.317919    0.000000
      3          1           0        0.833387   -2.320639    0.000000
      4          8           0        0.034788    1.771634    0.000000
      5          1           0        0.323046    2.711003    0.000000
      6          1           0       -0.947293    1.739665    0.000000
 ---------------------------------------------------------------------

 SCF Done:  E(RHF) =  -33.6468089527     A.U. after   11 cycles
 E2 =    -0.2288724238D+00 EUMP2 =    -0.33875681376512D+02
 CCSD(T)
 CCSD(T)= -0.33892850137D+02

 The electronic state is 1-A'.
 Alpha  occ. eigenvalues --   -1.34277  -1.33683  -0.69902  -0.69272  -0.53960
 Alpha  occ. eigenvalues --   -0.52874  -0.48790  -0.48180
 Alpha virt. eigenvalues --    0.20681   0.22364   0.31466   0.32019   0.76178
 Alpha virt. eigenvalues --    0.80653   0.83476   0.85400   0.89927   1.01869
 Alpha virt. eigenvalues --    1.18416   1.19250   1.22956   1.23581   2.58083

 Mulliken charges:
               1
     1  O   -0.724616
     2  H    0.357964
     3  H    0.366849
     4  O   -0.721424
     5  H    0.354954
     6  H    0.366274
 Sum of Mulliken charges =  -0.00000

 Dipole moment (field-independent basis, Debye):
    X=             -1.5762    Y=             -0.5780    Z=              0.0000  Tot=              1.6788
 Quadrupole moment (field-independent basis, Debye-Ang):
   XX=             -8.8682   YY=              5.1189   ZZ=            -14.9851
   XY=             -2.0805   XZ=              0.0000   YZ=              0.0000

 MP4DQ=-33.8871301\MP4SDQ=-33.889196\CCSD=-33.8902506\CCSD(T)=-33.89285
 Normal termination of Gaussian 16 at Sun Dec 10 06:58:31 2023.
