 Gaussian 16, Revision A.03,
 Gaussian 16:  ES64L-G16RevA.03 25-Dec-2016

 ------------------
 #p CCSD(T)/CEP-31G
 ------------------

 ------------
 H2O_H2O_1350
 ------------
 Symbolic Z-matrix:
 Charge =  0 Multiplicity = 1

                         Standard orientation:
 ---------------------------------------------------------------------
 Center     Atomic      Atomic             Coordinates (Angstroms)
 Number     Number       Type             X           Y           Z
 ---------------------------------------------------------------------
      1          8           0        0.000000   -0.000000    1.521578
      2          1           0        0.000000    0.799571    2.092710
      3          1           0       -0.000000   -0.799571    2.092710
      4          8           0        0.000000   -0.000000   -1.521578
      5          1           0       -0.000000   -0.799571   -2.092710
      6          1           0        0.000000    0.799571   -2.092710
 ---------------------------------------------------------------------

 SCF Done:  E(RHF) =  -33.6408459593     A.U. after   10 cycles
 E2 =    -0.2291892931D+00 EUMP2 =    -0.33870035252404D+02
 CCSD(T)
 CCSD(T)= -0.33887387423D+02

 The electronic state is 1-AG.
 Alpha  occ. eigenvalues --   -1.33305  -1.33140  -0.68907  -0.68765  -0.53675
 Alpha  occ. eigenvalues --   -0.51019  -0.47885  -0.47412
 Alpha virt. eigenvalues --    0.21286   0.22904   0.32059   0.32463   0.78147
 Alpha virt. eigenvalues --    0.80074   0.82632   0.85827   0.97362   1.06809
 Alpha virt. eigenvalues --    1.19206   1.19580   1.23749   1.24236   2.59808

 Mulliken charges:
               1
     1  O   -0.708722
     2  H    0.354361
     3  H    0.354361
     4  O   -0.708722
     5  H    0.354361
     6  H    0.354361
 Sum of Mulliken charges =   0.00000

 Dipole moment (field-independent basis, Debye):
    X=             -0.0000    Y=              0.0000    Z=             -0.0000  Tot=              0.0000
 Quadrupole moment (field-independent basis, Debye-Ang):
   XX=            -14.9843   YY=             -8.1769   ZZ=              3.5803
   XY=              0.0000   XZ=             -0.0000   YZ=             -0.0000

 33.8815873\MP4SDQ=-33.8836732\CCSD=-33.8847512\CCSD(T)=-33.8873874\RMS
 Normal termination of Gaussian 16 at Sun Dec 10 06:49:59 2023.
