 Gaussian 16, Revision A.03,
 Gaussian 16:  ES64L-G16RevA.03 25-Dec-2016

 ------------------
 #p CCSD(T)/CEP-31G
 ------------------

 ------------
 H2O_H2O_2445
 ------------
 Symbolic Z-matrix:
 Charge =  0 Multiplicity = 1

                         Standard orientation:
 ---------------------------------------------------------------------
 Center     Atomic      Atomic             Coordinates (Angstroms)
 Number     Number       Type             X           Y           Z
 ---------------------------------------------------------------------
      1          8           0        0.055263   -2.047458    0.000000
      2          1           0       -0.745604   -2.616771    0.000000
      3          1           0        0.853534   -2.620405    0.000000
      4          8           0        0.055263    2.131869    0.000000
      5          1           0       -0.287372    3.052797    0.000000
      6          1           0       -0.704769    1.509088    0.000000
 ---------------------------------------------------------------------

 SCF Done:  E(RHF) =  -33.6518593021     A.U. after   11 cycles
 E2 =    -0.2285111082D+00 EUMP2 =    -0.33880370410309D+02
 CCSD(T)
 CCSD(T)= -0.33897372251D+02

 The electronic state is 1-A'.
 Alpha  occ. eigenvalues --   -1.35573  -1.34046  -0.71209  -0.69625  -0.55313
 Alpha  occ. eigenvalues --   -0.53754  -0.50145  -0.48621
 Alpha virt. eigenvalues --    0.19852   0.22058   0.30385   0.32028   0.80349
 Alpha virt. eigenvalues --    0.80980   0.81963   0.85581   0.86482   0.90862
 Alpha virt. eigenvalues --    1.17325   1.19064   1.21710   1.23886   2.57151

 Mulliken charges:
               1
     1  O   -0.741257
     2  H    0.366482
     3  H    0.375080
     4  O   -0.739443
     5  H    0.360565
     6  H    0.378572
 Sum of Mulliken charges =  -0.00000

 Dipole moment (field-independent basis, Debye):
    X=             -2.5287    Y=             -2.0298    Z=              0.0000  Tot=              3.2426
 Quadrupole moment (field-independent basis, Debye-Ang):
   XX=            -10.0113   YY=              3.4728   ZZ=            -14.9901
   XY=             -5.1623   XZ=              0.0000   YZ=              0.0000

 MP4DQ=-33.8917175\MP4SDQ=-33.8937539\CCSD=-33.8948018\CCSD(T)=-33.8973
 Normal termination of Gaussian 16 at Sun Dec 10 07:11:24 2023.
