 Gaussian 16, Revision A.03,
 Gaussian 16:  ES64L-G16RevA.03 25-Dec-2016

 ------------------
 #p CCSD(T)/CEP-31G
 ------------------

 -----------
 H2O_H2O_534
 -----------
 Symbolic Z-matrix:
 Charge =  0 Multiplicity = 1

                         Standard orientation:
 ---------------------------------------------------------------------
 Center     Atomic      Atomic             Coordinates (Angstroms)
 Number     Number       Type             X           Y           Z
 ---------------------------------------------------------------------
      1          8           0        0.031755   -1.072443    0.000000
      2          1           0       -0.769256   -1.641554    0.000000
      3          1           0        0.829881   -1.645591    0.000000
      4          8           0        0.031755    1.091533    0.000000
      5          1           0        0.381589    2.009750    0.000000
      6          1           0       -0.950288    1.124673    0.000000
 ---------------------------------------------------------------------

 SCF Done:  E(RHF) =  -33.6157462014     A.U. after   11 cycles
 E2 =    -0.2312671283D+00 EUMP2 =    -0.33847013329656D+02
 CCSD(T)
 CCSD(T)= -0.33864351485D+02

 The electronic state is 1-A'.
 Alpha  occ. eigenvalues --   -1.33377  -1.31178  -0.68830  -0.67193  -0.56607
 Alpha  occ. eigenvalues --   -0.48225  -0.45052  -0.45044
 Alpha virt. eigenvalues --    0.20982   0.25708   0.32347   0.33154   0.79750
 Alpha virt. eigenvalues --    0.81329   0.89910   0.97242   1.00084   1.14493
 Alpha virt. eigenvalues --    1.19576   1.23176   1.24912   1.29499   2.51648

 Mulliken charges:
               1
     1  O   -0.723009
     2  H    0.343146
     3  H    0.370074
     4  O   -0.684974
     5  H    0.347818
     6  H    0.346945
 Sum of Mulliken charges =  -0.00000

 Dipole moment (field-independent basis, Debye):
    X=             -1.2859    Y=             -0.4544    Z=              0.0000  Tot=              1.3639
 Quadrupole moment (field-independent basis, Debye-Ang):
   XX=             -8.8822   YY=             -2.6668   ZZ=            -15.0049
   XY=             -0.9493   XZ=              0.0000   YZ=              0.0000

 P4DQ=-33.8582607\MP4SDQ=-33.8604677\CCSD=-33.861511\CCSD(T)=-33.864351
 Normal termination of Gaussian 16 at Sun Dec 10 06:34:44 2023.
