 Gaussian 16, Revision A.03,
 Gaussian 16:  ES64L-G16RevA.03 25-Dec-2016

 ------------------
 #p CCSD(T)/CEP-31G
 ------------------

 -----------
 H2O_H2O_956
 -----------
 Symbolic Z-matrix:
 Charge =  0 Multiplicity = 1

                         Standard orientation:
 ---------------------------------------------------------------------
 Center     Atomic      Atomic             Coordinates (Angstroms)
 Number     Number       Type             X           Y           Z
 ---------------------------------------------------------------------
      1          8           0        0.021862   -1.304154    0.000000
      2          1           0       -0.778529   -1.874136    0.000000
      3          1           0        0.820611   -1.876435    0.000000
      4          8           0        0.021862    1.312786    0.000000
      5          1           0        0.543206    2.145678    0.000000
      6          1           0       -0.935088    1.535838    0.000000
 ---------------------------------------------------------------------

 SCF Done:  E(RHF) =  -33.6351555409     A.U. after   11 cycles
 E2 =    -0.2297836187D+00 EUMP2 =    -0.33864939159646D+02
 CCSD(T)
 CCSD(T)= -0.33882366549D+02

 The electronic state is 1-A'.
 Alpha  occ. eigenvalues --   -1.33040  -1.32400  -0.68608  -0.68050  -0.54419
 Alpha  occ. eigenvalues --   -0.48974  -0.47708  -0.46515
 Alpha virt. eigenvalues --    0.21230   0.23956   0.32418   0.32749   0.79325
 Alpha virt. eigenvalues --    0.80441   0.85340   0.88131   1.00812   1.12366
 Alpha virt. eigenvalues --    1.19433   1.21906   1.24171   1.25066   2.56888

 Mulliken charges:
               1
     1  O   -0.707416
     2  H    0.346842
     3  H    0.359089
     4  O   -0.699742
     5  H    0.348286
     6  H    0.352941
 Sum of Mulliken charges =  -0.00000

 Dipole moment (field-independent basis, Debye):
    X=             -0.9462    Y=             -0.2111    Z=              0.0000  Tot=              0.9695
 Quadrupole moment (field-independent basis, Debye-Ang):
   XX=             -8.5115   YY=              0.6712   ZZ=            -14.9910
   XY=             -0.7940   XZ=              0.0000   YZ=              0.0000

 P4DQ=-33.8764752\MP4SDQ=-33.8785854\CCSD=-33.8796761\CCSD(T)=-33.88236
 Normal termination of Gaussian 16 at Sun Dec 10 06:42:38 2023.
