 Gaussian 16, Revision A.03,
 Gaussian 16:  ES64L-G16RevA.03 25-Dec-2016

 ------------------
 #p CCSD(T)/CEP-31G
 ------------------

 -----------
 H2O_H2O_829
 -----------
 Symbolic Z-matrix:
 Charge =  0 Multiplicity = 1

                         Standard orientation:
 ---------------------------------------------------------------------
 Center     Atomic      Atomic             Coordinates (Angstroms)
 Number     Number       Type             X           Y           Z
 ---------------------------------------------------------------------
      1          8           0        0.014784   -1.240266    0.000000
      2          1           0       -0.785372   -1.810579    0.000000
      3          1           0        0.813770   -1.812217    0.000000
      4          8           0        0.014784    1.244128    0.000000
      5          1           0        0.640068    2.002103    0.000000
      6          1           0       -0.905009    1.589798    0.000000
 ---------------------------------------------------------------------

 SCF Done:  E(RHF) =  -33.6303307386     A.U. after   11 cycles
 E2 =    -0.2300695389D+00 EUMP2 =    -0.33860400277464D+02
 CCSD(T)
 CCSD(T)= -0.33877826457D+02

 The electronic state is 1-A'.
 Alpha  occ. eigenvalues --   -1.32818  -1.32038  -0.68337  -0.67728  -0.54873
 Alpha  occ. eigenvalues --   -0.47670  -0.47544  -0.46033
 Alpha virt. eigenvalues --    0.21419   0.24259   0.32631   0.32920   0.79414
 Alpha virt. eigenvalues --    0.79448   0.88885   0.89442   1.03586   1.10779
 Alpha virt. eigenvalues --    1.19677   1.21926   1.24213   1.25476   2.55265

 Mulliken charges:
               1
     1  O   -0.702747
     2  H    0.346017
     3  H    0.355672
     4  O   -0.698076
     5  H    0.348984
     6  H    0.350150
 Sum of Mulliken charges =  -0.00000

 Dipole moment (field-independent basis, Debye):
    X=             -0.6290    Y=             -0.0929    Z=              0.0000  Tot=              0.6358
 Quadrupole moment (field-independent basis, Debye-Ang):
   XX=             -8.3783   YY=             -0.0966   ZZ=            -14.9961
   XY=             -0.4734   XZ=              0.0000   YZ=              0.0000

 P4DQ=-33.8718963\MP4SDQ=-33.8740104\CCSD=-33.8751022\CCSD(T)=-33.87782
 Normal termination of Gaussian 16 at Sun Dec 10 06:40:15 2023.
