 Gaussian 16, Revision A.03,
 Gaussian 16:  ES64L-G16RevA.03 25-Dec-2016

 ------------------
 #p CCSD(T)/CEP-31G
 ------------------

 ------------
 H2O_H2O_1605
 ------------
 Symbolic Z-matrix:
 Charge =  0 Multiplicity = 1

                         Standard orientation:
 ---------------------------------------------------------------------
 Center     Atomic      Atomic             Coordinates (Angstroms)
 Number     Number       Type             X           Y           Z
 ---------------------------------------------------------------------
      1          8           0        0.018361   -1.651263    0.000000
      2          1           0       -0.781755   -2.221631    0.000000
      3          1           0        0.817386   -2.223159    0.000000
      4          8           0        0.018361    1.657290    0.000000
      5          1           0        0.592677    2.454578    0.000000
      6          1           0       -0.922089    1.941998    0.000000
 ---------------------------------------------------------------------

 SCF Done:  E(RHF) =  -33.6440040551     A.U. after   11 cycles
 E2 =    -0.2290001035D+00 EUMP2 =    -0.33873004158537D+02
 CCSD(T)
 CCSD(T)= -0.33890263985D+02

 The electronic state is 1-A'.
 Alpha  occ. eigenvalues --   -1.33703  -1.33516  -0.69321  -0.69124  -0.53677
 Alpha  occ. eigenvalues --   -0.52095  -0.48236  -0.47914
 Alpha virt. eigenvalues --    0.21057   0.22519   0.31853   0.32143   0.76386
 Alpha virt. eigenvalues --    0.80511   0.84438   0.84457   0.93091   1.04232
 Alpha virt. eigenvalues --    1.18895   1.19218   1.23402   1.23798   2.58891

 Mulliken charges:
               1
     1  O   -0.716244
     2  H    0.355353
     3  H    0.360910
     4  O   -0.714904
     5  H    0.354440
     6  H    0.360445
 Sum of Mulliken charges =   0.00000

 Dipole moment (field-independent basis, Debye):
    X=             -0.8291    Y=             -0.1499    Z=              0.0000  Tot=              0.8425
 Quadrupole moment (field-independent basis, Debye-Ang):
   XX=             -8.3511   YY=              4.8723   ZZ=            -14.9837
   XY=             -0.9217   XZ=              0.0000   YZ=              0.0000

 \MP4DQ=-33.884508\MP4SDQ=-33.8865849\CCSD=-33.8876493\CCSD(T)=-33.8902
 Normal termination of Gaussian 16 at Sun Dec 10 06:54:44 2023.
