 Gaussian 16, Revision A.03,
 Gaussian 16:  ES64L-G16RevA.03 25-Dec-2016

 ------------------
 #p CCSD(T)/CEP-31G
 ------------------

 ------------
 H2O_H2O_1451
 ------------
 Symbolic Z-matrix:
 Charge =  0 Multiplicity = 1

                         Standard orientation:
 ---------------------------------------------------------------------
 Center     Atomic      Atomic             Coordinates (Angstroms)
 Number     Number       Type             X           Y           Z
 ---------------------------------------------------------------------
      1          8           0        0.003735   -1.574630    0.000000
      2          1           0       -0.795952   -2.145598    0.000000
      3          1           0        0.803190   -2.145925    0.000000
      4          8           0        0.003735    1.574873    0.000000
      5          1           0        0.764368    2.196921    0.000000
      6          1           0       -0.831372    2.092658    0.000000
 ---------------------------------------------------------------------

 SCF Done:  E(RHF) =  -33.6420146837     A.U. after   11 cycles
 E2 =    -0.2291021481D+00 EUMP2 =    -0.33871116831717D+02
 CCSD(T)
 CCSD(T)= -0.33888436478D+02

 The electronic state is 1-A'.
 Alpha  occ. eigenvalues --   -1.33424  -1.33300  -0.69032  -0.68921  -0.53631
 Alpha  occ. eigenvalues --   -0.51442  -0.47991  -0.47611
 Alpha virt. eigenvalues --    0.21234   0.22724   0.31966   0.32363   0.77276
 Alpha virt. eigenvalues --    0.80280   0.83380   0.85270   0.95845   1.05479
 Alpha virt. eigenvalues --    1.19117   1.19373   1.23572   1.24118   2.59990

 Mulliken charges:
               1
     1  O   -0.711061
     2  H    0.354881
     3  H    0.356177
     4  O   -0.710985
     5  H    0.354885
     6  H    0.356103
 Sum of Mulliken charges =  -0.00000

 Dipole moment (field-independent basis, Debye):
    X=             -0.1679    Y=             -0.0061    Z=              0.0000  Tot=              0.1680
 Quadrupole moment (field-independent basis, Debye-Ang):
   XX=             -8.1729   YY=              4.2044   ZZ=            -14.9837
   XY=             -0.1690   XZ=              0.0000   YZ=              0.0000

 \MP4DQ=-33.8826542\MP4SDQ=-33.8847366\CCSD=-33.8858094\CCSD(T)=-33.888
 Normal termination of Gaussian 16 at Sun Dec 10 06:51:52 2023.
