 Gaussian 16, Revision A.03,
 Gaussian 16:  ES64L-G16RevA.03 25-Dec-2016

 ------------------
 #p CCSD(T)/CEP-31G
 ------------------

 ------------
 H2O_H2O_3625
 ------------
 Symbolic Z-matrix:
 Charge =  0 Multiplicity = 1

                         Standard orientation:
 ---------------------------------------------------------------------
 Center     Atomic      Atomic             Coordinates (Angstroms)
 Number     Number       Type             X           Y           Z
 ---------------------------------------------------------------------
      1          8           0        0.000000   -0.000000    2.731506
      2          1           0        0.000000    0.799571    3.302638
      3          1           0       -0.000000   -0.799571    3.302638
      4          8           0        0.000000   -0.000000   -2.731506
      5          1           0       -0.000000   -0.799571   -3.302638
      6          1           0        0.000000    0.799571   -3.302638
 ---------------------------------------------------------------------

 SCF Done:  E(RHF) =  -33.6499285613     A.U. after   10 cycles
 E2 =    -0.2284808849D+00 EUMP2 =    -0.33878409446234D+02
 CCSD(T)
 CCSD(T)= -0.33895463278D+02

 The electronic state is 1-AG.
 Alpha  occ. eigenvalues --   -1.34787  -1.34787  -0.70412  -0.70412  -0.54423
 Alpha  occ. eigenvalues --   -0.54409  -0.49331  -0.49330
 Alpha virt. eigenvalues --    0.20870   0.20896   0.31109   0.31114   0.81217
 Alpha virt. eigenvalues --    0.81230   0.84265   0.84611   0.87450   0.87481
 Alpha virt. eigenvalues --    1.18036   1.18037   1.22508   1.22513   2.58091

 Mulliken charges:
               1
     1  O   -0.734558
     2  H    0.367279
     3  H    0.367279
     4  O   -0.734558
     5  H    0.367279
     6  H    0.367279
 Sum of Mulliken charges =  -0.00000

 Dipole moment (field-independent basis, Debye):
    X=             -0.0000    Y=              0.0000    Z=              0.0000  Tot=              0.0000
 Quadrupole moment (field-independent basis, Debye-Ang):
   XX=            -14.9860   YY=             -8.0489   ZZ=             16.9325
   XY=              0.0000   XZ=              0.0000   YZ=             -0.0000

 33.8898045\MP4SDQ=-33.8918372\CCSD=-33.8928958\CCSD(T)=-33.8954633\RMS
 Normal termination of Gaussian 16 at Sun Dec 10 06:45:10 2023.
