 Gaussian 16, Revision A.03,
 Gaussian 16:  ES64L-G16RevA.03 25-Dec-2016

 ------------------
 #p CCSD(T)/CEP-31G
 ------------------

 ------------
 H2O_H2O_2092
 ------------
 Symbolic Z-matrix:
 Charge =  0 Multiplicity = 1

                         Standard orientation:
 ---------------------------------------------------------------------
 Center     Atomic      Atomic             Coordinates (Angstroms)
 Number     Number       Type             X           Y           Z
 ---------------------------------------------------------------------
      1          8           0        0.051297   -1.872689    0.000000
      2          1           0       -0.749594   -2.441968    0.000000
      3          1           0        0.849543   -2.445670    0.000000
      4          8           0        0.051297    1.936157    0.000000
      5          1           0       -0.105048    2.906240    0.000000
      6          1           0       -0.815650    1.473654    0.000000
 ---------------------------------------------------------------------

 SCF Done:  E(RHF) =  -33.6505032672     A.U. after   11 cycles
 E2 =    -0.2286648922D+00 EUMP2 =    -0.33879168159387D+02
 CCSD(T)
 CCSD(T)= -0.33896217379D+02

 The electronic state is 1-A'.
 Alpha  occ. eigenvalues --   -1.35202  -1.33809  -0.70836  -0.69378  -0.54869
 Alpha  occ. eigenvalues --   -0.53438  -0.49755  -0.48368
 Alpha virt. eigenvalues --    0.19992   0.22375   0.30662   0.32158   0.78010
 Alpha virt. eigenvalues --    0.80449   0.82513   0.85876   0.87131   0.96285
 Alpha virt. eigenvalues --    1.17630   1.19425   1.22012   1.24033   2.57107

 Mulliken charges:
               1
     1  O   -0.736632
     2  H    0.363295
     3  H    0.373773
     4  O   -0.733273
     5  H    0.357313
     6  H    0.375524
 Sum of Mulliken charges =  -0.00000

 Dipole moment (field-independent basis, Debye):
    X=             -2.3356    Y=             -1.5428    Z=              0.0000  Tot=              2.7991
 Quadrupole moment (field-independent basis, Debye-Ang):
   XX=             -9.7421   YY=              3.8279   ZZ=            -14.9887
   XY=             -4.0258   XZ=              0.0000   YZ=              0.0000

 \MP4DQ=-33.8905406\MP4SDQ=-33.8925888\CCSD=-33.8936357\CCSD(T)=-33.896
 Normal termination of Gaussian 16 at Sun Dec 10 07:05:03 2023.
