 Gaussian 16, Revision A.03,
 Gaussian 16:  ES64L-G16RevA.03 25-Dec-2016

 ------------------
 #p CCSD(T)/CEP-31G
 ------------------

 ------------
 H2O_H2O_4396
 ------------
 Symbolic Z-matrix:
 Charge =  0 Multiplicity = 1

                         Standard orientation:
 ---------------------------------------------------------------------
 Center     Atomic      Atomic             Coordinates (Angstroms)
 Number     Number       Type             X           Y           Z
 ---------------------------------------------------------------------
      1          8           0        0.056087   -3.080545    0.000000
      2          1           0       -0.744364   -3.650443    0.000000
      3          1           0        0.854776   -3.652910    0.000000
      4          8           0        0.056087    3.172314    0.000000
      5          1           0       -0.346701    4.068567    0.000000
      6          1           0       -0.661097    2.500634    0.000000
 ---------------------------------------------------------------------

 SCF Done:  E(RHF) =  -33.6518510830     A.U. after   11 cycles
 E2 =    -0.2283832676D+00 EUMP2 =    -0.33880234350590D+02
 CCSD(T)
 CCSD(T)= -0.33897232592D+02

 The electronic state is 1-A'.
 Alpha  occ. eigenvalues --   -1.35611  -1.34915  -0.71244  -0.70535  -0.55349
 Alpha  occ. eigenvalues --   -0.54644  -0.50183  -0.49487
 Alpha virt. eigenvalues --    0.20164   0.20880   0.30405   0.31113   0.80369
 Alpha virt. eigenvalues --    0.81054   0.83385   0.84091   0.86501   0.87255
 Alpha virt. eigenvalues --    1.17294   1.17986   1.21751   1.22457   2.57309

 Mulliken charges:
               1
     1  O   -0.741359
     2  H    0.369277
     3  H    0.372082
     4  O   -0.741110
     5  H    0.367427
     6  H    0.373683
 Sum of Mulliken charges =   0.00000

 Dipole moment (field-independent basis, Debye):
    X=             -2.5880    Y=             -2.1477    Z=              0.0000  Tot=              3.3631
 Quadrupole moment (field-independent basis, Debye-Ang):
   XX=            -10.0825   YY=              9.5006   ZZ=            -14.9889
   XY=             -8.0178   XZ=              0.0000   YZ=              0.0000

 3\MP4DQ=-33.8915889\MP4SDQ=-33.8936165\CCSD=-33.8946715\CCSD(T)=-33.89
 Normal termination of Gaussian 16 at Sun Dec 10 06:59:08 2023.
