 Gaussian 16, Revision A.03,
 Gaussian 16:  ES64L-G16RevA.03 25-Dec-2016

 ------------------
 #p CCSD(T)/CEP-31G
 ------------------

 -----------
 H2O_H2O_463
 -----------
 Symbolic Z-matrix:
 Charge =  0 Multiplicity = 1

                         Standard orientation:
 ---------------------------------------------------------------------
 Center     Atomic      Atomic             Coordinates (Angstroms)
 Number     Number       Type             X           Y           Z
 ---------------------------------------------------------------------
      1          8           0        0.043009   -1.021954    0.000000
      2          1           0       -0.758585   -1.590244    0.000000
      3          1           0        0.840547   -1.595921    0.000000
      4          8           0        0.043009    1.060560    0.000000
      5          1           0        0.144273    2.037930    0.000000
      6          1           0       -0.914376    0.839382    0.000000
 ---------------------------------------------------------------------

 SCF Done:  E(RHF) =  -33.6114016824     A.U. after   11 cycles
 E2 =    -0.2317977810D+00 EUMP2 =    -0.33843199463408D+02
 CCSD(T)
 CCSD(T)= -0.33860498256D+02

 The electronic state is 1-A'.
 Alpha  occ. eigenvalues --   -1.34352  -1.30906  -0.69936  -0.67594  -0.56274
 Alpha  occ. eigenvalues --   -0.49123  -0.45440  -0.44915
 Alpha virt. eigenvalues --    0.20425   0.26546   0.31684   0.33364   0.79503
 Alpha virt. eigenvalues --    0.84037   0.89901   0.96933   0.99493   1.15124
 Alpha virt. eigenvalues --    1.19136   1.23497   1.25013   1.31668   2.53958

 Mulliken charges:
               1
     1  O   -0.748123
     2  H    0.346550
     3  H    0.383292
     4  O   -0.672481
     5  H    0.339241
     6  H    0.351521
 Sum of Mulliken charges =   0.00000

 Dipole moment (field-independent basis, Debye):
    X=             -1.7214    Y=             -0.9391    Z=              0.0000  Tot=              1.9609
 Quadrupole moment (field-independent basis, Debye-Ang):
   XX=             -9.3560   YY=             -3.6666   ZZ=            -14.9984
   XY=             -1.4409   XZ=              0.0000   YZ=              0.0000

 MP4DQ=-33.8543326\MP4SDQ=-33.8566015\CCSD=-33.8576016\CCSD(T)=-33.8604
 Normal termination of Gaussian 16 at Sun Dec 10 06:33:25 2023.
