 Gaussian 16, Revision A.03,
 Gaussian 16:  ES64L-G16RevA.03 25-Dec-2016

 ------------------
 #p CCSD(T)/CEP-31G
 ------------------

 ------------
 H2O_H2O_4666
 ------------
 Symbolic Z-matrix:
 Charge =  0 Multiplicity = 1

                         Standard orientation:
 ---------------------------------------------------------------------
 Center     Atomic      Atomic             Coordinates (Angstroms)
 Number     Number       Type             X           Y           Z
 ---------------------------------------------------------------------
      1          8           0        0.049499   -3.245691    0.000000
      2          1           0       -0.750815   -3.815782    0.000000
      3          1           0        0.848326   -3.817862    0.000000
      4          8           0        0.049499    3.302675    0.000000
      5          1           0       -0.044058    4.280813    0.000000
      6          1           0       -0.845430    2.896956    0.000000
 ---------------------------------------------------------------------

 SCF Done:  E(RHF) =  -33.6514226292     A.U. after   11 cycles
 E2 =    -0.2284033545D+00 EUMP2 =    -0.33879825983675D+02
 CCSD(T)
 CCSD(T)= -0.33896836786D+02

 The electronic state is 1-A'.
 Alpha  occ. eigenvalues --   -1.35396  -1.35000  -0.71027  -0.70623  -0.55111
 Alpha  occ. eigenvalues --   -0.54712  -0.49962  -0.49567
 Alpha virt. eigenvalues --    0.20355   0.20759   0.30592   0.30988   0.80590
 Alpha virt. eigenvalues --    0.80981   0.83650   0.84045   0.86748   0.87188
 Alpha virt. eigenvalues --    1.17490   1.17883   1.21951   1.22349   2.57516

 Mulliken charges:
               1
     1  O   -0.739825
     2  H    0.368778
     3  H    0.371047
     4  O   -0.739542
     5  H    0.367691
     6  H    0.371851
 Sum of Mulliken charges =  -0.00000

 Dipole moment (field-independent basis, Debye):
    X=             -2.2854    Y=             -1.3316    Z=              0.0000  Tot=              2.6450
 Quadrupole moment (field-independent basis, Debye-Ang):
   XX=             -9.6289   YY=             15.4318   ZZ=            -14.9880
   XY=             -6.8532   XZ=              0.0000   YZ=              0.0000

 \MP4DQ=-33.8911898\MP4SDQ=-33.8932185\CCSD=-33.8942745\CCSD(T)=-33.896
 Normal termination of Gaussian 16 at Sun Dec 10 07:05:39 2023.
