 Gaussian 16, Revision A.03,
 Gaussian 16:  ES64L-G16RevA.03 25-Dec-2016

 ------------------
 #p CCSD(T)/CEP-31G
 ------------------

 ------------
 H2O_H2O_2178
 ------------
 Symbolic Z-matrix:
 Charge =  0 Multiplicity = 1

                         Standard orientation:
 ---------------------------------------------------------------------
 Center     Atomic      Atomic             Coordinates (Angstroms)
 Number     Number       Type             X           Y           Z
 ---------------------------------------------------------------------
      1          8           0        0.011143   -1.959157    0.000000
      2          1           0       -0.788708   -2.529897    0.000000
      3          1           0        0.810434   -2.530680    0.000000
      4          8           0        0.011143    1.961341    0.000000
      5          1           0        0.684278    2.677158    0.000000
      6          1           0       -0.884289    2.365948    0.000000
 ---------------------------------------------------------------------

 SCF Done:  E(RHF) =  -33.6469683035     A.U. after   11 cycles
 E2 =    -0.2287119508D+00 EUMP2 =    -0.33875680254289D+02
 CCSD(T)
 CCSD(T)= -0.33892823865D+02

 The electronic state is 1-A'.
 Alpha  occ. eigenvalues --   -1.34124  -1.34078  -0.69745  -0.69695  -0.53805
 Alpha  occ. eigenvalues --   -0.53280  -0.48646  -0.48560
 Alpha virt. eigenvalues --    0.21059   0.21755   0.31550   0.31729   0.79362
 Alpha virt. eigenvalues --    0.81336   0.82546   0.86838   0.89556   0.93088
 Alpha virt. eigenvalues --    1.18581   1.18627   1.22987   1.23253   2.58265

 Mulliken charges:
               1
     1  O   -0.724584
     2  H    0.361222
     3  H    0.363373
     4  O   -0.724363
     5  H    0.360882
     6  H    0.363469
 Sum of Mulliken charges =  -0.00000

 Dipole moment (field-independent basis, Debye):
    X=             -0.5088    Y=             -0.0530    Z=              0.0000  Tot=              0.5115
 Quadrupole moment (field-independent basis, Debye-Ang):
   XX=             -8.1752   YY=              8.4440   ZZ=            -14.9840
   XY=             -0.6904   XZ=              0.0000   YZ=              0.0000

 P4DQ=-33.8871296\MP4SDQ=-33.8891786\CCSD=-33.890238\CCSD(T)=-33.892823
 Normal termination of Gaussian 16 at Sun Dec 10 07:06:36 2023.
