 Gaussian 16, Revision A.03,
 Gaussian 16:  ES64L-G16RevA.03 25-Dec-2016

 ------------------
 #p CCSD(T)/CEP-31G
 ------------------

 ------------
 H2O_H2O_4184
 ------------
 Symbolic Z-matrix:
 Charge =  0 Multiplicity = 1

                         Standard orientation:
 ---------------------------------------------------------------------
 Center     Atomic      Atomic             Coordinates (Angstroms)
 Number     Number       Type             X           Y           Z
 ---------------------------------------------------------------------
      1          8           0        0.031739   -3.013592    0.000000
      2          1           0       -0.768348   -3.584001    0.000000
      3          1           0        0.830794   -3.585446    0.000000
      4          8           0        0.031739    3.032785    0.000000
      5          1           0        0.380084    3.951568    0.000000
      6          1           0       -0.950356    3.064333    0.000000
 ---------------------------------------------------------------------

 SCF Done:  E(RHF) =  -33.6507245056     A.U. after   11 cycles
 E2 =    -0.2284402555D+00 EUMP2 =    -0.33879164761118D+02
 CCSD(T)
 CCSD(T)= -0.33896195725D+02

 The electronic state is 1-A'.
 Alpha  occ. eigenvalues --   -1.35079  -1.34921  -0.70707  -0.70545  -0.54754
 Alpha  occ. eigenvalues --   -0.54596  -0.49634  -0.49477
 Alpha virt. eigenvalues --    0.20633   0.20794   0.30866   0.31021   0.80919
 Alpha virt. eigenvalues --    0.81075   0.84045   0.84204   0.87118   0.87305
 Alpha virt. eigenvalues --    1.17777   1.17934   1.22244   1.22401   2.57820

 Mulliken charges:
               1
     1  O   -0.737348
     2  H    0.367740
     3  H    0.369608
     4  O   -0.737113
     5  H    0.367159
     6  H    0.369954
 Sum of Mulliken charges =   0.00000

 Dipole moment (field-independent basis, Debye):
    X=             -1.4643    Y=             -0.4495    Z=              0.0000  Tot=              1.5317
 Quadrupole moment (field-independent basis, Debye-Ang):
   XX=             -8.6928   YY=             17.9393   ZZ=            -14.9870
   XY=             -3.6425   XZ=              0.0000   YZ=              0.0000

 \MP4DQ=-33.8905433\MP4SDQ=-33.8925738\CCSD=-33.8936311\CCSD(T)=-33.896
 Normal termination of Gaussian 16 at Sun Dec 10 06:55:26 2023.
