 Gaussian 16, Revision A.03,
 Gaussian 16:  ES64L-G16RevA.03 25-Dec-2016

 ------------------
 #p CCSD(T)/CEP-31G
 ------------------

 ------------
 H2O_H2O_2007
 ------------
 Symbolic Z-matrix:
 Charge =  0 Multiplicity = 1

                         Standard orientation:
 ---------------------------------------------------------------------
 Center     Atomic      Atomic             Coordinates (Angstroms)
 Number     Number       Type             X           Y           Z
 ---------------------------------------------------------------------
      1          8           0        0.025267   -1.860905    0.000000
      2          1           0       -0.774968   -2.431106    0.000000
      3          1           0        0.824173   -2.432968    0.000000
      4          8           0        0.025267    1.872626    0.000000
      5          1           0        0.490784    2.737959    0.000000
      6          1           0       -0.944266    2.032348    0.000000
 ---------------------------------------------------------------------

 SCF Done:  E(RHF) =  -33.6468470139     A.U. after   11 cycles
 E2 =    -0.2287760614D+00 EUMP2 =    -0.33875623075309D+02
 CCSD(T)
 CCSD(T)= -0.33892776642D+02

 The electronic state is 1-A'.
 Alpha  occ. eigenvalues --   -1.34175  -1.33912  -0.69797  -0.69518  -0.53846
 Alpha  occ. eigenvalues --   -0.53111  -0.48687  -0.48405
 Alpha virt. eigenvalues --    0.20921   0.21989   0.31562   0.31812   0.77781
 Alpha virt. eigenvalues --    0.81083   0.82914   0.86102   0.89677   0.96900
 Alpha virt. eigenvalues --    1.18525   1.18819   1.23042   1.23341   2.58171

 Mulliken charges:
               1
     1  O   -0.724347
     2  H    0.359444
     3  H    0.364985
     4  O   -0.722991
     5  H    0.358030
     6  H    0.364879
 Sum of Mulliken charges =   0.00000

 Dipole moment (field-independent basis, Debye):
    X=             -1.1502    Y=             -0.2862    Z=              0.0000  Tot=              1.1852
 Quadrupole moment (field-independent basis, Debye-Ang):
   XX=             -8.5047   YY=              6.8879   ZZ=            -14.9844
   XY=             -1.5373   XZ=              0.0000   YZ=              0.0000

 P4DQ=-33.8870726\MP4SDQ=-33.8891281\CCSD=-33.8901853\CCSD(T)=-33.89277
 Normal termination of Gaussian 16 at Sun Dec 10 07:03:32 2023.
