 Gaussian 16, Revision A.03,
 Gaussian 16:  ES64L-G16RevA.03 25-Dec-2016

 ------------------
 #p CCSD(T)/CEP-31G
 ------------------

 ------------
 H2O_H2O_3357
 ------------
 Symbolic Z-matrix:
 Charge =  0 Multiplicity = 1

                         Standard orientation:
 ---------------------------------------------------------------------
 Center     Atomic      Atomic             Coordinates (Angstroms)
 Number     Number       Type             X           Y           Z
 ---------------------------------------------------------------------
      1          8           0        0.025265   -2.578876    0.000000
      2          1           0       -0.774786   -3.149335    0.000000
      3          1           0        0.824356   -3.150681    0.000000
      4          8           0        0.025265    2.590614    0.000000
      5          1           0        0.490502    3.456097    0.000000
      6          1           0       -0.944320    2.750020    0.000000
 ---------------------------------------------------------------------

 SCF Done:  E(RHF) =  -33.6498890582     A.U. after   11 cycles
 E2 =    -0.2284922516D+00 EUMP2 =    -0.33878381309782D+02
 CCSD(T)
 CCSD(T)= -0.33895436455D+02

 The electronic state is 1-A'.
 Alpha  occ. eigenvalues --   -1.34816  -1.34682  -0.70441  -0.70303  -0.54443
 Alpha  occ. eigenvalues --   -0.54308  -0.49359  -0.49226
 Alpha virt. eigenvalues --    0.20844   0.20994   0.31082   0.31210   0.81192
 Alpha virt. eigenvalues --    0.81327   0.84089   0.84849   0.87433   0.87631
 Alpha virt. eigenvalues --    1.18006   1.18137   1.22481   1.22612   2.58068

 Mulliken charges:
               1
     1  O   -0.734459
     2  H    0.366080
     3  H    0.368380
     4  O   -0.734137
     5  H    0.365483
     6  H    0.368654
 Sum of Mulliken charges =  -0.00000

 Dipole moment (field-independent basis, Debye):
    X=             -1.1629    Y=             -0.2768    Z=              0.0000  Tot=              1.1954
 Quadrupole moment (field-independent basis, Debye-Ang):
   XX=             -8.4633   YY=             14.3095   ZZ=            -14.9861
   XY=             -2.3376   XZ=              0.0000   YZ=              0.0000

 MP4DQ=-33.8897771\MP4SDQ=-33.8918101\CCSD=-33.8928685\CCSD(T)=-33.8954
 Normal termination of Gaussian 16 at Sun Dec 10 06:40:17 2023.
