 Gaussian 16, Revision A.03,
 Gaussian 16:  ES64L-G16RevA.03 25-Dec-2016

 ------------------
 #p CCSD(T)/CEP-31G
 ------------------

 -----------
 H2O_H2O_133
 -----------
 Symbolic Z-matrix:
 Charge =  0 Multiplicity = 1

                         Standard orientation:
 ---------------------------------------------------------------------
 Center     Atomic      Atomic             Coordinates (Angstroms)
 Number     Number       Type             X           Y           Z
 ---------------------------------------------------------------------
      1          8           0        0.028578   -0.861852    0.000000
      2          1           0       -0.772605   -1.430721    0.000000
      3          1           0        0.826531   -1.435243    0.000000
      4          8           0        0.028578    0.876994    0.000000
      5          1           0        0.437990    1.770241    0.000000
      6          1           0       -0.949165    0.974589    0.000000
 ---------------------------------------------------------------------

 SCF Done:  E(RHF) =  -33.5282088254     A.U. after   11 cycles
 E2 =    -0.2360504554D+00 EUMP2 =    -0.33764259280825D+02
 CCSD(T)
 CCSD(T)= -0.33781018570D+02

 The electronic state is 1-A'.
 Alpha  occ. eigenvalues --   -1.36090  -1.29285  -0.70816  -0.67347  -0.61360
 Alpha  occ. eigenvalues --   -0.50797  -0.42943  -0.35785
 Alpha virt. eigenvalues --    0.20847   0.27990   0.31757   0.33567   0.81734
 Alpha virt. eigenvalues --    0.82787   0.89468   0.91779   1.00988   1.19605
 Alpha virt. eigenvalues --    1.22359   1.23930   1.27153   1.35891   2.51713

 Mulliken charges:
               1
     1  O   -0.720834
     2  H    0.335059
     3  H    0.375887
     4  O   -0.674703
     5  H    0.342810
     6  H    0.341780
 Sum of Mulliken charges =  -0.00000

 Dipole moment (field-independent basis, Debye):
    X=             -1.0475    Y=             -0.3987    Z=              0.0000  Tot=              1.1208
 Quadrupole moment (field-independent basis, Debye-Ang):
   XX=             -8.8847   YY=             -6.6097   ZZ=            -15.0046
   XY=             -0.6757   XZ=              0.0000   YZ=              0.0000

 MP4DQ=-33.7743579\MP4SDQ=-33.7769728\CCSD=-33.7776984\CCSD(T)=-33.7810
 Normal termination of Gaussian 16 at Sun Dec 10 06:27:13 2023.
