 Gaussian 16, Revision A.03,
 Gaussian 16:  ES64L-G16RevA.03 25-Dec-2016

 ------------------
 #p CCSD(T)/CEP-31G
 ------------------

 -----------
 H2O_H2O_757
 -----------
 Symbolic Z-matrix:
 Charge =  0 Multiplicity = 1

                         Standard orientation:
 ---------------------------------------------------------------------
 Center     Atomic      Atomic             Coordinates (Angstroms)
 Number     Number       Type             X           Y           Z
 ---------------------------------------------------------------------
      1          8           0        0.025271   -1.196127    0.000000
      2          1           0       -0.775332   -1.765811    0.000000
      3          1           0        0.823808   -1.768704    0.000000
      4          8           0        0.025271    1.207815    0.000000
      5          1           0        0.491345    2.072848    0.000000
      6          1           0       -0.944159    1.368161    0.000000
 ---------------------------------------------------------------------

 SCF Done:  E(RHF) =  -33.6289357057     A.U. after   11 cycles
 E2 =    -0.2303002230D+00 EUMP2 =    -0.33859235928671D+02
 CCSD(T)
 CCSD(T)= -0.33876651798D+02

 The electronic state is 1-A'.
 Alpha  occ. eigenvalues --   -1.32995  -1.31887  -0.68516  -0.67609  -0.55234
 Alpha  occ. eigenvalues --   -0.47746  -0.47341  -0.45880
 Alpha virt. eigenvalues --    0.21192   0.24650   0.32516   0.32934   0.79348
 Alpha virt. eigenvalues --    0.80133   0.89173   0.91238   1.01704   1.12701
 Alpha virt. eigenvalues --    1.19589   1.22720   1.24309   1.26747   2.54305

 Mulliken charges:
               1
     1  O   -0.710308
     2  H    0.344626
     3  H    0.361978
     4  O   -0.694515
     5  H    0.348093
     6  H    0.350126
 Sum of Mulliken charges =  -0.00000

 Dipole moment (field-independent basis, Debye):
    X=             -1.0647    Y=             -0.2809    Z=              0.0000  Tot=              1.1011
 Quadrupole moment (field-independent basis, Debye-Ang):
   XX=             -8.6340   YY=             -0.8087   ZZ=            -14.9977
   XY=             -0.8254   XZ=              0.0000   YZ=              0.0000

 P4DQ=-33.8706896\MP4SDQ=-33.8728251\CCSD=-33.8739092\CCSD(T)=-33.87665
 Normal termination of Gaussian 16 at Sun Dec 10 06:38:53 2023.
