 Gaussian 16, Revision A.03,
 Gaussian 16:  ES64L-G16RevA.03 25-Dec-2016

 ------------------
 #p CCSD(T)/CEP-31G
 ------------------

 ------------
 H2O_H2O_2972
 ------------
 Symbolic Z-matrix:
 Charge =  0 Multiplicity = 1

                         Standard orientation:
 ---------------------------------------------------------------------
 Center     Atomic      Atomic             Coordinates (Angstroms)
 Number     Number       Type             X           Y           Z
 ---------------------------------------------------------------------
      1          8           0        0.056727   -2.318705    0.000000
      2          1           0       -0.744018   -2.888190    0.000000
      3          1           0        0.855120   -2.891481    0.000000
      4          8           0        0.056727    2.417788    0.000000
      5          1           0       -0.403368    3.286016    0.000000
      6          1           0       -0.615361    1.700987    0.000000
 ---------------------------------------------------------------------

 SCF Done:  E(RHF) =  -33.6522759646     A.U. after   11 cycles
 E2 =    -0.2284117918D+00 EUMP2 =    -0.33880687756414D+02
 CCSD(T)
 CCSD(T)= -0.33897673905D+02

 The electronic state is 1-A'.
 Alpha  occ. eigenvalues --   -1.35728  -1.34367  -0.71364  -0.69964  -0.55494
 Alpha  occ. eigenvalues --   -0.54100  -0.50306  -0.48945
 Alpha virt. eigenvalues --    0.19948   0.21572   0.30296   0.31716   0.80249
 Alpha virt. eigenvalues --    0.81579   0.82842   0.84898   0.86324   0.88061
 Alpha virt. eigenvalues --    1.17194   1.18595   1.21625   1.23210   2.57202

 Mulliken charges:
               1
     1  O   -0.742826
     2  H    0.368405
     3  H    0.374508
     4  O   -0.742041
     5  H    0.363738
     6  H    0.378215
 Sum of Mulliken charges =  -0.00000

 Dipole moment (field-independent basis, Debye):
    X=             -2.6059    Y=             -2.3539    Z=              0.0000  Tot=              3.5116
 Quadrupole moment (field-independent basis, Debye-Ang):
   XX=            -10.1221   YY=              3.8230   ZZ=            -14.9902
   XY=             -6.2790   XZ=              0.0000   YZ=              0.0000

 DQ=-33.8920305\MP4SDQ=-33.8940595\CCSD=-33.8951108\CCSD(T)=-33.8976739
 Normal termination of Gaussian 16 at Sun Dec 10 06:33:28 2023.
