 Gaussian 16, Revision A.03,
 Gaussian 16:  ES64L-G16RevA.03 25-Dec-2016

 ------------------
 #p CCSD(T)/CEP-31G
 ------------------

 ------------
 H2O_H2O_4951
 ------------
 Symbolic Z-matrix:
 Charge =  0 Multiplicity = 1

                         Standard orientation:
 ---------------------------------------------------------------------
 Center     Atomic      Atomic             Coordinates (Angstroms)
 Number     Number       Type             X           Y           Z
 ---------------------------------------------------------------------
      1          8           0        0.003735   -3.436057    0.000000
      2          1           0       -0.795889   -4.007114    0.000000
      3          1           0        0.803253   -4.007263    0.000000
      4          8           0        0.003735    3.436300    0.000000
      5          1           0        0.764300    4.058433    0.000000
      6          1           0       -0.831429    3.953994    0.000000
 ---------------------------------------------------------------------

 SCF Done:  E(RHF) =  -33.6508733377     A.U. after   10 cycles
 E2 =    -0.2284250076D+00 EUMP2 =    -0.33879298345294D+02
 CCSD(T)
 CCSD(T)= -0.33896325113D+02

 The electronic state is 1-A'.
 Alpha  occ. eigenvalues --   -1.35088  -1.35086  -0.70716  -0.70715  -0.54772
 Alpha  occ. eigenvalues --   -0.54770  -0.49645  -0.49644
 Alpha virt. eigenvalues --    0.20633   0.20635   0.30866   0.30867   0.80909
 Alpha virt. eigenvalues --    0.80910   0.84020   0.84023   0.87101   0.87102
 Alpha virt. eigenvalues --    1.17775   1.17776   1.22240   1.22241   2.57814

 Mulliken charges:
               1
     1  O   -0.737845
     2  H    0.368845
     3  H    0.369000
     4  O   -0.737843
     5  H    0.368811
     6  H    0.369032
 Sum of Mulliken charges =   0.00000

 Dipole moment (field-independent basis, Debye):
    X=             -0.1725    Y=             -0.0057    Z=              0.0000  Tot=              0.1726
 Quadrupole moment (field-independent basis, Debye-Ang):
   XX=             -8.0432   YY=             24.4416   ZZ=            -14.9870
   XY=             -0.4762   XZ=              0.0000   YZ=              0.0000

 \MP4DQ=-33.8906738\MP4SDQ=-33.8927039\CCSD=-33.8937612\CCSD(T)=-33.896
 Normal termination of Gaussian 16 at Sun Dec 10 07:10:56 2023.
