 Gaussian 16, Revision A.03,
 Gaussian 16:  ES64L-G16RevA.03 25-Dec-2016

 ------------------
 #p CCSD(T)/CEP-31G
 ------------------

 ------------
 H2O_H2O_1395
 ------------
 Symbolic Z-matrix:
 Charge =  0 Multiplicity = 1

                         Standard orientation:
 ---------------------------------------------------------------------
 Center     Atomic      Atomic             Coordinates (Angstroms)
 Number     Number       Type             X           Y           Z
 ---------------------------------------------------------------------
      1          8           0        0.055298   -1.489077    0.000000
      2          1           0       -0.746040   -2.057727    0.000000
      3          1           0        0.853094   -2.062686    0.000000
      4          8           0        0.055298    1.573397    0.000000
      5          1           0       -0.286573    2.494608    0.000000
      6          1           0       -0.705250    0.951246    0.000000
 ---------------------------------------------------------------------

 SCF Done:  E(RHF) =  -33.6513753828     A.U. after   11 cycles
 E2 =    -0.2291781179D+00 EUMP2 =    -0.33880553500736D+02
 CCSD(T)
 CCSD(T)= -0.33897642940D+02

 The electronic state is 1-A'.
 Alpha  occ. eigenvalues --   -1.35680  -1.32749  -0.71328  -0.68359  -0.55391
 Alpha  occ. eigenvalues --   -0.52421  -0.50256  -0.47326
 Alpha virt. eigenvalues --    0.19365   0.24403   0.30287   0.33605   0.76537
 Alpha virt. eigenvalues --    0.78566   0.85114   0.86551   0.89202   1.10568
 Alpha virt. eigenvalues --    1.17105   1.20709   1.22066   1.28082   2.55726

 Mulliken charges:
               1
     1  O   -0.744176
     2  H    0.362052
     3  H    0.383103
     4  O   -0.732939
     5  H    0.347154
     6  H    0.384806
 Sum of Mulliken charges =   0.00000

 Dipole moment (field-independent basis, Debye):
    X=             -2.4682    Y=             -2.1234    Z=              0.0000  Tot=              3.2560
 Quadrupole moment (field-independent basis, Debye-Ang):
   XX=            -10.0010   YY=             -0.5192   ZZ=            -14.9940
   XY=             -3.7810   XZ=              0.0000   YZ=              0.0000

 \MP4DQ=-33.8918683\MP4SDQ=-33.8939699\CCSD=-33.8950054\CCSD(T)=-33.897
 Normal termination of Gaussian 16 at Sun Dec 10 06:50:49 2023.
