 Gaussian 16, Revision A.03,
 Gaussian 16:  ES64L-G16RevA.03 25-Dec-2016

 ------------------
 #p CCSD(T)/CEP-31G
 ------------------

 ------------
 H2O_H2O_2531
 ------------
 Symbolic Z-matrix:
 Charge =  0 Multiplicity = 1

                         Standard orientation:
 ---------------------------------------------------------------------
 Center     Atomic      Atomic             Coordinates (Angstroms)
 Number     Number       Type             X           Y           Z
 ---------------------------------------------------------------------
      1          8           0        0.021860   -2.141784    0.000000
      2          1           0       -0.778211   -2.712215    0.000000
      3          1           0        0.820930   -2.713617    0.000000
      4          8           0        0.021860    2.150441    0.000000
      5          1           0        0.542736    2.983624    0.000000
      6          1           0       -0.935215    2.372954    0.000000
 ---------------------------------------------------------------------

 SCF Done:  E(RHF) =  -33.6483786776     A.U. after   11 cycles
 E2 =    -0.2286063158D+00 EUMP2 =    -0.33876984993399D+02
 CCSD(T)
 CCSD(T)= -0.33894084666D+02

 The electronic state is 1-A'.
 Alpha  occ. eigenvalues --   -1.34444  -1.34299  -0.70067  -0.69915  -0.54042
 Alpha  occ. eigenvalues --   -0.53766  -0.48966  -0.48820
 Alpha virt. eigenvalues --    0.20983   0.21440   0.31368   0.31510   0.81397
 Alpha virt. eigenvalues --    0.81713   0.81910   0.86839   0.88078   0.89755
 Alpha virt. eigenvalues --    1.18317   1.18459   1.22801   1.22962   2.58320

 Mulliken charges:
               1
     1  O   -0.729320
     2  H    0.363016
     3  H    0.366318
     4  O   -0.728756
     5  H    0.362264
     6  H    0.366477
 Sum of Mulliken charges =   0.00000

 Dipole moment (field-independent basis, Debye):
    X=             -1.0013    Y=             -0.2072    Z=              0.0000  Tot=              1.0225
 Quadrupole moment (field-independent basis, Debye-Ang):
   XX=             -8.3806   YY=             10.0151   ZZ=            -14.9850
   XY=             -1.5743   XZ=              0.0000   YZ=              0.0000

 4DQ=-33.8884097\MP4SDQ=-33.8904494\CCSD=-33.8915083\CCSD(T)=-33.894084
 Normal termination of Gaussian 16 at Sun Dec 10 06:25:18 2023.
