 Gaussian 16, Revision A.03,
 Gaussian 16:  ES64L-G16RevA.03 25-Dec-2016

 ------------------
 #p CCSD(T)/CEP-31G
 ------------------

 ------------
 H2O_H2O_2310
 ------------
 Symbolic Z-matrix:
 Charge =  0 Multiplicity = 1

                         Standard orientation:
 ---------------------------------------------------------------------
 Center     Atomic      Atomic             Coordinates (Angstroms)
 Number     Number       Type             X           Y           Z
 ---------------------------------------------------------------------
      1          8           0        0.034786   -2.014058    0.000000
      2          1           0       -0.765628   -2.584008    0.000000
      3          1           0        0.833512   -2.586371    0.000000
      4          8           0        0.034786    2.037560    0.000000
      5          1           0        0.322834    2.976993    0.000000
      6          1           0       -0.947289    2.005371    0.000000
 ---------------------------------------------------------------------

 SCF Done:  E(RHF) =  -33.6485401667     A.U. after   11 cycles
 E2 =    -0.2286485711D+00 EUMP2 =    -0.33877188737754D+02
 CCSD(T)
 CCSD(T)= -0.33894286199D+02

 The electronic state is 1-A'.
 Alpha  occ. eigenvalues --   -1.34564  -1.34119  -0.70189  -0.69721  -0.54158
 Alpha  occ. eigenvalues --   -0.53606  -0.49089  -0.48646
 Alpha virt. eigenvalues --    0.20778   0.21708   0.31260   0.31682   0.79958
 Alpha virt. eigenvalues --    0.81179   0.82176   0.86289   0.88092   0.92758
 Alpha virt. eigenvalues --    1.18203   1.18667   1.22689   1.23153   2.58144

 Mulliken charges:
               1
     1  O   -0.729956
     2  H    0.361960
     3  H    0.368074
     4  O   -0.728258
     5  H    0.359947
     6  H    0.368233
 Sum of Mulliken charges =  -0.00000

 Dipole moment (field-independent basis, Debye):
    X=             -1.5891    Y=             -0.5661    Z=              0.0000  Tot=              1.6869
 Quadrupole moment (field-independent basis, Debye-Ang):
   XX=             -8.8482   YY=              7.7699   ZZ=            -14.9856
   XY=             -2.4818   XZ=              0.0000   YZ=              0.0000

 MP4DQ=-33.8886076\MP4SDQ=-33.8906508\CCSD=-33.8917068\CCSD(T)=-33.8942
 Normal termination of Gaussian 16 at Sun Dec 10 07:08:58 2023.
