 Gaussian 16, Revision A.03,
 Gaussian 16:  ES64L-G16RevA.03 25-Dec-2016

 ------------------
 #p CCSD(T)/CEP-31G
 ------------------

 ------------
 H2O_H2O_2704
 ------------
 Symbolic Z-matrix:
 Charge =  0 Multiplicity = 1

                         Standard orientation:
 ---------------------------------------------------------------------
 Center     Atomic      Atomic             Coordinates (Angstroms)
 Number     Number       Type             X           Y           Z
 ---------------------------------------------------------------------
      1          8           0        0.014783   -2.237452    0.000000
      2          1           0       -0.785112   -2.808130    0.000000
      3          1           0        0.814029   -2.809038    0.000000
      4          8           0        0.014783    2.241328    0.000000
      5          1           0        0.639721    2.999589    0.000000
      6          1           0       -0.905168    2.586577    0.000000
 ---------------------------------------------------------------------

 SCF Done:  E(RHF) =  -33.6485879447     A.U. after   11 cycles
 E2 =    -0.2285764527D+00 EUMP2 =    -0.33877164397330D+02
 CCSD(T)
 CCSD(T)= -0.33894257423D+02

 The electronic state is 1-A'.
 Alpha  occ. eigenvalues --   -1.34465  -1.34406  -0.70088  -0.70026  -0.54069
 Alpha  occ. eigenvalues --   -0.53894  -0.48991  -0.48929
 Alpha virt. eigenvalues --    0.21014   0.21307   0.31350   0.31426   0.81436
 Alpha virt. eigenvalues --    0.81742   0.82662   0.86884   0.87829   0.88480
 Alpha virt. eigenvalues --    1.18303   1.18361   1.22775   1.22868   2.58346

 Mulliken charges:
               1
     1  O   -0.730001
     2  H    0.364005
     3  H    0.365999
     4  O   -0.729782
     5  H    0.363629
     6  H    0.366150
 Sum of Mulliken charges =   0.00000

 Dipole moment (field-independent basis, Debye):
    X=             -0.6781    Y=             -0.0924    Z=              0.0000  Tot=              0.6844
 Quadrupole moment (field-independent basis, Debye-Ang):
   XX=             -8.2108   YY=             11.3411   ZZ=            -14.9850
   XY=             -1.1033   XZ=              0.0000   YZ=              0.0000

 \MP4DQ=-33.888586\MP4SDQ=-33.8906237\CCSD=-33.8916833\CCSD(T)=-33.8942
 Normal termination of Gaussian 16 at Sun Dec 10 06:28:33 2023.
