 Gaussian 16, Revision A.03,
 Gaussian 16:  ES64L-G16RevA.03 25-Dec-2016

 ------------------
 #p CCSD(T)/CEP-31G
 ------------------

 ------------
 H2O_H2O_1249
 ------------
 Symbolic Z-matrix:
 Charge =  0 Multiplicity = 1

                         Standard orientation:
 ---------------------------------------------------------------------
 Center     Atomic      Atomic             Coordinates (Angstroms)
 Number     Number       Type             X           Y           Z
 ---------------------------------------------------------------------
      1          8           0        0.057306   -1.393271    0.000000
      2          1           0       -0.744196   -1.961689    0.000000
      3          1           0        0.854937   -1.967110    0.000000
      4          8           0        0.057306    1.507110    0.000000
      5          1           0       -0.511111    2.308612    0.000000
      6          1           0       -0.516533    0.709479    0.000000
 ---------------------------------------------------------------------

 SCF Done:  E(RHF) =  -33.6550613067     A.U. after   11 cycles
 E2 =    -0.2292968863D+00 EUMP2 =    -0.33884358192983D+02
 CCSD(T)
 CCSD(T)= -0.33901279083D+02

 The electronic state is 1-A'.
 Alpha  occ. eigenvalues --   -1.36746  -1.32104  -0.72396  -0.68046  -0.56522
 Alpha  occ. eigenvalues --   -0.51936  -0.51373  -0.46715
 Alpha virt. eigenvalues --    0.18803   0.25573   0.29490   0.36144   0.77130
 Alpha virt. eigenvalues --    0.77363   0.85964   0.86914   0.93054   1.09679
 Alpha virt. eigenvalues --    1.16597   1.19975   1.22077   1.30675   2.54205

 Mulliken charges:
               1
     1  O   -0.764443
     2  H    0.369432
     3  H    0.397236
     4  O   -0.747930
     5  H    0.344037
     6  H    0.401669
 Sum of Mulliken charges =  -0.00000

 Dipole moment (field-independent basis, Debye):
    X=             -2.5389    Y=             -2.9329    Z=              0.0000  Tot=              3.8792
 Quadrupole moment (field-independent basis, Debye-Ang):
   XX=            -10.1274   YY=             -3.0856   ZZ=            -15.0032
   XY=             -4.2317   XZ=              0.0000   YZ=              0.0000

 3\MP4DQ=-33.8954619\MP4SDQ=-33.8975793\CCSD=-33.8985882\CCSD(T)=-33.90
 Normal termination of Gaussian 16 at Sun Dec 10 06:48:06 2023.
