 Gaussian 16, Revision A.03,
 Gaussian 16:  ES64L-G16RevA.03 25-Dec-2016

 ------------------
 #p CCSD(T)/CEP-31G
 ------------------

 ------------
 H2O_H2O_4960
 ------------
 Symbolic Z-matrix:
 Charge =  0 Multiplicity = 1

                         Standard orientation:
 ---------------------------------------------------------------------
 Center     Atomic      Atomic             Coordinates (Angstroms)
 Number     Number       Type             X           Y           Z
 ---------------------------------------------------------------------
      1          8           0        0.034779   -3.423402    0.000000
      2          1           0       -0.765290   -3.993838    0.000000
      3          1           0        0.833852   -3.995231    0.000000
      4          8           0        0.034779    3.446946    0.000000
      5          1           0        0.322257    4.386554    0.000000
      6          1           0       -0.947276    3.414164    0.000000
 ---------------------------------------------------------------------

 SCF Done:  E(RHF) =  -33.6511206327     A.U. after   11 cycles
 E2 =    -0.2284150005D+00 EUMP2 =    -0.33879535633162D+02
 CCSD(T)
 CCSD(T)= -0.33896555275D+02

 The electronic state is 1-A'.
 Alpha  occ. eigenvalues --   -1.35224  -1.35075  -0.70853  -0.70701  -0.54921
 Alpha  occ. eigenvalues --   -0.54772  -0.49785  -0.49636
 Alpha virt. eigenvalues --    0.20511   0.20662   0.30746   0.30893   0.80768
 Alpha virt. eigenvalues --    0.80915   0.83857   0.84003   0.86945   0.87114
 Alpha virt. eigenvalues --    1.17650   1.17797   1.22113   1.22261   2.57683

 Mulliken charges:
               1
     1  O   -0.738734
     2  H    0.368653
     3  H    0.370081
     4  O   -0.738583
     5  H    0.368168
     6  H    0.370415
 Sum of Mulliken charges =   0.00000

 Dipole moment (field-independent basis, Debye):
    X=             -1.6064    Y=             -0.5495    Z=              0.0000  Tot=              1.6978
 Quadrupole moment (field-independent basis, Debye-Ang):
   XX=             -8.8207   YY=             21.3925   ZZ=            -14.9875
   XY=             -4.6944   XZ=              0.0000   YZ=              0.0000

 \MP4DQ=-33.8909059\MP4SDQ=-33.8929354\CCSD=-33.8939921\CCSD(T)=-33.896
 Normal termination of Gaussian 16 at Sun Dec 10 07:11:06 2023.
