 Gaussian 16, Revision A.03,
 Gaussian 16:  ES64L-G16RevA.03 25-Dec-2016

 ------------------
 #p CCSD(T)/CEP-31G
 ------------------

 ------------
 H2O_H2O_3630
 ------------
 Symbolic Z-matrix:
 Charge =  0 Multiplicity = 1

                         Standard orientation:
 ---------------------------------------------------------------------
 Center     Atomic      Atomic             Coordinates (Angstroms)
 Number     Number       Type             X           Y           Z
 ---------------------------------------------------------------------
      1          8           0        0.018360   -2.728225    0.000000
      2          1           0       -0.781541   -3.298894    0.000000
      3          1           0        0.817601   -3.299820    0.000000
      4          8           0        0.018360    2.734266    0.000000
      5          1           0        0.592376    3.531770    0.000000
      6          1           0       -0.922197    3.018618    0.000000
 ---------------------------------------------------------------------

 SCF Done:  E(RHF) =  -33.6500570417     A.U. after   11 cycles
 E2 =    -0.2284767986D+00 EUMP2 =    -0.33878533840320D+02
 CCSD(T)
 CCSD(T)= -0.33895584018D+02

 The electronic state is 1-A'.
 Alpha  occ. eigenvalues --   -1.34842  -1.34781  -0.70468  -0.70405  -0.54480
 Alpha  occ. eigenvalues --   -0.54417  -0.49388  -0.49327
 Alpha virt. eigenvalues --    0.20831   0.20899   0.31064   0.31123   0.81165
 Alpha virt. eigenvalues --    0.81227   0.84228   0.84561   0.87399   0.87482
 Alpha virt. eigenvalues --    1.17986   1.18047   1.22459   1.22519   2.58044

 Mulliken charges:
               1
     1  O   -0.735016
     2  H    0.366788
     3  H    0.368228
     4  O   -0.734880
     5  H    0.366457
     6  H    0.368423
 Sum of Mulliken charges =   0.00000

 Dipole moment (field-independent basis, Debye):
    X=             -0.8459    Y=             -0.1421    Z=              0.0000  Tot=              0.8577
 Quadrupole moment (field-independent basis, Debye-Ang):
   XX=             -8.2657   YY=             16.3567   ZZ=            -14.9862
   XY=             -1.7865   XZ=              0.0000   YZ=              0.0000

 P4DQ=-33.8899262\MP4SDQ=-33.8919586\CCSD=-33.8930169\CCSD(T)=-33.89558
 Normal termination of Gaussian 16 at Sun Dec 10 06:45:15 2023.
