 Gaussian 16, Revision A.03,
 Gaussian 16:  ES64L-G16RevA.03 25-Dec-2016

 ------------------
 #p CCSD(T)/CEP-31G
 ------------------

 ------------
 H2O_H2O_3774
 ------------
 Symbolic Z-matrix:
 Charge =  0 Multiplicity = 1

                         Standard orientation:
 ---------------------------------------------------------------------
 Center     Atomic      Atomic             Coordinates (Angstroms)
 Number     Number       Type             X           Y           Z
 ---------------------------------------------------------------------
      1          8           0        0.057214   -2.736060    0.000000
      2          1           0       -0.743361   -3.305784    0.000000
      3          1           0        0.855778   -3.308599    0.000000
      4          8           0        0.057214    2.850085    0.000000
      5          1           0       -0.512510    3.650661    0.000000
      6          1           0       -0.515325    2.051521    0.000000
 ---------------------------------------------------------------------

 SCF Done:  E(RHF) =  -33.6523205170     A.U. after   11 cycles
 E2 =    -0.2283666529D+00 EUMP2 =    -0.33880687169883D+02
 CCSD(T)
 CCSD(T)= -0.33897671667D+02

 The electronic state is 1-A'.
 Alpha  occ. eigenvalues --   -1.35798  -1.34708  -0.71433  -0.70322  -0.55565
 Alpha  occ. eigenvalues --   -0.54452  -0.50378  -0.49287
 Alpha virt. eigenvalues --    0.19994   0.21136   0.30245   0.31373   0.80176
 Alpha virt. eigenvalues --    0.81244   0.83128   0.84272   0.86279   0.87452
 Alpha virt. eigenvalues --    1.17126   1.18212   1.21579   1.22702   2.57123

 Mulliken charges:
               1
     1  O   -0.743026
     2  H    0.369636
     3  H    0.373394
     4  O   -0.742848
     5  H    0.366486
     6  H    0.376358
 Sum of Mulliken charges =   0.00000

 Dipole moment (field-independent basis, Debye):
    X=             -2.6358    Y=             -2.6807    Z=              0.0000  Tot=              3.7595
 Quadrupole moment (field-independent basis, Debye-Ang):
   XX=            -10.1644   YY=              4.4608   ZZ=            -14.9899
   XY=             -7.7160   XZ=              0.0000   YZ=              0.0000

 8\MP4DQ=-33.8920314\MP4SDQ=-33.8940578\CCSD=-33.8951115\CCSD(T)=-33.89
 Normal termination of Gaussian 16 at Sun Dec 10 06:47:55 2023.
