 Gaussian 16, Revision A.03,
 Gaussian 16:  ES64L-G16RevA.03 25-Dec-2016

 ------------------
 #p CCSD(T)/CEP-31G
 ------------------

 ------------
 H2O_H2O_2082
 ------------
 Symbolic Z-matrix:
 Charge =  0 Multiplicity = 1

                         Standard orientation:
 ---------------------------------------------------------------------
 Center     Atomic      Atomic             Coordinates (Angstroms)
 Number     Number       Type             X           Y           Z
 ---------------------------------------------------------------------
      1          8           0        0.025267   -1.900793    0.000000
      2          1           0       -0.774955   -2.471012    0.000000
      3          1           0        0.824186   -2.472836    0.000000
      4          8           0        0.025267    1.912515    0.000000
      5          1           0        0.490762    2.777859    0.000000
      6          1           0       -0.944270    2.072212    0.000000
 ---------------------------------------------------------------------

 SCF Done:  E(RHF) =  -33.6471544148     A.U. after   11 cycles
 E2 =    -0.2287434891D+00 EUMP2 =    -0.33875897903964D+02
 CCSD(T)
 CCSD(T)= -0.33893039754D+02

 The electronic state is 1-A'.
 Alpha  occ. eigenvalues --   -1.34228  -1.33976  -0.69850  -0.69583  -0.53876
 Alpha  occ. eigenvalues --   -0.53235  -0.48740  -0.48475
 Alpha virt. eigenvalues --    0.20926   0.21897   0.31525   0.31763   0.78352
 Alpha virt. eigenvalues --    0.81160   0.82713   0.86292   0.89329   0.95575
 Alpha virt. eigenvalues --    1.18485   1.18756   1.22995   1.23277   2.58185

 Mulliken charges:
               1
     1  O   -0.725311
     2  H    0.360073
     3  H    0.365310
     4  O   -0.724077
     5  H    0.358737
     6  H    0.365268
 Sum of Mulliken charges =   0.00000

 Dipole moment (field-independent basis, Debye):
    X=             -1.1515    Y=             -0.2853    Z=              0.0000  Tot=              1.1863
 Quadrupole moment (field-independent basis, Debye-Ang):
   XX=             -8.5005   YY=              7.3076   ZZ=            -14.9845
   XY=             -1.5805   XZ=              0.0000   YZ=              0.0000

 \MP4DQ=-33.8873421\MP4SDQ=-33.8893942\CCSD=-33.8904515\CCSD(T)=-33.893
 Normal termination of Gaussian 16 at Sun Dec 10 07:04:52 2023.
