 Gaussian 16, Revision A.03,
 Gaussian 16:  ES64L-G16RevA.03 25-Dec-2016

 ------------------
 #p CCSD(T)/CEP-31G
 ------------------

 ------------
 H2O_H2O_2598
 ------------
 Symbolic Z-matrix:
 Charge =  0 Multiplicity = 1

                         Standard orientation:
 ---------------------------------------------------------------------
 Center     Atomic      Atomic             Coordinates (Angstroms)
 Number     Number       Type             X           Y           Z
 ---------------------------------------------------------------------
      1          8           0        0.057112   -2.115239    0.000000
      2          1           0       -0.743750   -2.684561    0.000000
      3          1           0        0.855388   -2.688179    0.000000
      4          8           0        0.057112    2.221737    0.000000
      5          1           0       -0.458613    3.058119    0.000000
      6          1           0       -0.566811    1.462640    0.000000
 ---------------------------------------------------------------------

 SCF Done:  E(RHF) =  -33.6528416079     A.U. after   11 cycles
 E2 =    -0.2284442996D+00 EUMP2 =    -0.33881285907404D+02
 CCSD(T)
 CCSD(T)= -0.33898258347D+02

 The electronic state is 1-A'.
 Alpha  occ. eigenvalues --   -1.35881  -1.34099  -0.71520  -0.69683  -0.55679
 Alpha  occ. eigenvalues --   -0.53846  -0.50467  -0.48685
 Alpha virt. eigenvalues --    0.19618   0.22043   0.30147   0.32067   0.80073
 Alpha virt. eigenvalues --    0.81847   0.81991   0.85397   0.86077   0.89167
 Alpha virt. eigenvalues --    1.17060   1.19035   1.21458   1.24122   2.56912

 Mulliken charges:
               1
     1  O   -0.744544
     2  H    0.368593
     3  H    0.376316
     4  O   -0.743839
     5  H    0.361943
     6  H    0.381531
 Sum of Mulliken charges =   0.00000

 Dipole moment (field-independent basis, Debye):
    X=             -2.6169    Y=             -2.5544    Z=              0.0000  Tot=              3.6569
 Quadrupole moment (field-independent basis, Debye-Ang):
   XX=            -10.1468   YY=              1.8481   ZZ=            -14.9915
   XY=             -5.9400   XZ=              0.0000   YZ=              0.0000

 1\MP4DQ=-33.892611\MP4SDQ=-33.8946451\CCSD=-33.8956913\CCSD(T)=-33.898
 Normal termination of Gaussian 16 at Sun Dec 10 06:26:33 2023.
