 Gaussian 16, Revision A.03,
 Gaussian 16:  ES64L-G16RevA.03 25-Dec-2016

 ------------------
 #p CCSD(T)/CEP-31G
 ------------------

 ------------
 H2O_H2O_1509
 ------------
 Symbolic Z-matrix:
 Charge =  0 Multiplicity = 1

                         Standard orientation:
 ---------------------------------------------------------------------
 Center     Atomic      Atomic             Coordinates (Angstroms)
 Number     Number       Type             X           Y           Z
 ---------------------------------------------------------------------
      1          8           0        0.031747   -1.590956    0.000000
      2          1           0       -0.768798   -2.160723    0.000000
      3          1           0        0.830342   -2.163452    0.000000
      4          8           0        0.031747    1.610099    0.000000
      5          1           0        0.380830    2.528601    0.000000
      6          1           0       -0.950322    1.642435    0.000000
 ---------------------------------------------------------------------

 SCF Done:  E(RHF) =  -33.6445460818     A.U. after   11 cycles
 E2 =    -0.2290872949D+00 EUMP2 =    -0.33873633376678D+02
 CCSD(T)
 CCSD(T)= -0.33890894030D+02

 The electronic state is 1-A'.
 Alpha  occ. eigenvalues --   -1.33928  -1.33346  -0.69550  -0.68935  -0.53859
 Alpha  occ. eigenvalues --   -0.52058  -0.48444  -0.47785
 Alpha virt. eigenvalues --    0.20780   0.22833   0.31732   0.32239   0.76032
 Alpha virt. eigenvalues --    0.80106   0.84121   0.84822   0.92423   1.08392
 Alpha virt. eigenvalues --    1.18681   1.19909   1.23329   1.23833   2.59329

 Mulliken charges:
               1
     1  O   -0.719030
     2  H    0.354311
     3  H    0.364705
     4  O   -0.714469
     5  H    0.351462
     6  H    0.363020
 Sum of Mulliken charges =  -0.00000

 Dipole moment (field-independent basis, Debye):
    X=             -1.4262    Y=             -0.4765    Z=              0.0000  Tot=              1.5037
 Quadrupole moment (field-independent basis, Debye-Ang):
   XX=             -8.7650   YY=              3.6795   ZZ=            -14.9848
   XY=             -1.6426   XZ=              0.0000   YZ=              0.0000

 \MP4DQ=-33.8851267\MP4SDQ=-33.8872122\CCSD=-33.8882741\CCSD(T)=-33.890
 Normal termination of Gaussian 16 at Sun Dec 10 06:52:56 2023.
