 Gaussian 16, Revision A.03,
 Gaussian 16:  ES64L-G16RevA.03 25-Dec-2016

 ------------------
 #p CCSD(T)/CEP-31G
 ------------------

 ------------
 H2O_H2O_2183
 ------------
 Symbolic Z-matrix:
 Charge =  0 Multiplicity = 1

                         Standard orientation:
 ---------------------------------------------------------------------
 Center     Atomic      Atomic             Coordinates (Angstroms)
 Number     Number       Type             X           Y           Z
 ---------------------------------------------------------------------
      1          8           0        0.028566   -1.952070    0.000000
      2          1           0       -0.771721   -2.522199    0.000000
      3          1           0        0.827420   -2.524205    0.000000
      4          8           0        0.028566    1.967302    0.000000
      5          1           0        0.436572    2.861191    0.000000
      6          1           0       -0.949329    2.063358    0.000000
 ---------------------------------------------------------------------

 SCF Done:  E(RHF) =  -33.6477246647     A.U. after   11 cycles
 E2 =    -0.2287009986D+00 EUMP2 =    -0.33876425663318D+02
 CCSD(T)
 CCSD(T)= -0.33893548545D+02

 The electronic state is 1-A'.
 Alpha  occ. eigenvalues --   -1.34355  -1.34047  -0.69978  -0.69653  -0.53970
 Alpha  occ. eigenvalues --   -0.53411  -0.48872  -0.48558
 Alpha virt. eigenvalues --    0.20883   0.21799   0.31430   0.31714   0.79075
 Alpha virt. eigenvalues --    0.81203   0.82456   0.86389   0.88755   0.94193
 Alpha virt. eigenvalues --    1.18379   1.18704   1.22887   1.23206   2.58189

 Mulliken charges:
               1
     1  O   -0.727193
     2  H    0.360883
     3  H    0.366382
     4  O   -0.725814
     5  H    0.359346
     6  H    0.366394
 Sum of Mulliken charges =  -0.00000

 Dipole moment (field-independent basis, Debye):
    X=             -1.3033    Y=             -0.3689    Z=              0.0000  Tot=              1.3545
 Quadrupole moment (field-independent basis, Debye-Ang):
   XX=             -8.6062   YY=              7.6452   ZZ=            -14.9849
   XY=             -1.8828   XZ=              0.0000   YZ=              0.0000

 \MP4DQ=-33.8878596\MP4SDQ=-33.8899075\CCSD=-33.8909644\CCSD(T)=-33.893
 Normal termination of Gaussian 16 at Sun Dec 10 07:06:41 2023.
