 Gaussian 16, Revision A.03,
 Gaussian 16:  ES64L-G16RevA.03 25-Dec-2016

 ------------------
 #p CCSD(T)/CEP-31G
 ------------------

 ------------
 H2O_H2O_3751
 ------------
 Symbolic Z-matrix:
 Charge =  0 Multiplicity = 1

                         Standard orientation:
 ---------------------------------------------------------------------
 Center     Atomic      Atomic             Coordinates (Angstroms)
 Number     Number       Type             X           Y           Z
 ---------------------------------------------------------------------
      1          8           0        0.003735   -2.797853    0.000000
      2          1           0       -0.795901   -3.368893    0.000000
      3          1           0        0.803241   -3.369077    0.000000
      4          8           0        0.003735    2.798097    0.000000
      5          1           0        0.764313    3.420213    0.000000
      6          1           0       -0.831418    3.315807    0.000000
 ---------------------------------------------------------------------

 SCF Done:  E(RHF) =  -33.6500638571     A.U. after   10 cycles
 E2 =    -0.2284728710D+00 EUMP2 =    -0.33878536728122D+02
 CCSD(T)
 CCSD(T)= -0.33895586655D+02

 The electronic state is 1-A'.
 Alpha  occ. eigenvalues --   -1.34826  -1.34824  -0.70452  -0.70449  -0.54467
 Alpha  occ. eigenvalues --   -0.54458  -0.49372  -0.49369
 Alpha virt. eigenvalues --    0.20843   0.20861   0.31079   0.31083   0.81179
 Alpha virt. eigenvalues --    0.81187   0.84269   0.84495   0.87409   0.87429
 Alpha virt. eigenvalues --    1.18003   1.18005   1.22474   1.22478   2.58056

 Mulliken charges:
               1
     1  O   -0.735025
     2  H    0.367375
     3  H    0.367650
     4  O   -0.735020
     5  H    0.367326
     6  H    0.367694
 Sum of Mulliken charges =   0.00000

 Dipole moment (field-independent basis, Debye):
    X=             -0.1722    Y=             -0.0057    Z=              0.0000  Tot=              0.1723
 Quadrupole moment (field-independent basis, Debye-Ang):
   XX=             -8.0558   YY=             17.6228   ZZ=            -14.9862
   XY=             -0.3678   XZ=              0.0000   YZ=              0.0000

 MP4DQ=-33.8899289\MP4SDQ=-33.8919613\CCSD=-33.8930197\CCSD(T)=-33.8955
 Normal termination of Gaussian 16 at Sun Dec 10 06:47:29 2023.
