 Gaussian 16, Revision A.03,
 Gaussian 16:  ES64L-G16RevA.03 25-Dec-2016

 ------------------
 #p CCSD(T)/CEP-31G
 ------------------

 ------------
 H2O_H2O_3431
 ------------
 Symbolic Z-matrix:
 Charge =  0 Multiplicity = 1

                         Standard orientation:
 ---------------------------------------------------------------------
 Center     Atomic      Atomic             Coordinates (Angstroms)
 Number     Number       Type             X           Y           Z
 ---------------------------------------------------------------------
      1          8           0        0.021859   -2.620433    0.000000
      2          1           0       -0.778121   -3.190992    0.000000
      3          1           0        0.821021   -3.192138    0.000000
      4          8           0        0.021859    2.629097    0.000000
      5          1           0        0.542602    3.462364    0.000000
      6          1           0       -0.935251    2.851457    0.000000
 ---------------------------------------------------------------------

 SCF Done:  E(RHF) =  -33.6499002328     A.U. after   11 cycles
 E2 =    -0.2284888609D+00 EUMP2 =    -0.33878389093634D+02
 CCSD(T)
 CCSD(T)= -0.33895443860D+02

 The electronic state is 1-A'.
 Alpha  occ. eigenvalues --   -1.34808  -1.34712  -0.70433  -0.70335  -0.54436
 Alpha  occ. eigenvalues --   -0.54339  -0.49351  -0.49256
 Alpha virt. eigenvalues --    0.20854   0.20963   0.31090   0.31181   0.81200
 Alpha virt. eigenvalues --    0.81298   0.84153   0.84770   0.87440   0.87580
 Alpha virt. eigenvalues --    1.18014   1.18108   1.22489   1.22583   2.58076

 Mulliken charges:
               1
     1  O   -0.734487
     2  H    0.366288
     3  H    0.368199
     4  O   -0.734259
     5  H    0.365825
     6  H    0.368433
 Sum of Mulliken charges =   0.00000

 Dipole moment (field-independent basis, Debye):
    X=             -1.0064    Y=             -0.2041    Z=              0.0000  Tot=              1.0269
 Quadrupole moment (field-independent basis, Debye-Ang):
   XX=             -8.3591   YY=             15.0019   ZZ=            -14.9861
   XY=             -2.0404   XZ=              0.0000   YZ=              0.0000

 MP4DQ=-33.8897847\MP4SDQ=-33.8918176\CCSD=-33.892876\CCSD(T)=-33.89544
 Normal termination of Gaussian 16 at Sun Dec 10 06:41:38 2023.
