 Gaussian 16, Revision A.03,
 Gaussian 16:  ES64L-G16RevA.03 25-Dec-2016

 ------------------
 #p CCSD(T)/CEP-31G
 ------------------

 ------------
 H2O_H2O_2909
 ------------
 Symbolic Z-matrix:
 Charge =  0 Multiplicity = 1

                         Standard orientation:
 ---------------------------------------------------------------------
 Center     Atomic      Atomic             Coordinates (Angstroms)
 Number     Number       Type             X           Y           Z
 ---------------------------------------------------------------------
      1          8           0        0.031742   -2.335509    0.000000
      2          1           0       -0.768494   -2.905710    0.000000
      3          1           0        0.830647   -2.907572    0.000000
      4          8           0        0.031742    2.354686    0.000000
      5          1           0        0.380327    3.273378    0.000000
      6          1           0       -0.950345    2.386490    0.000000
 ---------------------------------------------------------------------

 SCF Done:  E(RHF) =  -33.6495090504     A.U. after   11 cycles
 E2 =    -0.2285308258D+00 EUMP2 =    -0.33878039876147D+02
 CCSD(T)
 CCSD(T)= -0.33895106400D+02

 The electronic state is 1-A'.
 Alpha  occ. eigenvalues --   -1.34749  -1.34483  -0.70375  -0.70097  -0.54359
 Alpha  occ. eigenvalues --   -0.54079  -0.49287  -0.49022
 Alpha virt. eigenvalues --    0.20851   0.21210   0.31128   0.31382   0.81241
 Alpha virt. eigenvalues --    0.81548   0.83308   0.85675   0.87525   0.88248
 Alpha virt. eigenvalues --    1.18057   1.18319   1.22535   1.22800   2.58130

 Mulliken charges:
               1
     1  O   -0.733202
     2  H    0.364724
     3  H    0.368484
     4  O   -0.732442
     5  H    0.363609
     6  H    0.368826
 Sum of Mulliken charges =  -0.00000

 Dipole moment (field-independent basis, Debye):
    X=             -1.4576    Y=             -0.4550    Z=              0.0000  Tot=              1.5269
 Quadrupole moment (field-independent basis, Debye-Ang):
   XX=             -8.7067   YY=             11.2511   ZZ=            -14.9860
   XY=             -2.6706   XZ=              0.0000   YZ=              0.0000

 \MP4DQ=-33.8894432\MP4SDQ=-33.8914779\CCSD=-33.892536\CCSD(T)=-33.8951
 Normal termination of Gaussian 16 at Sun Dec 10 06:32:22 2023.
