 Gaussian 16, Revision A.03,
 Gaussian 16:  ES64L-G16RevA.03 25-Dec-2016

 ------------------
 #p CCSD(T)/CEP-31G
 ------------------

 ------------
 H2O_H2O_1652
 ------------
 Symbolic Z-matrix:
 Charge =  0 Multiplicity = 1

                         Standard orientation:
 ---------------------------------------------------------------------
 Center     Atomic      Atomic             Coordinates (Angstroms)
 Number     Number       Type             X           Y           Z
 ---------------------------------------------------------------------
      1          8           0        0.007455   -1.680601    0.000000
      2          1           0       -0.792334   -2.251428    0.000000
      3          1           0        0.806808   -2.252038    0.000000
      4          8           0        0.007455    1.681573    0.000000
      5          1           0        0.725894    2.351910    0.000000
      6          1           0       -0.859648    2.143784    0.000000
 ---------------------------------------------------------------------

 SCF Done:  E(RHF) =  -33.6439206658     A.U. after   11 cycles
 E2 =    -0.2289622113D+00 EUMP2 =    -0.33872882877051D+02
 CCSD(T)
 CCSD(T)= -0.33890138476D+02

 The electronic state is 1-A'.
 Alpha  occ. eigenvalues --   -1.33650  -1.33576  -0.69265  -0.69193  -0.53620
 Alpha  occ. eigenvalues --   -0.52137  -0.48199  -0.47951
 Alpha virt. eigenvalues --    0.21146   0.22407   0.31815   0.32165   0.76651
 Alpha virt. eigenvalues --    0.80675   0.84279   0.84717   0.93340   1.02127
 Alpha virt. eigenvalues --    1.18948   1.19071   1.23320   1.23854   2.58672

 Mulliken charges:
               1
     1  O   -0.715605
     2  H    0.356721
     3  H    0.358889
     4  O   -0.715399
     5  H    0.356529
     6  H    0.358865
 Sum of Mulliken charges =   0.00000

 Dipole moment (field-independent basis, Debye):
    X=             -0.3374    Y=             -0.0242    Z=              0.0000  Tot=              0.3382
 Quadrupole moment (field-independent basis, Debye-Ang):
   XX=             -8.1755   YY=              5.4061   ZZ=            -14.9833
   XY=             -0.3717   XZ=              0.0000   YZ=              0.0000

 P4DQ=-33.8843882\MP4SDQ=-33.8864615\CCSD=-33.8875264\CCSD(T)=-33.89013
 Normal termination of Gaussian 16 at Sun Dec 10 06:55:36 2023.
