 Gaussian 16, Revision A.03,
 Gaussian 16:  ES64L-G16RevA.03 25-Dec-2016

 ------------------
 #p CCSD(T)/CEP-31G
 ------------------

 ------------
 H2O_H2O_4887
 ------------
 Symbolic Z-matrix:
 Charge =  0 Multiplicity = 1

                         Standard orientation:
 ---------------------------------------------------------------------
 Center     Atomic      Atomic             Coordinates (Angstroms)
 Number     Number       Type             X           Y           Z
 ---------------------------------------------------------------------
      1          8           0        0.040402   -3.378177    0.000000
      2          1           0       -0.759753   -3.948489    0.000000
      3          1           0        0.839388   -3.950127    0.000000
      4          8           0        0.040402    3.411550    0.000000
      5          1           0        0.202926    4.380617    0.000000
      6          1           0       -0.928997    3.251012    0.000000
 ---------------------------------------------------------------------

 SCF Done:  E(RHF) =  -33.6512035734     A.U. after   11 cycles
 E2 =    -0.2284118880D+00 EUMP2 =    -0.33879615461425D+02
 CCSD(T)
 CCSD(T)= -0.33896632684D+02

 The electronic state is 1-A'.
 Alpha  occ. eigenvalues --   -1.35273  -1.35057  -0.70903  -0.70682  -0.54975
 Alpha  occ. eigenvalues --   -0.54758  -0.49835  -0.49620
 Alpha virt. eigenvalues --    0.20466   0.20686   0.30702   0.30916   0.80718
 Alpha virt. eigenvalues --    0.80931   0.83799   0.84012   0.86890   0.87133
 Alpha virt. eigenvalues --    1.17604   1.17818   1.22067   1.22283   2.57635

 Mulliken charges:
               1
     1  O   -0.739034
     2  H    0.368665
     3  H    0.370369
     4  O   -0.738834
     5  H    0.368018
     6  H    0.370816
 Sum of Mulliken charges =   0.00000

 Dipole moment (field-independent basis, Debye):
    X=             -1.8660    Y=             -0.7791    Z=              0.0000  Tot=              2.0221
 Quadrupole moment (field-independent basis, Debye-Ang):
   XX=             -9.0961   YY=             19.6903   ZZ=            -14.9876
   XY=             -5.5077   XZ=              0.0000   YZ=              0.0000

 MP4DQ=-33.890984\MP4SDQ=-33.8930132\CCSD=-33.8940698\CCSD(T)=-33.89663
 Normal termination of Gaussian 16 at Sun Dec 10 07:09:45 2023.
