 Gaussian 16, Revision A.03,
 Gaussian 16:  ES64L-G16RevA.03 25-Dec-2016

 ------------------
 #p CCSD(T)/CEP-31G
 ------------------

 ------------
 H2O_H2O_1871
 ------------
 Symbolic Z-matrix:
 Charge =  0 Multiplicity = 1

                         Standard orientation:
 ---------------------------------------------------------------------
 Center     Atomic      Atomic             Coordinates (Angstroms)
 Number     Number       Type             X           Y           Z
 ---------------------------------------------------------------------
      1          8           0        0.056140   -1.737726    0.000000
      2          1           0       -0.744972   -2.306694    0.000000
      3          1           0        0.854164   -2.311018    0.000000
      4          8           0        0.056140    1.829365    0.000000
      5          1           0       -0.345606    2.726084    0.000000
      6          1           0       -0.661823    1.158518    0.000000
 ---------------------------------------------------------------------

 SCF Done:  E(RHF) =  -33.6525458569     A.U. after   11 cycles
 E2 =    -0.2287289532D+00 EUMP2 =    -0.33881274810120D+02
 CCSD(T)
 CCSD(T)= -0.33898287258D+02

 The electronic state is 1-A'.
 Alpha  occ. eigenvalues --   -1.35782  -1.33428  -0.71423  -0.68982  -0.55560
 Alpha  occ. eigenvalues --   -0.53149  -0.50363  -0.48014
 Alpha virt. eigenvalues --    0.19341   0.23223   0.30171   0.32910   0.77400
 Alpha virt. eigenvalues --    0.79639   0.83075   0.86026   0.86801   0.99141
 Alpha virt. eigenvalues --    1.17092   1.20143   1.21591   1.26430   2.55215

 Mulliken charges:
               1
     1  O   -0.743503
     2  H    0.365542
     3  H    0.379089
     4  O   -0.740449
     5  H    0.355024
     6  H    0.384296
 Sum of Mulliken charges =  -0.00000

 Dipole moment (field-independent basis, Debye):
    X=             -2.5475    Y=             -2.2576    Z=              0.0000  Tot=              3.4039
 Quadrupole moment (field-independent basis, Debye-Ang):
   XX=            -10.0654   YY=              0.7747   ZZ=            -14.9924
   XY=             -4.6019   XZ=              0.0000   YZ=              0.0000

 2\MP4DQ=-33.8925939\MP4SDQ=-33.8946558\CCSD=-33.8956938\CCSD(T)=-33.89
 Normal termination of Gaussian 16 at Sun Dec 10 06:59:38 2023.
