 Gaussian 16, Revision A.03,
 Gaussian 16:  ES64L-G16RevA.03 25-Dec-2016

 ------------------
 #p CCSD(T)/CEP-31G
 ------------------

 ------------
 H2O_H2O_1277
 ------------
 Symbolic Z-matrix:
 Charge =  0 Multiplicity = 1

                         Standard orientation:
 ---------------------------------------------------------------------
 Center     Atomic      Atomic             Coordinates (Angstroms)
 Number     Number       Type             X           Y           Z
 ---------------------------------------------------------------------
      1          8           0        0.007455   -1.481163    0.000000
      2          1           0       -0.792363   -2.051949    0.000000
      3          1           0        0.806779   -2.052641    0.000000
      4          8           0        0.007455    1.482134    0.000000
      5          1           0        0.725928    2.152433    0.000000
      6          1           0       -0.859624    1.944390    0.000000
 ---------------------------------------------------------------------

 SCF Done:  E(RHF) =  -33.6399959509     A.U. after   11 cycles
 E2 =    -0.2292685610D+00 EUMP2 =    -0.33869264511887D+02
 CCSD(T)
 CCSD(T)= -0.33886637653D+02

 The electronic state is 1-A'.
 Alpha  occ. eigenvalues --   -1.33230  -1.33022  -0.68827  -0.68650  -0.53745
 Alpha  occ. eigenvalues --   -0.50695  -0.47824  -0.47265
 Alpha virt. eigenvalues --    0.21299   0.23061   0.32140   0.32517   0.78980
 Alpha virt. eigenvalues --    0.79907   0.82114   0.86253   0.98259   1.08073
 Alpha virt. eigenvalues --    1.19261   1.19810   1.23906   1.24272   2.59513

 Mulliken charges:
               1
     1  O   -0.707536
     2  H    0.352223
     3  H    0.355271
     4  O   -0.707100
     5  H    0.352408
     6  H    0.354735
 Sum of Mulliken charges =   0.00000

 Dipole moment (field-independent basis, Debye):
    X=             -0.3321    Y=             -0.0242    Z=              0.0000  Tot=              0.3330
 Quadrupole moment (field-independent basis, Debye-Ang):
   XX=             -8.2196   YY=              3.0623   ZZ=            -14.9850
   XY=             -0.3095   XZ=              0.0000   YZ=              0.0000

 4DQ=-33.8808234\MP4SDQ=-33.8829124\CCSD=-33.8839939\CCSD(T)=-33.886637
 Normal termination of Gaussian 16 at Sun Dec 10 06:48:38 2023.
