 Gaussian 16, Revision A.03,
 Gaussian 16:  ES64L-G16RevA.03 25-Dec-2016

 ------------------
 #p CCSD(T)/CEP-31G
 ------------------

 ------------
 H2O_H2O_1354
 ------------
 Symbolic Z-matrix:
 Charge =  0 Multiplicity = 1

                         Standard orientation:
 ---------------------------------------------------------------------
 Center     Atomic      Atomic             Coordinates (Angstroms)
 Number     Number       Type             X           Y           Z
 ---------------------------------------------------------------------
      1          8           0        0.014784   -1.519477    0.000000
      2          1           0       -0.785265   -2.089940    0.000000
      3          1           0        0.813877   -2.091278    0.000000
      4          8           0        0.014784    1.523345    0.000000
      5          1           0        0.639925    2.281437    0.000000
      6          1           0       -0.905075    1.868841    0.000000
 ---------------------------------------------------------------------

 SCF Done:  E(RHF) =  -33.6413283462     A.U. after   11 cycles
 E2 =    -0.2291989189D+00 EUMP2 =    -0.33870527265049D+02
 CCSD(T)
 CCSD(T)= -0.33887871837D+02

 The electronic state is 1-A'.
 Alpha  occ. eigenvalues --   -1.33375  -1.33167  -0.68981  -0.68784  -0.53719
 Alpha  occ. eigenvalues --   -0.51130  -0.47950  -0.47459
 Alpha virt. eigenvalues --    0.21192   0.22942   0.32065   0.32399   0.77861
 Alpha virt. eigenvalues --    0.80013   0.82781   0.85784   0.96383   1.08229
 Alpha virt. eigenvalues --    1.19144   1.19710   1.23750   1.24111   2.59713

 Mulliken charges:
               1
     1  O   -0.710446
     2  H    0.352372
     3  H    0.357976
     4  O   -0.709004
     5  H    0.352110
     6  H    0.356992
 Sum of Mulliken charges =   0.00000

 Dipole moment (field-independent basis, Debye):
    X=             -0.6611    Y=             -0.0965    Z=              0.0000  Tot=              0.6681
 Quadrupole moment (field-independent basis, Debye-Ang):
   XX=             -8.3072   YY=              3.4334   ZZ=            -14.9844
   XY=             -0.6508   XZ=              0.0000   YZ=              0.0000

 \MP4DQ=-33.8820722\MP4SDQ=-33.8841605\CCSD=-33.8852365\CCSD(T)=-33.887
 Normal termination of Gaussian 16 at Sun Dec 10 06:50:04 2023.
