 Gaussian 16, Revision A.03,
 Gaussian 16:  ES64L-G16RevA.03 25-Dec-2016

 ------------------
 #p CCSD(T)/CEP-31G
 ------------------

 ------------
 H2O_H2O_2166
 ------------
 Symbolic Z-matrix:
 Charge =  0 Multiplicity = 1

                         Standard orientation:
 ---------------------------------------------------------------------
 Center     Atomic      Atomic             Coordinates (Angstroms)
 Number     Number       Type             X           Y           Z
 ---------------------------------------------------------------------
      1          8           0        0.049524   -1.916145    0.000000
      2          1           0       -0.751296   -2.485525    0.000000
      3          1           0        0.847842   -2.489027    0.000000
      4          8           0        0.049524    1.973042    0.000000
      5          1           0       -0.043163    2.951262    0.000000
      6          1           0       -0.845765    1.568117    0.000000
 ---------------------------------------------------------------------

 SCF Done:  E(RHF) =  -33.6501673961     A.U. after   11 cycles
 E2 =    -0.2286462604D+00 EUMP2 =    -0.33878813656458D+02
 CCSD(T)
 CCSD(T)= -0.33895868998D+02

 The electronic state is 1-A'.
 Alpha  occ. eigenvalues --   -1.35093  -1.33902  -0.70725  -0.69478  -0.54743
 Alpha  occ. eigenvalues --   -0.53515  -0.49641  -0.48456
 Alpha virt. eigenvalues --    0.20158   0.22182   0.30768   0.32026   0.78558
 Alpha virt. eigenvalues --    0.80622   0.82366   0.85871   0.87262   0.95164
 Alpha virt. eigenvalues --    1.17732   1.19193   1.22122   1.23710   2.57421

 Mulliken charges:
               1
     1  O   -0.735524
     2  H    0.363119
     3  H    0.372716
     4  O   -0.732402
     5  H    0.358064
     6  H    0.374026
 Sum of Mulliken charges =   0.00000

 Dipole moment (field-independent basis, Debye):
    X=             -2.2573    Y=             -1.3783    Z=              0.0000  Tot=              2.6449
 Quadrupole moment (field-independent basis, Debye-Ang):
   XX=             -9.6299   YY=              4.6471   ZZ=            -14.9880
   XY=             -3.8727   XZ=              0.0000   YZ=              0.0000

 \MP4DQ=-33.8901951\MP4SDQ=-33.8922403\CCSD=-33.8932894\CCSD(T)=-33.895
 Normal termination of Gaussian 16 at Sun Dec 10 07:06:23 2023.
