 Gaussian 16, Revision A.03,
 Gaussian 16:  ES64L-G16RevA.03 25-Dec-2016

 ------------------
 #p CCSD(T)/CEP-31G
 ------------------

 ------------
 H2O_H2O_4829
 ------------
 Symbolic Z-matrix:
 Charge =  0 Multiplicity = 1

                         Standard orientation:
 ---------------------------------------------------------------------
 Center     Atomic      Atomic             Coordinates (Angstroms)
 Number     Number       Type             X           Y           Z
 ---------------------------------------------------------------------
      1          8           0        0.014783   -3.367602    0.000000
      2          1           0       -0.785004   -3.938432    0.000000
      3          1           0        0.814138   -3.939036    0.000000
      4          8           0        0.014783    3.371483    0.000000
      5          1           0        0.639576    4.129862    0.000000
      6          1           0       -0.905234    3.716556    0.000000
 ---------------------------------------------------------------------

 SCF Done:  E(RHF) =  -33.6508564552     A.U. after   11 cycles
 E2 =    -0.2284268185D+00 EUMP2 =    -0.33879283273706D+02
 CCSD(T)
 CCSD(T)= -0.33896310507D+02

 The electronic state is 1-A'.
 Alpha  occ. eigenvalues --   -1.35089  -1.35063  -0.70717  -0.70691  -0.54772
 Alpha  occ. eigenvalues --   -0.54747  -0.49646  -0.49621
 Alpha virt. eigenvalues --    0.20631   0.20657   0.30864   0.30889   0.80908
 Alpha virt. eigenvalues --    0.80933   0.84022   0.84047   0.87100   0.87130
 Alpha virt. eigenvalues --    1.17773   1.17798   1.22238   1.22264   2.57813

 Mulliken charges:
               1
     1  O   -0.737789
     2  H    0.368571
     3  H    0.369218
     4  O   -0.737755
     5  H    0.368412
     6  H    0.369343
 Sum of Mulliken charges =   0.00000

 Dipole moment (field-independent basis, Debye):
    X=             -0.6828    Y=             -0.0906    Z=              0.0000  Tot=              0.6887
 Quadrupole moment (field-independent basis, Debye-Ang):
   XX=             -8.1769   YY=             23.2798   ZZ=            -14.9870
   XY=             -1.8569   XZ=              0.0000   YZ=              0.0000

 \MP4DQ=-33.8906591\MP4SDQ=-33.8926892\CCSD=-33.8937465\CCSD(T)=-33.896
 Normal termination of Gaussian 16 at Sun Dec 10 07:08:40 2023.
