 Gaussian 16, Revision A.03,
 Gaussian 16:  ES64L-G16RevA.03 25-Dec-2016

 ------------------
 #p CCSD(T)/CEP-31G
 ------------------

 ------------
 H2O_H2O_1443
 ------------
 Symbolic Z-matrix:
 Charge =  0 Multiplicity = 1

                         Standard orientation:
 ---------------------------------------------------------------------
 Center     Atomic      Atomic             Coordinates (Angstroms)
 Number     Number       Type             X           Y           Z
 ---------------------------------------------------------------------
      1          8           0        0.052868   -1.523334    0.000000
      2          1           0       -0.748364   -2.092133    0.000000
      3          1           0        0.850771   -2.096794    0.000000
      4          8           0        0.052868    1.593540    0.000000
      5          1           0       -0.166015    2.551453    0.000000
      6          1           0       -0.782284    1.075828    0.000000
 ---------------------------------------------------------------------

 SCF Done:  E(RHF) =  -33.6498048202     A.U. after   11 cycles
 E2 =    -0.2291406684D+00 EUMP2 =    -0.33878945488633D+02
 CCSD(T)
 CCSD(T)= -0.33896078944D+02

 The electronic state is 1-A'.
 Alpha  occ. eigenvalues --   -1.35267  -1.32950  -0.70909  -0.68521  -0.54954
 Alpha  occ. eigenvalues --   -0.52495  -0.49823  -0.47505
 Alpha virt. eigenvalues --    0.19639   0.23933   0.30609   0.33025   0.76101
 Alpha virt. eigenvalues --    0.79009   0.84888   0.85990   0.88943   1.10375
 Alpha virt. eigenvalues --    1.17464   1.21059   1.22214   1.26782   2.56670

 Mulliken charges:
               1
     1  O   -0.737532
     2  H    0.359739
     3  H    0.378454
     4  O   -0.727305
     5  H    0.348152
     6  H    0.378491
 Sum of Mulliken charges =   0.00000

 Dipole moment (field-independent basis, Debye):
    X=             -2.3640    Y=             -1.7572    Z=              0.0000  Tot=              2.9455
 Quadrupole moment (field-independent basis, Debye-Ang):
   XX=             -9.8440   YY=              0.5727   ZZ=            -14.9911
   XY=             -3.4489   XZ=              0.0000   YZ=              0.0000

 \MP4DQ=-33.8903146\MP4SDQ=-33.8924108\CCSD=-33.8934528\CCSD(T)=-33.896
 Normal termination of Gaussian 16 at Sun Dec 10 06:51:43 2023.
