 Gaussian 16, Revision A.03,
 Gaussian 16:  ES64L-G16RevA.03 25-Dec-2016

 ------------------
 #p CCSD(T)/CEP-31G
 ------------------

 ---------
 H2O_H2O_0
 ---------
 Symbolic Z-matrix:
 Charge =  0 Multiplicity = 1

                         Standard orientation:
 ---------------------------------------------------------------------
 Center     Atomic      Atomic             Coordinates (Angstroms)
 Number     Number       Type             X           Y           Z
 ---------------------------------------------------------------------
      1          8           0        0.000000   -0.000000    0.803599
      2          1           0        0.000000    0.799571    1.374731
      3          1           0       -0.000000   -0.799571    1.374731
      4          8           0        0.000000   -0.000000   -0.803599
      5          1           0       -0.000000   -0.799571   -1.374731
      6          1           0        0.000000    0.799571   -1.374731
 ---------------------------------------------------------------------

 SCF Done:  E(RHF) =  -33.4538692498     A.U. after   11 cycles
 E2 =    -0.2411221865D+00 EUMP2 =    -0.33694991436333D+02
 CCSD(T)
 CCSD(T)= -0.33710991206D+02

 The electronic state is 1-AG.
 Alpha  occ. eigenvalues --   -1.38199  -1.28777  -0.71218  -0.68301  -0.65344
 Alpha  occ. eigenvalues --   -0.52719  -0.42321  -0.29114
 Alpha virt. eigenvalues --    0.20999   0.29234   0.31186   0.33684   0.79893
 Alpha virt. eigenvalues --    0.82219   0.87010   0.88546   1.03225   1.18446
 Alpha virt. eigenvalues --    1.20349   1.25390   1.27674   1.41679   2.53053

 Mulliken charges:
               1
     1  O   -0.680532
     2  H    0.340266
     3  H    0.340266
     4  O   -0.680532
     5  H    0.340266
     6  H    0.340266
 Sum of Mulliken charges =  -0.00000

 Dipole moment (field-independent basis, Debye):
    X=             -0.0000    Y=              0.0000    Z=              0.0000  Tot=              0.0000
 Quadrupole moment (field-independent basis, Debye-Ang):
   XX=            -15.0254   YY=             -8.6445   ZZ=             -8.5228
   XY=              0.0000   XZ=              0.0000   YZ=             -0.0000

 .7038332\MP4SDQ=-33.706818\CCSD=-33.7071857\CCSD(T)=-33.7109912\RMSD=1
 Normal termination of Gaussian 16 at Sun Dec 10 06:24:44 2023.
