 Gaussian 16, Revision A.03,
 Gaussian 16:  ES64L-G16RevA.03 25-Dec-2016

 ------------------
 #p CCSD(T)/CEP-31G
 ------------------

 ------------
 H2O_H2O_2070
 ------------
 Symbolic Z-matrix:
 Charge =  0 Multiplicity = 1

                         Standard orientation:
 ---------------------------------------------------------------------
 Center     Atomic      Atomic             Coordinates (Angstroms)
 Number     Number       Type             X           Y           Z
 ---------------------------------------------------------------------
      1          8           0        0.055273   -1.848033    0.000000
      2          1           0       -0.745730   -2.417154    0.000000
      3          1           0        0.853407   -2.421172    0.000000
      4          8           0        0.055273    1.932418    0.000000
      5          1           0       -0.287141    2.853427    0.000000
      6          1           0       -0.704908    1.309819    0.000000
 ---------------------------------------------------------------------

 SCF Done:  E(RHF) =  -33.6519303238     A.U. after   11 cycles
 E2 =    -0.2286357917D+00 EUMP2 =    -0.33880566115544D+02
 CCSD(T)
 CCSD(T)= -0.33897579092D+02

 The electronic state is 1-A'.
 Alpha  occ. eigenvalues --   -1.35603  -1.33698  -0.71241  -0.69259  -0.55345
 Alpha  occ. eigenvalues --   -0.53399  -0.50175  -0.48276
 Alpha virt. eigenvalues --    0.19586   0.22683   0.30321   0.32453   0.78387
 Alpha virt. eigenvalues --    0.80074   0.82555   0.85882   0.86589   0.95831
 Alpha virt. eigenvalues --    1.17276   1.19719   1.21673   1.25046   2.56271

 Mulliken charges:
               1
     1  O   -0.741312
     2  H    0.365349
     3  H    0.376695
     4  O   -0.738649
     5  H    0.357251
     6  H    0.380666
 Sum of Mulliken charges =   0.00000

 Dipole moment (field-independent basis, Debye):
    X=             -2.5170    Y=             -2.0579    Z=              0.0000  Tot=              3.2512
 Quadrupole moment (field-independent basis, Debye-Ang):
   XX=            -10.0077   YY=              2.0896   ZZ=            -14.9909
   XY=             -4.6682   XZ=              0.0000   YZ=              0.0000

 2\MP4DQ=-33.8919047\MP4SDQ=-33.8939546\CCSD=-33.894997\CCSD(T)=-33.897
 Normal termination of Gaussian 16 at Sun Dec 10 07:04:39 2023.
