 Gaussian 16, Revision A.03,
 Gaussian 16:  ES64L-G16RevA.03 25-Dec-2016

 ------------------
 #p CCSD(T)/CEP-31G
 ------------------

 ------------
 H2O_H2O_3910
 ------------
 Symbolic Z-matrix:
 Charge =  0 Multiplicity = 1

                         Standard orientation:
 ---------------------------------------------------------------------
 Center     Atomic      Atomic             Coordinates (Angstroms)
 Number     Number       Type             X           Y           Z
 ---------------------------------------------------------------------
      1          8           0        0.034781   -2.864980    0.000000
      2          1           0       -0.765384   -3.435280    0.000000
      3          1           0        0.833757   -3.436944    0.000000
      4          8           0        0.034781    2.888513    0.000000
      5          1           0        0.322418    3.828071    0.000000
      6          1           0       -0.947280    2.855895    0.000000
 ---------------------------------------------------------------------

 SCF Done:  E(RHF) =  -33.6506292838     A.U. after   11 cycles
 E2 =    -0.2284491279D+00 EUMP2 =    -0.33879078411678D+02
 CCSD(T)
 CCSD(T)= -0.33896112127D+02

 The electronic state is 1-A'.
 Alpha  occ. eigenvalues --   -1.35061  -1.34846  -0.70689  -0.70468  -0.54731
 Alpha  occ. eigenvalues --   -0.54516  -0.49615  -0.49401
 Alpha virt. eigenvalues --    0.20646   0.20864   0.30879   0.31089   0.80938
 Alpha virt. eigenvalues --    0.81149   0.84063   0.84300   0.87142   0.87399
 Alpha virt. eigenvalues --    1.17791   1.18004   1.22259   1.22472   2.57837

 Mulliken charges:
               1
     1  O   -0.737028
     2  H    0.367341
     3  H    0.369687
     4  O   -0.736683
     5  H    0.366573
     6  H    0.370110
 Sum of Mulliken charges =   0.00000

 Dipole moment (field-independent basis, Debye):
    X=             -1.6036    Y=             -0.5522    Z=              0.0000  Tot=              1.6960
 Quadrupole moment (field-independent basis, Debye-Ang):
   XX=             -8.8254   YY=             16.0348   ZZ=            -14.9870
   XY=             -3.8086   XZ=              0.0000   YZ=              0.0000

 MP4DQ=-33.8904589\MP4SDQ=-33.8924898\CCSD=-33.893547\CCSD(T)=-33.89611
 Normal termination of Gaussian 16 at Sun Dec 10 06:50:26 2023.
