 Gaussian 16, Revision A.03,
 Gaussian 16:  ES64L-G16RevA.03 25-Dec-2016

 ------------------
 #p CCSD(T)/CEP-31G
 ------------------

 ------------
 H2O_H2O_1262
 ------------
 Symbolic Z-matrix:
 Charge =  0 Multiplicity = 1

                         Standard orientation:
 ---------------------------------------------------------------------
 Center     Atomic      Atomic             Coordinates (Angstroms)
 Number     Number       Type             X           Y           Z
 ---------------------------------------------------------------------
      1          8           0        0.040425   -1.450326    0.000000
      2          1           0       -0.760498   -2.019562    0.000000
      3          1           0        0.838640   -2.023352    0.000000
      4          8           0        0.040425    1.483591    0.000000
      5          1           0        0.204252    2.452438    0.000000
      6          1           0       -0.929189    1.324357    0.000000
 ---------------------------------------------------------------------

 SCF Done:  E(RHF) =  -33.6439952383     A.U. after   11 cycles
 E2 =    -0.2293654652D+00 EUMP2 =    -0.33873360703491D+02
 CCSD(T)
 CCSD(T)= -0.33890664219D+02

 The electronic state is 1-A'.
 Alpha  occ. eigenvalues --   -1.34092  -1.32914  -0.69719  -0.68495  -0.54160
 Alpha  occ. eigenvalues --   -0.51504  -0.48626  -0.47345
 Alpha virt. eigenvalues --    0.20473   0.23611   0.31582   0.32567   0.77936
 Alpha virt. eigenvalues --    0.79279   0.83642   0.86085   0.92978   1.13997
 Alpha virt. eigenvalues --    1.18499   1.22023   1.23184   1.24995   2.59840

 Mulliken charges:
               1
     1  O   -0.722258
     2  H    0.352535
     3  H    0.368888
     4  O   -0.710499
     5  H    0.347074
     6  H    0.364260
 Sum of Mulliken charges =  -0.00000

 Dipole moment (field-independent basis, Debye):
    X=             -1.7921    Y=             -0.8303    Z=              0.0000  Tot=              1.9751
 Quadrupole moment (field-independent basis, Debye-Ang):
   XX=             -9.1582   YY=              1.6299   ZZ=            -14.9871
   XY=             -2.0291   XZ=              0.0000   YZ=              0.0000

 \MP4DQ=-33.8848513\MP4SDQ=-33.8869583\CCSD=-33.888023\CCSD(T)=-33.8906
 Normal termination of Gaussian 16 at Sun Dec 10 06:48:21 2023.
