 Gaussian 16, Revision A.03,
 Gaussian 16:  ES64L-G16RevA.03 25-Dec-2016

 ------------------
 #p CCSD(T)/CEP-31G
 ------------------

 ------------
 H2O_H2O_1313
 ------------
 Symbolic Z-matrix:
 Charge =  0 Multiplicity = 1

                         Standard orientation:
 ---------------------------------------------------------------------
 Center     Atomic      Atomic             Coordinates (Angstroms)
 Number     Number       Type             X           Y           Z
 ---------------------------------------------------------------------
      1          8           0        0.042988   -1.473967    0.000000
      2          1           0       -0.757994   -2.043118    0.000000
      3          1           0        0.841143   -2.047076    0.000000
      4          8           0        0.042988    1.512666    0.000000
      5          1           0        0.143202    2.490144    0.000000
      6          1           0       -0.914159    1.290458    0.000000
 ---------------------------------------------------------------------

 SCF Done:  E(RHF) =  -33.6451773410     A.U. after   11 cycles
 E2 =    -0.2293072361D+00 EUMP2 =    -0.33874484577118D+02
 CCSD(T)
 CCSD(T)= -0.33891755978D+02

 The electronic state is 1-A'.
 Alpha  occ. eigenvalues --   -1.34295  -1.32963  -0.69925  -0.68539  -0.54221
 Alpha  occ. eigenvalues --   -0.51807  -0.48825  -0.47427
 Alpha virt. eigenvalues --    0.20333   0.23593   0.31415   0.32578   0.77185
 Alpha virt. eigenvalues --    0.79294   0.84117   0.85751   0.91962   1.13449
 Alpha virt. eigenvalues --    1.18321   1.21868   1.22974   1.25091   2.60364

 Mulliken charges:
               1
     1  O   -0.724740
     2  H    0.353798
     3  H    0.370421
     4  O   -0.713265
     5  H    0.347303
     6  H    0.366483
 Sum of Mulliken charges =  -0.00000

 Dipole moment (field-independent basis, Debye):
    X=             -1.9106    Y=             -0.9665    Z=              0.0000  Tot=              2.1411
 Quadrupole moment (field-independent basis, Debye-Ang):
   XX=             -9.2819   YY=              1.6554   ZZ=            -14.9874
   XY=             -2.2747   XZ=              0.0000   YZ=              0.0000

 MP4DQ=-33.8859561\MP4SDQ=-33.8880605\CCSD=-33.8891202\CCSD(T)=-33.8917
 Normal termination of Gaussian 16 at Sun Dec 10 06:49:18 2023.
