 Gaussian 16, Revision A.03,
 Gaussian 16:  ES64L-G16RevA.03 25-Dec-2016

 ------------------
 #p CCSD(T)/CEP-31G
 ------------------

 ------------
 H2O_H2O_2383
 ------------
 Symbolic Z-matrix:
 Charge =  0 Multiplicity = 1

                         Standard orientation:
 ---------------------------------------------------------------------
 Center     Atomic      Atomic             Coordinates (Angstroms)
 Number     Number       Type             X           Y           Z
 ---------------------------------------------------------------------
      1          8           0        0.028566   -2.058435    0.000000
      2          1           0       -0.771684   -2.628615    0.000000
      3          1           0        0.827456   -2.630518    0.000000
      4          8           0        0.028566    2.073671    0.000000
      5          1           0        0.436514    2.967587    0.000000
      6          1           0       -0.949336    2.169663    0.000000
 ---------------------------------------------------------------------

 SCF Done:  E(RHF) =  -33.6483077363     A.U. after   11 cycles
 E2 =    -0.2286366871D+00 EUMP2 =    -0.33876944423355D+02
 CCSD(T)
 CCSD(T)= -0.33894047370D+02

 The electronic state is 1-A'.
 Alpha  occ. eigenvalues --   -1.34467  -1.34191  -0.70090  -0.69800  -0.54061
 Alpha  occ. eigenvalues --   -0.53650  -0.48989  -0.48712
 Alpha virt. eigenvalues --    0.20903   0.21591   0.31347   0.31603   0.80639
 Alpha virt. eigenvalues --    0.81302   0.82088   0.86564   0.88196   0.91529
 Alpha virt. eigenvalues --    1.18291   1.18569   1.22786   1.23067   2.58248

 Mulliken charges:
               1
     1  O   -0.729123
     2  H    0.362196
     3  H    0.366968
     4  O   -0.728024
     5  H    0.360881
     6  H    0.367102
 Sum of Mulliken charges =  -0.00000

 Dipole moment (field-independent basis, Debye):
    X=             -1.3063    Y=             -0.3662    Z=              0.0000  Tot=              1.3567
 Quadrupole moment (field-independent basis, Debye-Ang):
   XX=             -8.5986   YY=              8.7354   ZZ=            -14.9851
   XY=             -2.0152   XZ=              0.0000   YZ=              0.0000

 P4DQ=-33.8883691\MP4SDQ=-33.8904111\CCSD=-33.8914688\CCSD(T)=-33.89404
 Normal termination of Gaussian 16 at Sun Dec 10 07:10:17 2023.
