 Gaussian 16, Revision A.03,
 Gaussian 16:  ES64L-G16RevA.03 25-Dec-2016

 ------------------
 #p CCSD(T)/CEP-31G
 ------------------

 ------------
 H2O_H2O_4016
 ------------
 Symbolic Z-matrix:
 Charge =  0 Multiplicity = 1

                         Standard orientation:
 ---------------------------------------------------------------------
 Center     Atomic      Atomic             Coordinates (Angstroms)
 Number     Number       Type             X           Y           Z
 ---------------------------------------------------------------------
      1          8           0        0.049503   -2.900004    0.000000
      2          1           0       -0.750898   -3.469973    0.000000
      3          1           0        0.848243   -3.472298    0.000000
      4          8           0        0.049503    2.956974    0.000000
      5          1           0       -0.043904    3.935127    0.000000
      6          1           0       -0.845488    2.551392    0.000000
 ---------------------------------------------------------------------

 SCF Done:  E(RHF) =  -33.6512717080     A.U. after   11 cycles
 E2 =    -0.2284190079D+00 EUMP2 =    -0.33879690715891D+02
 CCSD(T)
 CCSD(T)= -0.33896705824D+02

 The electronic state is 1-A'.
 Alpha  occ. eigenvalues --   -1.35345  -1.34845  -0.70976  -0.70463  -0.55051
 Alpha  occ. eigenvalues --   -0.54547  -0.49909  -0.49409
 Alpha virt. eigenvalues --    0.20397   0.20910   0.30635   0.31133   0.80644
 Alpha virt. eigenvalues --    0.81136   0.83714   0.84217   0.86810   0.87379
 Alpha virt. eigenvalues --    1.17535   1.18031   1.21997   1.22499   2.57564

 Mulliken charges:
               1
     1  O   -0.739310
     2  H    0.368102
     3  H    0.371208
     4  O   -0.738830
     5  H    0.366607
     6  H    0.372223
 Sum of Mulliken charges =  -0.00000

 Dipole moment (field-independent basis, Debye):
    X=             -2.2829    Y=             -1.3360    Z=              0.0000  Tot=              2.6451
 Quadrupole moment (field-independent basis, Debye-Ang):
   XX=             -9.6286   YY=             12.6539   ZZ=            -14.9880
   XY=             -6.0711   XZ=              0.0000   YZ=              0.0000

 7\MP4DQ=-33.8910576\MP4SDQ=-33.8930868\CCSD=-33.8941427\CCSD(T)=-33.89
 Normal termination of Gaussian 16 at Sun Dec 10 06:52:23 2023.
