 Gaussian 16, Revision A.03,
 Gaussian 16:  ES64L-G16RevA.03 25-Dec-2016

 ------------------
 #p CCSD(T)/CEP-31G
 ------------------

 -----------
 H2O_H2O_267
 -----------
 Symbolic Z-matrix:
 Charge =  0 Multiplicity = 1

                         Standard orientation:
 ---------------------------------------------------------------------
 Center     Atomic      Atomic             Coordinates (Angstroms)
 Number     Number       Type             X           Y           Z
 ---------------------------------------------------------------------
      1          8           0        0.051373   -0.902216    0.000000
      2          1           0       -0.750886   -1.469566    0.000000
      3          1           0        0.848238   -1.477117    0.000000
      4          8           0        0.051373    0.965437    0.000000
      5          1           0       -0.102637    1.935894    0.000000
      6          1           0       -0.816685    0.505022    0.000000
 ---------------------------------------------------------------------

 SCF Done:  E(RHF) =  -33.5705406850     A.U. after   11 cycles
 E2 =    -0.2336604530D+00 EUMP2 =    -0.33804201138085D+02
 CCSD(T)
 CCSD(T)= -0.33821191638D+02

 The electronic state is 1-A'.
 Alpha  occ. eigenvalues --   -1.37126  -1.29772  -0.73171  -0.69266  -0.54656
 Alpha  occ. eigenvalues --   -0.51368  -0.44058  -0.43983
 Alpha virt. eigenvalues --    0.19748   0.28405   0.30440   0.34091   0.79639
 Alpha virt. eigenvalues --    0.84506   0.89831   0.95890   0.98622   1.17191
 Alpha virt. eigenvalues --    1.20389   1.25485   1.28409   1.33754   2.61045

 Mulliken charges:
               1
     1  O   -0.782233
     2  H    0.351666
     3  H    0.406306
     4  O   -0.650371
     5  H    0.315128
     6  H    0.359505
 Sum of Mulliken charges =  -0.00000

 Dipole moment (field-independent basis, Debye):
    X=             -1.9483    Y=             -1.6144    Z=              0.0000  Tot=              2.5303
 Quadrupole moment (field-independent basis, Debye-Ang):
   XX=             -9.7908   YY=             -5.9852   ZZ=            -14.9751
   XY=             -1.7675   XZ=              0.0000   YZ=              0.0000

 P4DQ=-33.8147498\MP4SDQ=-33.8172065\CCSD=-33.8180434\CCSD(T)=-33.82119
 Normal termination of Gaussian 16 at Sun Dec 10 06:29:45 2023.
