 Gaussian 16, Revision A.03,
 Gaussian 16:  ES64L-G16RevA.03 25-Dec-2016

 ------------------
 #p CCSD(T)/CEP-31G
 ------------------

 -----------
 H2O_H2O_369
 -----------
 Symbolic Z-matrix:
 Charge =  0 Multiplicity = 1

                         Standard orientation:
 ---------------------------------------------------------------------
 Center     Atomic      Atomic             Coordinates (Angstroms)
 Number     Number       Type             X           Y           Z
 ---------------------------------------------------------------------
      1          8           0        0.054265   -0.947917    0.000000
      2          1           0       -0.747993   -1.515269    0.000000
      3          1           0        0.851131   -1.522817    0.000000
      4          8           0        0.054265    1.024916    0.000000
      5          1           0       -0.225101    1.966967    0.000000
      6          1           0       -0.746270    0.455133    0.000000
 ---------------------------------------------------------------------

 SCF Done:  E(RHF) =  -33.5934398268     A.U. after   11 cycles
 E2 =    -0.2326756294D+00 EUMP2 =    -0.33826115456189D+02
 CCSD(T)
 CCSD(T)= -0.33842961606D+02

 The electronic state is 1-A'.
 Alpha  occ. eigenvalues --   -1.37179  -1.29988  -0.73284  -0.69436  -0.53216
 Alpha  occ. eigenvalues --   -0.51448  -0.47129  -0.44312
 Alpha virt. eigenvalues --    0.19445   0.28268   0.29932   0.34937   0.78632
 Alpha virt. eigenvalues --    0.84536   0.89976   0.95519   0.99501   1.15513
 Alpha virt. eigenvalues --    1.19618   1.23962   1.28482   1.32536   2.65535

 Mulliken charges:
               1
     1  O   -0.787735
     2  H    0.357927
     3  H    0.413324
     4  O   -0.666290
     5  H    0.314392
     6  H    0.368382
 Sum of Mulliken charges =  -0.00000

 Dipole moment (field-independent basis, Debye):
    X=             -2.1139    Y=             -2.0114    Z=              0.0000  Tot=              2.9180
 Quadrupole moment (field-independent basis, Debye-Ang):
   XX=             -9.9418   YY=             -5.5724   ZZ=            -14.9850
   XY=             -2.1933   XZ=              0.0000   YZ=              0.0000

 4DQ=-33.8366371\MP4SDQ=-33.8390171\CCSD=-33.8398882\CCSD(T)=-33.842961
 Normal termination of Gaussian 16 at Sun Dec 10 06:31:40 2023.
