 Gaussian 16, Revision A.03,
 Gaussian 16:  ES64L-G16RevA.03 25-Dec-2016

 ------------------
 #p CCSD(T)/CEP-31G
 ------------------

 ------------
 H2O_H2O_4537
 ------------
 Symbolic Z-matrix:
 Charge =  0 Multiplicity = 1

                         Standard orientation:
 ---------------------------------------------------------------------
 Center     Atomic      Atomic             Coordinates (Angstroms)
 Number     Number       Type             X           Y           Z
 ---------------------------------------------------------------------
      1          8           0        0.040403   -3.192036    0.000000
      2          1           0       -0.759786   -3.762301    0.000000
      3          1           0        0.839355   -3.764034    0.000000
      4          8           0        0.040403    3.225405    0.000000
      5          1           0        0.202984    4.194463    0.000000
      6          1           0       -0.929005    3.064924    0.000000
 ---------------------------------------------------------------------

 SCF Done:  E(RHF) =  -33.6510896174     A.U. after   11 cycles
 E2 =    -0.2284203436D+00 EUMP2 =    -0.33879509961037D+02
 CCSD(T)
 CCSD(T)= -0.33896530421D+02

 The electronic state is 1-A'.
 Alpha  occ. eigenvalues --   -1.35232  -1.34990  -0.70862  -0.70613  -0.54928
 Alpha  occ. eigenvalues --   -0.54685  -0.49793  -0.49551
 Alpha virt. eigenvalues --    0.20500   0.20747   0.30735   0.30975   0.80760
 Alpha virt. eigenvalues --    0.80999   0.83852   0.84091   0.86938   0.87215
 Alpha virt. eigenvalues --    1.17640   1.17880   1.22103   1.22346   2.57674

 Mulliken charges:
               1
     1  O   -0.738637
     2  H    0.368320
     3  H    0.370317
     4  O   -0.738377
     5  H    0.367567
     6  H    0.370809
 Sum of Mulliken charges =   0.00000

 Dipole moment (field-independent basis, Debye):
    X=             -1.8651    Y=             -0.7801    Z=              0.0000  Tot=              2.0217
 Quadrupole moment (field-independent basis, Debye-Ang):
   XX=             -9.0969   YY=             17.9925   ZZ=            -14.9875
   XY=             -5.1638   XZ=              0.0000   YZ=              0.0000

 4DQ=-33.8908808\MP4SDQ=-33.8929104\CCSD=-33.893967\CCSD(T)=-33.8965304
 Normal termination of Gaussian 16 at Sun Dec 10 07:03:18 2023.
