 Gaussian 16, Revision A.03,
 Gaussian 16:  ES64L-G16RevA.03 25-Dec-2016

 ------------------
 #p CCSD(T)/CEP-31G
 ------------------

 ------------
 H2O_H2O_4679
 ------------
 Symbolic Z-matrix:
 Charge =  0 Multiplicity = 1

                         Standard orientation:
 ---------------------------------------------------------------------
 Center     Atomic      Atomic             Coordinates (Angstroms)
 Number     Number       Type             X           Y           Z
 ---------------------------------------------------------------------
      1          8           0        0.014783   -3.287826    0.000000
      2          1           0       -0.785009   -3.858649    0.000000
      3          1           0        0.814133   -3.859268    0.000000
      4          8           0        0.014783    3.291707    0.000000
      5          1           0        0.639583    4.050081    0.000000
      6          1           0       -0.905231    3.636790    0.000000
 ---------------------------------------------------------------------

 SCF Done:  E(RHF) =  -33.6507838456     A.U. after   11 cycles
 E2 =    -0.2284312275D+00 EUMP2 =    -0.33879215073107D+02
 CCSD(T)
 CCSD(T)= -0.33896244374D+02

 The electronic state is 1-A'.
 Alpha  occ. eigenvalues --   -1.35063  -1.35036  -0.70691  -0.70664  -0.54742
 Alpha  occ. eigenvalues --   -0.54715  -0.49619  -0.49593
 Alpha virt. eigenvalues --    0.20653   0.20680   0.30885   0.30911   0.80934
 Alpha virt. eigenvalues --    0.80961   0.84056   0.84082   0.87131   0.87163
 Alpha virt. eigenvalues --    1.17795   1.17822   1.22261   1.22288   2.57837

 Mulliken charges:
               1
     1  O   -0.737534
     2  H    0.368421
     3  H    0.369113
     4  O   -0.737497
     5  H    0.368254
     6  H    0.369243
 Sum of Mulliken charges =   0.00000

 Dipole moment (field-independent basis, Debye):
    X=             -0.6826    Y=             -0.0907    Z=              0.0000  Tot=              0.6886
 Quadrupole moment (field-independent basis, Debye-Ang):
   XX=             -8.1780   YY=             22.4428   ZZ=            -14.9870
   XY=             -1.8030   XZ=              0.0000   YZ=              0.0000

 P4DQ=-33.8905924\MP4SDQ=-33.8926227\CCSD=-33.8936801\CCSD(T)=-33.89624
 Normal termination of Gaussian 16 at Sun Dec 10 07:05:54 2023.
