 Gaussian 16, Revision A.03,
 Gaussian 16:  ES64L-G16RevA.03 25-Dec-2016

 ------------------
 #p CCSD(T)/CEP-31G
 ------------------

 ------------
 H2O_H2O_4304
 ------------
 Symbolic Z-matrix:
 Charge =  0 Multiplicity = 1

                         Standard orientation:
 ---------------------------------------------------------------------
 Center     Atomic      Atomic             Coordinates (Angstroms)
 Number     Number       Type             X           Y           Z
 ---------------------------------------------------------------------
      1          8           0        0.014783   -3.088388    0.000000
      2          1           0       -0.785023   -3.659191    0.000000
      3          1           0        0.814119   -3.659849    0.000000
      4          8           0        0.014783    3.092268    0.000000
      5          1           0        0.639602    3.850626    0.000000
      6          1           0       -0.905222    3.437374    0.000000
 ---------------------------------------------------------------------

 SCF Done:  E(RHF) =  -33.6505688694     A.U. after   11 cycles
 E2 =    -0.2284441380D+00 EUMP2 =    -0.33879013007340D+02
 CCSD(T)
 CCSD(T)= -0.33896048442D+02

 The electronic state is 1-A'.
 Alpha  occ. eigenvalues --   -1.34991  -1.34960  -0.70618  -0.70587  -0.54658
 Alpha  occ. eigenvalues --   -0.54627  -0.49544  -0.49513
 Alpha virt. eigenvalues --    0.20713   0.20744   0.30944   0.30974   0.81010
 Alpha virt. eigenvalues --    0.81040   0.84148   0.84189   0.87218   0.87255
 Alpha virt. eigenvalues --    1.17859   1.17889   1.22327   1.22357   2.57906

 Mulliken charges:
               1
     1  O   -0.736783
     2  H    0.367979
     3  H    0.368804
     4  O   -0.736733
     5  H    0.367788
     6  H    0.368945
 Sum of Mulliken charges =  -0.00000

 Dipole moment (field-independent basis, Debye):
    X=             -0.6822    Y=             -0.0908    Z=              0.0000  Tot=              0.6882
 Quadrupole moment (field-independent basis, Debye-Ang):
   XX=             -8.1812   YY=             20.3475   ZZ=            -14.9867
   XY=             -1.6687   XZ=              0.0000   YZ=              0.0000

 DQ=-33.8903948\MP4SDQ=-33.8924257\CCSD=-33.8934834\CCSD(T)=-33.8960484
 Normal termination of Gaussian 16 at Sun Dec 10 06:57:32 2023.
