 Gaussian 16, Revision A.03,
 Gaussian 16:  ES64L-G16RevA.03 25-Dec-2016

 ------------------
 #p CCSD(T)/CEP-31G
 ------------------

 ------------
 H2O_H2O_2548
 ------------
 Symbolic Z-matrix:
 Charge =  0 Multiplicity = 1

                         Standard orientation:
 ---------------------------------------------------------------------
 Center     Atomic      Atomic             Coordinates (Angstroms)
 Number     Number       Type             X           Y           Z
 ---------------------------------------------------------------------
      1          8           0        0.057113   -2.088649    0.000000
      2          1           0       -0.743764   -2.657948    0.000000
      3          1           0        0.855374   -2.661611    0.000000
      4          8           0        0.057113    2.195143    0.000000
      5          1           0       -0.458588    3.031541    0.000000
      6          1           0       -0.566831    1.436065    0.000000
 ---------------------------------------------------------------------

 SCF Done:  E(RHF) =  -33.6528930130     A.U. after   11 cycles
 E2 =    -0.2284533746D+00 EUMP2 =    -0.33881346387507D+02
 CCSD(T)
 CCSD(T)= -0.33898318200D+02

 The electronic state is 1-A'.
 Alpha  occ. eigenvalues --   -1.35893  -1.34060  -0.71531  -0.69641  -0.55693
 Alpha  occ. eigenvalues --   -0.53807  -0.50479  -0.48646
 Alpha virt. eigenvalues --    0.19579   0.22114   0.30134   0.32120   0.80054
 Alpha virt. eigenvalues --    0.81827   0.81892   0.85445   0.86070   0.89451
 Alpha virt. eigenvalues --    1.17050   1.19103   1.21445   1.24285   2.56837

 Mulliken charges:
               1
     1  O   -0.744676
     2  H    0.368552
     3  H    0.376542
     4  O   -0.743967
     5  H    0.361632
     6  H    0.381917
 Sum of Mulliken charges =  -0.00000

 Dipole moment (field-independent basis, Debye):
    X=             -2.6159    Y=             -2.5582    Z=              0.0000  Tot=              3.6589
 Quadrupole moment (field-independent basis, Debye-Ang):
   XX=            -10.1462   YY=              1.6936   ZZ=            -14.9916
   XY=             -5.8715   XZ=              0.0000   YZ=              0.0000

 \MP4DQ=-33.8926695\MP4SDQ=-33.8947047\CCSD=-33.8957503\CCSD(T)=-33.898
 Normal termination of Gaussian 16 at Sun Dec 10 06:25:37 2023.
