 Gaussian 16, Revision A.03,
 Gaussian 16:  ES64L-G16RevA.03 25-Dec-2016

 ------------------
 #p CCSD(T)/CEP-31G
 ------------------

 -----------
 H2O_H2O_521
 -----------
 Symbolic Z-matrix:
 Charge =  0 Multiplicity = 1

                         Standard orientation:
 ---------------------------------------------------------------------
 Center     Atomic      Atomic             Coordinates (Angstroms)
 Number     Number       Type             X           Y           Z
 ---------------------------------------------------------------------
      1          8           0        0.056223   -1.019853    0.000000
      2          1           0       -0.745924   -1.587361    0.000000
      3          1           0        0.853202   -1.594598    0.000000
      4          8           0        0.056223    1.111287    0.000000
      5          1           0       -0.343889    2.008737    0.000000
      6          1           0       -0.662961    0.441750    0.000000
 ---------------------------------------------------------------------

 SCF Done:  E(RHF) =  -33.6189874007     A.U. after   11 cycles
 E2 =    -0.2315599463D+00 EUMP2 =    -0.33850547347032D+02
 CCSD(T)
 CCSD(T)= -0.33867230538D+02

 The electronic state is 1-A'.
 Alpha  occ. eigenvalues --   -1.37291  -1.30238  -0.73221  -0.69366  -0.52825
 Alpha  occ. eigenvalues --   -0.51674  -0.49798  -0.44667
 Alpha virt. eigenvalues --    0.19106   0.27953   0.29447   0.36108   0.77474
 Alpha virt. eigenvalues --    0.84621   0.89849   0.94467   0.98831   1.14137
 Alpha virt. eigenvalues --    1.18906   1.21537   1.27702   1.31562   2.73184

 Mulliken charges:
               1
     1  O   -0.787386
     2  H    0.364261
     3  H    0.418138
     4  O   -0.691493
     5  H    0.317945
     6  H    0.378535
 Sum of Mulliken charges =   0.00000

 Dipole moment (field-independent basis, Debye):
    X=             -2.2657    Y=             -2.4458    Z=              0.0000  Tot=              3.3340
 Quadrupole moment (field-independent basis, Debye-Ang):
   XX=            -10.0502   YY=             -5.1103   ZZ=            -14.9970
   XY=             -2.7244   XZ=              0.0000   YZ=              0.0000

 \MP4DQ=-33.8610463\MP4SDQ=-33.863348\CCSD=-33.8642473\CCSD(T)=-33.8672
 Normal termination of Gaussian 16 at Sun Dec 10 06:34:29 2023.
