 Gaussian 16, Revision A.03,
 Gaussian 16:  ES64L-G16RevA.03 25-Dec-2016

 ------------------
 #p CCSD(T)/CEP-31G
 ------------------

 -----------
 H2O_H2O_377
 -----------
 Symbolic Z-matrix:
 Charge =  0 Multiplicity = 1

                         Standard orientation:
 ---------------------------------------------------------------------
 Center     Atomic      Atomic             Coordinates (Angstroms)
 Number     Number       Type             X           Y           Z
 ---------------------------------------------------------------------
      1          8           0        0.007455   -1.002512    0.000000
      2          1           0       -0.792481   -1.573132    0.000000
      3          1           0        0.806661   -1.574155    0.000000
      4          8           0        0.007455    1.003480    0.000000
      5          1           0        0.726067    1.673631    0.000000
      6          1           0       -0.859528    1.465915    0.000000
 ---------------------------------------------------------------------

 SCF Done:  E(RHF) =  -33.5908882493     A.U. after   11 cycles
 E2 =    -0.2324997959D+00 EUMP2 =    -0.33823388045219D+02
 CCSD(T)
 CCSD(T)= -0.33840519204D+02

 The electronic state is 1-A'.
 Alpha  occ. eigenvalues --   -1.33226  -1.30369  -0.68303  -0.66326  -0.59002
 Alpha  occ. eigenvalues --   -0.48182  -0.43974  -0.40906
 Alpha virt. eigenvalues --    0.21548   0.26117   0.32810   0.33461   0.78403
 Alpha virt. eigenvalues --    0.80910   0.90250   0.94759   1.04571   1.20214
 Alpha virt. eigenvalues --    1.21611   1.22855   1.25151   1.27623   2.48464

 Mulliken charges:
               1
     1  O   -0.699184
     2  H    0.344971
     3  H    0.353516
     4  O   -0.696553
     5  H    0.350354
     6  H    0.346896
 Sum of Mulliken charges =   0.00000

 Dipole moment (field-independent basis, Debye):
    X=             -0.2885    Y=             -0.0229    Z=              0.0000  Tot=              0.2895
 Quadrupole moment (field-independent basis, Debye-Ang):
   XX=             -8.3752   YY=             -3.8245   ZZ=            -15.0275
   XY=             -0.1629   XZ=              0.0000   YZ=              0.0000

 DQ=-33.8342883\MP4SDQ=-33.8365614\CCSD=-33.8375439\CCSD(T)=-33.8405192
 Normal termination of Gaussian 16 at Sun Dec 10 06:31:49 2023.
