 Gaussian 16, Revision A.03,
 Gaussian 16:  ES64L-G16RevA.03 25-Dec-2016

 ------------------
 #p CCSD(T)/CEP-31G
 ------------------

 ------------
 H2O_H2O_1393
 ------------
 Symbolic Z-matrix:
 Charge =  0 Multiplicity = 1

                         Standard orientation:
 ---------------------------------------------------------------------
 Center     Atomic      Atomic             Coordinates (Angstroms)
 Number     Number       Type             X           Y           Z
 ---------------------------------------------------------------------
      1          8           0        0.052870   -1.496745    0.000000
      2          1           0       -0.748391   -2.065504    0.000000
      3          1           0        0.850744   -2.070246    0.000000
      4          8           0        0.052870    1.566946    0.000000
      5          1           0       -0.165964    2.524869    0.000000
      6          1           0       -0.782309    1.049275    0.000000
 ---------------------------------------------------------------------

 SCF Done:  E(RHF) =  -33.6495973408     A.U. after   11 cycles
 E2 =    -0.2292015938D+00 EUMP2 =    -0.33878798934569D+02
 CCSD(T)
 CCSD(T)= -0.33895943159D+02

 The electronic state is 1-A'.
 Alpha  occ. eigenvalues --   -1.35259  -1.32868  -0.70903  -0.68449  -0.54947
 Alpha  occ. eigenvalues --   -0.52395  -0.49816  -0.47420
 Alpha virt. eigenvalues --    0.19638   0.24076   0.30621   0.33096   0.76417
 Alpha virt. eigenvalues --    0.78868   0.85156   0.86035   0.89253   1.11492
 Alpha virt. eigenvalues --    1.17468   1.21136   1.22262   1.27045   2.57037

 Mulliken charges:
               1
     1  O   -0.737821
     2  H    0.359362
     3  H    0.378980
     4  O   -0.726245
     5  H    0.347254
     6  H    0.378470
 Sum of Mulliken charges =  -0.00000

 Dipole moment (field-independent basis, Debye):
    X=             -2.3585    Y=             -1.7606    Z=              0.0000  Tot=              2.9431
 Quadrupole moment (field-independent basis, Debye-Ang):
   XX=             -9.8443   YY=              0.3514   ZZ=            -14.9914
   XY=             -3.3866   XZ=              0.0000   YZ=              0.0000

 MP4DQ=-33.8901677\MP4SDQ=-33.8922689\CCSD=-33.8933112\CCSD(T)=-33.8959
 Normal termination of Gaussian 16 at Sun Dec 10 06:50:47 2023.
