 Gaussian 16, Revision A.03,
 Gaussian 16:  ES64L-G16RevA.03 25-Dec-2016

 ------------------
 #p CCSD(T)/CEP-31G
 ------------------

 ------------
 H2O_H2O_4445
 ------------
 Symbolic Z-matrix:
 Charge =  0 Multiplicity = 1

                         Standard orientation:
 ---------------------------------------------------------------------
 Center     Atomic      Atomic             Coordinates (Angstroms)
 Number     Number       Type             X           Y           Z
 ---------------------------------------------------------------------
      1          8           0        0.055231   -3.111086    0.000000
      2          1           0       -0.745199   -3.681014    0.000000
      3          1           0        0.853941   -3.683422    0.000000
      4          8           0        0.055231    3.195583    0.000000
      5          1           0       -0.288110    4.116247    0.000000
      6          1           0       -0.704324    2.572219    0.000000
 ---------------------------------------------------------------------

 SCF Done:  E(RHF) =  -33.6517518180     A.U. after   11 cycles
 E2 =    -0.2283882179D+00 EUMP2 =    -0.33880140035935D+02
 CCSD(T)
 CCSD(T)= -0.33897141183D+02

 The electronic state is 1-A'.
 Alpha  occ. eigenvalues --   -1.35563  -1.34932  -0.71196  -0.70553  -0.55296
 Alpha  occ. eigenvalues --   -0.54658  -0.50134  -0.49503
 Alpha virt. eigenvalues --    0.20206   0.20854   0.30446   0.31085   0.80418
 Alpha virt. eigenvalues --    0.81040   0.83444   0.84082   0.86556   0.87243
 Alpha virt. eigenvalues --    1.17337   1.17965   1.21795   1.22434   2.57355

 Mulliken charges:
               1
     1  O   -0.741005
     2  H    0.369139
     3  H    0.371866
     4  O   -0.740730
     5  H    0.367457
     6  H    0.373273
 Sum of Mulliken charges =  -0.00000

 Dipole moment (field-independent basis, Debye):
    X=             -2.5489    Y=             -1.9769    Z=              0.0000  Tot=              3.2256
 Quadrupole moment (field-independent basis, Debye-Ang):
   XX=            -10.0203   YY=             10.7070   ZZ=            -14.9887
   XY=             -7.8335   XZ=              0.0000   YZ=              0.0000

 MP4DQ=-33.8914968\MP4SDQ=-33.8935246\CCSD=-33.8945798\CCSD(T)=-33.8971
 Normal termination of Gaussian 16 at Sun Dec 10 07:00:01 2023.
