 Gaussian 16, Revision A.03,
 Gaussian 16:  ES64L-G16RevA.03 25-Dec-2016

 ------------------
 #p CCSD(T)/CEP-31G
 ------------------

 -----------
 H2O_H2O_319
 -----------
 Symbolic Z-matrix:
 Charge =  0 Multiplicity = 1

                         Standard orientation:
 ---------------------------------------------------------------------
 Center     Atomic      Atomic             Coordinates (Angstroms)
 Number     Number       Type             X           Y           Z
 ---------------------------------------------------------------------
      1          8           0        0.054270   -0.921333    0.000000
      2          1           0       -0.748062   -1.488580    0.000000
      3          1           0        0.851061   -1.496336    0.000000
      4          8           0        0.054270    0.998317    0.000000
      5          1           0       -0.224973    1.940405    0.000000
      6          1           0       -0.746339    0.428639    0.000000
 ---------------------------------------------------------------------

 SCF Done:  E(RHF) =  -33.5807456722     A.U. after   11 cycles
 E2 =    -0.2331223195D+00 EUMP2 =    -0.33813867991715D+02
 CCSD(T)
 CCSD(T)= -0.33830658137D+02

 The electronic state is 1-A'.
 Alpha  occ. eigenvalues --   -1.37654  -1.29745  -0.73860  -0.69733  -0.53053
 Alpha  occ. eigenvalues --   -0.51781  -0.46279  -0.44069
 Alpha virt. eigenvalues --    0.19430   0.28567   0.29821   0.34931   0.78859
 Alpha virt. eigenvalues --    0.84384   0.89974   0.95423   0.99283   1.16125
 Alpha virt. eigenvalues --    1.19964   1.24374   1.29343   1.32971   2.65885

 Mulliken charges:
               1
     1  O   -0.790426
     2  H    0.357439
     3  H    0.415891
     4  O   -0.660844
     5  H    0.310634
     6  H    0.367306
 Sum of Mulliken charges =   0.00000

 Dipole moment (field-independent basis, Debye):
    X=             -2.0847    Y=             -2.0206    Z=              0.0000  Tot=              2.9032
 Quadrupole moment (field-independent basis, Debye-Ang):
   XX=             -9.9433   YY=             -5.9674   ZZ=            -14.9780
   XY=             -2.1157   XZ=              0.0000   YZ=              0.0000

 4DQ=-33.8242652\MP4SDQ=-33.8266882\CCSD=-33.8275258\CCSD(T)=-33.830658
 Normal termination of Gaussian 16 at Sun Dec 10 06:30:44 2023.
