 Gaussian 16, Revision A.03,
 Gaussian 16:  ES64L-G16RevA.03 25-Dec-2016

 ------------------
 #p CCSD(T)/CEP-31G
 ------------------

 ------------
 H2O_H2O_2034
 ------------
 Symbolic Z-matrix:
 Charge =  0 Multiplicity = 1

                         Standard orientation:
 ---------------------------------------------------------------------
 Center     Atomic      Atomic             Coordinates (Angstroms)
 Number     Number       Type             X           Y           Z
 ---------------------------------------------------------------------
      1          8           0        0.031744   -1.870162    0.000000
      2          1           0       -0.768656   -2.440131    0.000000
      3          1           0        0.830485   -2.442455    0.000000
      4          8           0        0.031744    1.889320    0.000000
      5          1           0        0.380595    2.807911    0.000000
      6          1           0       -0.950333    1.921408    0.000000
 ---------------------------------------------------------------------

 SCF Done:  E(RHF) =  -33.6474438632     A.U. after   11 cycles
 E2 =    -0.2287583044D+00 EUMP2 =    -0.33876202167686D+02
 CCSD(T)
 CCSD(T)= -0.33893338293D+02

 The electronic state is 1-A'.
 Alpha  occ. eigenvalues --   -1.34336  -1.33912  -0.69960  -0.69512  -0.53967
 Alpha  occ. eigenvalues --   -0.53226  -0.48851  -0.48420
 Alpha virt. eigenvalues --    0.20798   0.22005   0.31437   0.31827   0.77782
 Alpha virt. eigenvalues --    0.81023   0.82794   0.86033   0.89118   0.96963
 Alpha virt. eigenvalues --    1.18386   1.18871   1.22904   1.23343   2.58100

 Mulliken charges:
               1
     1  O   -0.726350
     2  H    0.359827
     3  H    0.366649
     4  O   -0.724347
     5  H    0.357715
     6  H    0.366506
 Sum of Mulliken charges =  -0.00000

 Dipole moment (field-independent basis, Debye):
    X=             -1.4449    Y=             -0.4669    Z=              0.0000  Tot=              1.5185
 Quadrupole moment (field-independent basis, Debye-Ang):
   XX=             -8.7321   YY=              6.5863   ZZ=            -14.9849
   XY=             -2.0206   XZ=              0.0000   YZ=              0.0000

 \MP4DQ=-33.8876398\MP4SDQ=-33.8896936\CCSD=-33.8907491\CCSD(T)=-33.893
 Normal termination of Gaussian 16 at Sun Dec 10 07:04:01 2023.
