 Gaussian 16, Revision A.03,
 Gaussian 16:  ES64L-G16RevA.03 25-Dec-2016

 ------------------
 #p CCSD(T)/CEP-31G
 ------------------

 -----------
 H2O_H2O_815
 -----------
 Symbolic Z-matrix:
 Charge =  0 Multiplicity = 1

                         Standard orientation:
 ---------------------------------------------------------------------
 Center     Atomic      Atomic             Coordinates (Angstroms)
 Number     Number       Type             X           Y           Z
 ---------------------------------------------------------------------
      1          8           0        0.047572   -1.201665    0.000000
      2          1           0       -0.753897   -1.770130    0.000000
      3          1           0        0.845236   -1.775458    0.000000
      4          8           0        0.047572    1.252114    0.000000
      5          1           0        0.020184    2.234334    0.000000
      6          1           0       -0.872678    0.907664    0.000000
 ---------------------------------------------------------------------

 SCF Done:  E(RHF) =  -33.6380943955     A.U. after   11 cycles
 E2 =    -0.2303081280D+00 EUMP2 =    -0.33868402523426D+02
 CCSD(T)
 CCSD(T)= -0.33885732279D+02

 The electronic state is 1-A'.
 Alpha  occ. eigenvalues --   -1.34422  -1.31901  -0.70063  -0.67819  -0.54801
 Alpha  occ. eigenvalues --   -0.49802  -0.49046  -0.46239
 Alpha virt. eigenvalues --    0.20120   0.25407   0.31352   0.33292   0.78326
 Alpha virt. eigenvalues --    0.83649   0.88609   0.90000   0.95099   1.15871
 Alpha virt. eigenvalues --    1.18940   1.22035   1.23288   1.30344   2.59560

 Mulliken charges:
               1
     1  O   -0.739609
     2  H    0.351364
     3  H    0.380492
     4  O   -0.695628
     5  H    0.339220
     6  H    0.364161
 Sum of Mulliken charges =   0.00000

 Dipole moment (field-independent basis, Debye):
    X=             -2.0246    Y=             -1.2589    Z=              0.0000  Tot=              2.3841
 Quadrupole moment (field-independent basis, Debye-Ang):
   XX=             -9.5512   YY=             -1.6362   ZZ=            -14.9940
   XY=             -2.1310   XZ=              0.0000   YZ=              0.0000

 \MP4DQ=-33.8797754\MP4SDQ=-33.881944\CCSD=-33.8829967\CCSD(T)=-33.8857
 Normal termination of Gaussian 16 at Sun Dec 10 06:39:59 2023.
