 Gaussian 16, Revision A.03,
 Gaussian 16:  ES64L-G16RevA.03 25-Dec-2016

 ------------------
 #p CCSD(T)/CEP-31G
 ------------------

 -----------
 H2O_H2O_105
 -----------
 Symbolic Z-matrix:
 Charge =  0 Multiplicity = 1

                         Standard orientation:
 ---------------------------------------------------------------------
 Center     Atomic      Atomic             Coordinates (Angstroms)
 Number     Number       Type             X           Y           Z
 ---------------------------------------------------------------------
      1          8           0        0.018364   -0.853526    0.000000
      2          1           0       -0.782260   -1.423182    0.000000
      3          1           0        0.816880   -1.426132    0.000000
      4          8           0        0.018364    0.859520    0.000000
      5          1           0        0.593389    1.656296    0.000000
      6          1           0       -0.921833    1.145064    0.000000
 ---------------------------------------------------------------------

 SCF Done:  E(RHF) =  -33.5132724569     A.U. after   11 cycles
 E2 =    -0.2370419011D+00 EUMP2 =    -0.33750314358045D+02
 CCSD(T)
 CCSD(T)= -0.33766882715D+02

 The electronic state is 1-A'.
 Alpha  occ. eigenvalues --   -1.36111  -1.29130  -0.70351  -0.66771  -0.63190
 Alpha  occ. eigenvalues --   -0.50880  -0.42678  -0.33848
 Alpha virt. eigenvalues --    0.21089   0.28107   0.31858   0.33658   0.80919
 Alpha virt. eigenvalues --    0.82049   0.89365   0.89693   1.03521   1.19781
 Alpha virt. eigenvalues --    1.21959   1.23837   1.27681   1.36627   2.50983

 Mulliken charges:
               1
     1  O   -0.703162
     2  H    0.334878
     3  H    0.364744
     4  O   -0.684874
     5  H    0.345627
     6  H    0.342787
 Sum of Mulliken charges =   0.00000

 Dipole moment (field-independent basis, Debye):
    X=             -0.6704    Y=             -0.1653    Z=              0.0000  Tot=              0.6904
 Quadrupole moment (field-independent basis, Debye-Ang):
   XX=             -8.6626   YY=             -6.9510   ZZ=            -15.0218
   XY=             -0.4201   XZ=              0.0000   YZ=              0.0000

 P4DQ=-33.7601246\MP4SDQ=-33.7628081\CCSD=-33.763473\CCSD(T)=-33.766882
 Normal termination of Gaussian 16 at Sun Dec 10 06:26:42 2023.
