 Gaussian 16, Revision A.03,
 Gaussian 16:  ES64L-G16RevA.03 25-Dec-2016

 ------------------
 #p CCSD(T)/CEP-31G
 ------------------

 ------------
 H2O_H2O_2252
 ------------
 Symbolic Z-matrix:
 Charge =  0 Multiplicity = 1

                         Standard orientation:
 ---------------------------------------------------------------------
 Center     Atomic      Atomic             Coordinates (Angstroms)
 Number     Number       Type             X           Y           Z
 ---------------------------------------------------------------------
      1          8           0        0.007455   -1.999702    0.000000
      2          1           0       -0.792299   -2.570578    0.000000
      3          1           0        0.806843   -2.571091    0.000000
      4          8           0        0.007455    2.000675    0.000000
      5          1           0        0.725853    2.671055    0.000000
      6          1           0       -0.859676    2.462834    0.000000
 ---------------------------------------------------------------------

 SCF Done:  E(RHF) =  -33.6471821020     A.U. after   11 cycles
 E2 =    -0.2286874842D+00 EUMP2 =    -0.33875869586243D+02
 CCSD(T)
 CCSD(T)= -0.33893005639D+02

 The electronic state is 1-A'.
 Alpha  occ. eigenvalues --   -1.34157  -1.34135  -0.69778  -0.69753  -0.53828
 Alpha  occ. eigenvalues --   -0.53374  -0.48682  -0.48618
 Alpha virt. eigenvalues --    0.21069   0.21679   0.31522   0.31689   0.79949
 Alpha virt. eigenvalues --    0.81390   0.82398   0.87052   0.89357   0.91911
 Alpha virt. eigenvalues --    1.18557   1.18577   1.22953   1.23200   2.58297

 Mulliken charges:
               1
     1  O   -0.725270
     2  H    0.361955
     3  H    0.363319
     4  O   -0.725179
     5  H    0.361766
     6  H    0.363408
 Sum of Mulliken charges =   0.00000

 Dipole moment (field-independent basis, Debye):
    X=             -0.3407    Y=             -0.0235    Z=              0.0000  Tot=              0.3415
 Quadrupole moment (field-independent basis, Debye-Ang):
   XX=             -8.1281   YY=              8.9520   ZZ=            -14.9841
   XY=             -0.4720   XZ=              0.0000   YZ=              0.0000

 P4DQ=-33.8873156\MP4SDQ=-33.8893623\CCSD=-33.890422\CCSD(T)=-33.893005
 Normal termination of Gaussian 16 at Sun Dec 10 07:07:56 2023.
