 Gaussian 16, Revision A.03,
 Gaussian 16:  ES64L-G16RevA.03 25-Dec-2016

 ------------------
 #p CCSD(T)/CEP-31G
 ------------------

 ------------
 H2O_H2O_3264
 ------------
 Symbolic Z-matrix:
 Charge =  0 Multiplicity = 1

                         Standard orientation:
 ---------------------------------------------------------------------
 Center     Atomic      Atomic             Coordinates (Angstroms)
 Number     Number       Type             X           Y           Z
 ---------------------------------------------------------------------
      1          8           0        0.045345   -2.507872    0.000000
      2          1           0       -0.755105   -3.077770    0.000000
      3          1           0        0.844035   -3.080235    0.000000
      4          8           0        0.045345    2.552421    0.000000
      5          1           0        0.080498    3.534394    0.000000
      6          1           0       -0.894953    2.267212    0.000000
 ---------------------------------------------------------------------

 SCF Done:  E(RHF) =  -33.6506550413     A.U. after   11 cycles
 E2 =    -0.2284676015D+00 EUMP2 =    -0.33879122642851D+02
 CCSD(T)
 CCSD(T)= -0.33896155893D+02

 The electronic state is 1-A'.
 Alpha  occ. eigenvalues --   -1.35134  -1.34603  -0.70763  -0.70214  -0.54805
 Alpha  occ. eigenvalues --   -0.54270  -0.49688  -0.49159
 Alpha virt. eigenvalues --    0.20561   0.21129   0.30809   0.31330   0.80864
 Alpha virt. eigenvalues --    0.81385   0.83742   0.84717   0.87064   0.87776
 Alpha virt. eigenvalues --    1.17720   1.18246   1.22187   1.22719   2.57762

 Mulliken charges:
               1
     1  O   -0.737190
     2  H    0.366440
     3  H    0.370752
     4  O   -0.736278
     5  H    0.364607
     6  H    0.371669
 Sum of Mulliken charges =   0.00000

 Dipole moment (field-independent basis, Debye):
    X=             -2.0860    Y=             -1.0518    Z=              0.0000  Tot=              2.3362
 Quadrupole moment (field-independent basis, Debye-Ang):
   XX=             -9.3743   YY=             10.6842   ZZ=            -14.9874
   XY=             -4.5591   XZ=              0.0000   YZ=              0.0000

 P4DQ=-33.8905024\MP4SDQ=-33.8925336\CCSD=-33.8935899\CCSD(T)=-33.89615
 Normal termination of Gaussian 16 at Sun Dec 10 06:38:37 2023.
