 Gaussian 16, Revision A.03,
 Gaussian 16:  ES64L-G16RevA.03 25-Dec-2016

 ------------------
 #p CCSD(T)/CEP-31G
 ------------------

 ------------
 H2O_H2O_1488
 ------------
 Symbolic Z-matrix:
 Charge =  0 Multiplicity = 1

                         Standard orientation:
 ---------------------------------------------------------------------
 Center     Atomic      Atomic             Coordinates (Angstroms)
 Number     Number       Type             X           Y           Z
 ---------------------------------------------------------------------
      1          8           0        0.042985   -1.567031    0.000000
      2          1           0       -0.757914   -2.136298    0.000000
      3          1           0        0.841223   -2.140025    0.000000
      4          8           0        0.042985    1.605742    0.000000
      5          1           0        0.143057    2.583236    0.000000
      6          1           0       -0.914129    1.383396    0.000000
 ---------------------------------------------------------------------

 SCF Done:  E(RHF) =  -33.6464774279     A.U. after   11 cycles
 E2 =    -0.2291138916D+00 EUMP2 =    -0.33875591319475D+02
 CCSD(T)
 CCSD(T)= -0.33892808424D+02

 The electronic state is 1-A'.
 Alpha  occ. eigenvalues --   -1.34421  -1.33223  -0.70051  -0.68791  -0.54192
 Alpha  occ. eigenvalues --   -0.52325  -0.48944  -0.47716
 Alpha virt. eigenvalues --    0.20319   0.23181   0.31308   0.32423   0.75701
 Alpha virt. eigenvalues --    0.79728   0.84630   0.84796   0.90697   1.10054
 Alpha virt. eigenvalues --    1.18232   1.20876   1.22820   1.24401   2.58659

 Mulliken charges:
               1
     1  O   -0.725694
     2  H    0.355761
     3  H    0.370049
     4  O   -0.717873
     5  H    0.349792
     6  H    0.367965
 Sum of Mulliken charges =  -0.00000

 Dipole moment (field-independent basis, Debye):
    X=             -1.9263    Y=             -0.9635    Z=              0.0000  Tot=              2.1538
 Quadrupole moment (field-independent basis, Debye-Ang):
   XX=             -9.2728   YY=              2.5788   ZZ=            -14.9867
   XY=             -2.4464   XZ=              0.0000   YZ=              0.0000

 \MP4DQ=-33.8870448\MP4SDQ=-33.8891347\CCSD=-33.890189\CCSD(T)=-33.8928
 Normal termination of Gaussian 16 at Sun Dec 10 06:52:33 2023.
