 Gaussian 16, Revision A.03,
 Gaussian 16:  ES64L-G16RevA.03 25-Dec-2016

 ------------------
 #p CCSD(T)/CEP-31G
 ------------------

 ------------
 H2O_H2O_2444
 ------------
 Symbolic Z-matrix:
 Charge =  0 Multiplicity = 1

                         Standard orientation:
 ---------------------------------------------------------------------
 Center     Atomic      Atomic             Coordinates (Angstroms)
 Number     Number       Type             X           Y           Z
 ---------------------------------------------------------------------
      1          8           0        0.054168   -2.051337    0.000000
      2          1           0       -0.746673   -2.620687    0.000000
      3          1           0        0.852465   -2.624249    0.000000
      4          8           0        0.054168    2.128605    0.000000
      5          1           0       -0.227544    3.069958    0.000000
      6          1           0       -0.744943    1.556830    0.000000
 ---------------------------------------------------------------------

 SCF Done:  E(RHF) =  -33.6514918261     A.U. after   11 cycles
 E2 =    -0.2285238224D+00 EUMP2 =    -0.33880015648545D+02
 CCSD(T)
 CCSD(T)= -0.33897027740D+02

 The electronic state is 1-A'.
 Alpha  occ. eigenvalues --   -1.35462  -1.34067  -0.71096  -0.69648  -0.55180
 Alpha  occ. eigenvalues --   -0.53760  -0.50028  -0.48638
 Alpha virt. eigenvalues --    0.19968   0.21992   0.30479   0.31967   0.80458
 Alpha virt. eigenvalues --    0.80882   0.81957   0.85609   0.86628   0.91054
 Alpha virt. eigenvalues --    1.17422   1.18998   1.21810   1.23702   2.57300

 Mulliken charges:
               1
     1  O   -0.740041
     2  H    0.365899
     3  H    0.374394
     4  O   -0.738001
     5  H    0.360481
     6  H    0.377269
 Sum of Mulliken charges =   0.00000

 Dipole moment (field-independent basis, Debye):
    X=             -2.4783    Y=             -1.8568    Z=              0.0000  Tot=              3.0967
 Quadrupole moment (field-independent basis, Debye-Ang):
   XX=             -9.9349   YY=              4.1146   ZZ=            -14.9895
   XY=             -4.9375   XZ=              0.0000   YZ=              0.0000

 MP4DQ=-33.8913715\MP4SDQ=-33.8934079\CCSD=-33.8944569\CCSD(T)=-33.8970
 Normal termination of Gaussian 16 at Sun Dec 10 07:11:23 2023.
