 Gaussian 16, Revision A.03,
 Gaussian 16:  ES64L-G16RevA.03 25-Dec-2016

 ------------------
 #p CCSD(T)/CEP-31G
 ------------------

 ------------
 H2O_H2O_1980
 ------------
 Symbolic Z-matrix:
 Charge =  0 Multiplicity = 1

                         Standard orientation:
 ---------------------------------------------------------------------
 Center     Atomic      Atomic             Coordinates (Angstroms)
 Number     Number       Type             X           Y           Z
 ---------------------------------------------------------------------
      1          8           0        0.018361   -1.850700    0.000000
      2          1           0       -0.781697   -2.421150    0.000000
      3          1           0        0.817445   -2.422514    0.000000
      4          8           0        0.018361    1.856731    0.000000
      5          1           0        0.592595    2.654077    0.000000
      6          1           0       -0.922119    2.141341    0.000000
 ---------------------------------------------------------------------

 SCF Done:  E(RHF) =  -33.6463462836     A.U. after   11 cycles
 E2 =    -0.2287904835D+00 EUMP2 =    -0.33875136767173D+02
 CCSD(T)
 CCSD(T)= -0.33892304998D+02

 The electronic state is 1-A'.
 Alpha  occ. eigenvalues --   -1.34045  -1.33906  -0.69666  -0.69518  -0.53764
 Alpha  occ. eigenvalues --   -0.52994  -0.48559  -0.48380
 Alpha virt. eigenvalues --    0.21012   0.21991   0.31629   0.31840   0.77779
 Alpha virt. eigenvalues --    0.81117   0.83031   0.86152   0.90234   0.96775
 Alpha virt. eigenvalues --    1.18637   1.18791   1.23096   1.23398   2.58204

 Mulliken charges:
               1
     1  O   -0.722679
     2  H    0.359308
     3  H    0.363416
     4  O   -0.721923
     5  H    0.358476
     6  H    0.363402
 Sum of Mulliken charges =   0.00000

 Dipole moment (field-independent basis, Debye):
    X=             -0.8358    Y=             -0.1476    Z=              0.0000  Tot=              0.8488
 Quadrupole moment (field-independent basis, Debye-Ang):
   XX=             -8.3200   YY=              7.0679   ZZ=            -14.9839
   XY=             -1.0756   XZ=              0.0000   YZ=              0.0000

 \MP4DQ=-33.8865962\MP4SDQ=-33.8886531\CCSD=-33.8897117\CCSD(T)=-33.892
 Normal termination of Gaussian 16 at Sun Dec 10 07:02:56 2023.
