 Gaussian 16, Revision A.03,
 Gaussian 16:  ES64L-G16RevA.03 25-Dec-2016

 ------------------
 #p CCSD(T)/CEP-31G
 ------------------

 -----------
 H2O_H2O_430
 -----------
 Symbolic Z-matrix:
 Charge =  0 Multiplicity = 1

                         Standard orientation:
 ---------------------------------------------------------------------
 Center     Atomic      Atomic             Coordinates (Angstroms)
 Number     Number       Type             X           Y           Z
 ---------------------------------------------------------------------
      1          8           0        0.018363   -1.026367    0.000000
      2          1           0       -0.782084   -1.596271    0.000000
      3          1           0        0.817056   -1.598726    0.000000
      4          8           0        0.018363    1.032373    0.000000
      5          1           0        0.593141    1.829327    0.000000
      6          1           0       -0.921922    1.317625    0.000000
 ---------------------------------------------------------------------

 SCF Done:  E(RHF) =  -33.6004670875     A.U. after   11 cycles
 E2 =    -0.2319863243D+00 EUMP2 =    -0.33832453411804D+02
 CCSD(T)
 CCSD(T)= -0.33849670852D+02

 The electronic state is 1-A'.
 Alpha  occ. eigenvalues --   -1.33196  -1.30656  -0.68428  -0.66642  -0.58081
 Alpha  occ. eigenvalues --   -0.48121  -0.44341  -0.42345
 Alpha virt. eigenvalues --    0.21387   0.25930   0.32694   0.33344   0.79304
 Alpha virt. eigenvalues --    0.80531   0.90185   0.96896   1.01973   1.18488
 Alpha virt. eigenvalues --    1.20143   1.23182   1.25630   1.27821   2.49298

 Mulliken charges:
               1
     1  O   -0.707148
     2  H    0.342077
     3  H    0.361062
     4  O   -0.692127
     5  H    0.351161
     6  H    0.344976
 Sum of Mulliken charges =  -0.00000

 Dipole moment (field-independent basis, Debye):
    X=             -0.7220    Y=             -0.1414    Z=              0.0000  Tot=              0.7357
 Quadrupole moment (field-independent basis, Debye-Ang):
   XX=             -8.5233   YY=             -3.3703   ZZ=            -15.0188
   XY=             -0.4432   XZ=              0.0000   YZ=              0.0000

 P4DQ=-33.8434982\MP4SDQ=-33.8457391\CCSD=-33.8467498\CCSD(T)=-33.84967
 Normal termination of Gaussian 16 at Sun Dec 10 06:32:49 2023.
