 Gaussian 16, Revision A.03,
 Gaussian 16:  ES64L-G16RevA.03 25-Dec-2016

 ------------------
 #p CCSD(T)/CEP-31G
 ------------------

 -----------
 H2O_H2O_217
 -----------
 Symbolic Z-matrix:
 Charge =  0 Multiplicity = 1

                         Standard orientation:
 ---------------------------------------------------------------------
 Center     Atomic      Atomic             Coordinates (Angstroms)
 Number     Number       Type             X           Y           Z
 ---------------------------------------------------------------------
      1          8           0        0.051377   -0.875631    0.000000
      2          1           0       -0.750960   -1.442870    0.000000
      3          1           0        0.848163   -1.450643    0.000000
      4          8           0        0.051377    0.938838    0.000000
      5          1           0       -0.102498    1.909316    0.000000
      6          1           0       -0.816744    0.478544    0.000000
 ---------------------------------------------------------------------

 SCF Done:  E(RHF) =  -33.5537898970     A.U. after   11 cycles
 E2 =    -0.2342839128D+00 EUMP2 =    -0.33788073809706D+02
 CCSD(T)
 CCSD(T)= -0.33805008718D+02

 The electronic state is 1-A'.
 Alpha  occ. eigenvalues --   -1.37782  -1.29500  -0.73858  -0.69610  -0.54670
 Alpha  occ. eigenvalues --   -0.51842  -0.43727  -0.42906
 Alpha virt. eigenvalues --    0.19717   0.28731   0.30327   0.34053   0.79872
 Alpha virt. eigenvalues --    0.84275   0.89724   0.95800   0.98069   1.17743
 Alpha virt. eigenvalues --    1.20859   1.25708   1.28866   1.34817   2.61934

 Mulliken charges:
               1
     1  O   -0.783318
     2  H    0.350480
     3  H    0.408311
     4  O   -0.644672
     5  H    0.310542
     6  H    0.358657
 Sum of Mulliken charges =   0.00000

 Dipole moment (field-independent basis, Debye):
    X=             -1.9173    Y=             -1.6252    Z=              0.0000  Tot=              2.5134
 Quadrupole moment (field-independent basis, Debye-Ang):
   XX=             -9.7949   YY=             -6.4602   ZZ=            -14.9651
   XY=             -1.6983   XZ=              0.0000   YZ=              0.0000

 MP4DQ=-33.7984781\MP4SDQ=-33.8009959\CCSD=-33.8017843\CCSD(T)=-33.8050
 Normal termination of Gaussian 16 at Sun Dec 10 06:28:48 2023.
