 Gaussian 16, Revision A.03,
 Gaussian 16:  ES64L-G16RevA.03 25-Dec-2016

 ------------------
 #p CCSD(T)/CEP-31G
 ------------------

 ------------
 H2O_H2O_3940
 ------------
 Symbolic Z-matrix:
 Charge =  0 Multiplicity = 1

                         Standard orientation:
 ---------------------------------------------------------------------
 Center     Atomic      Atomic             Coordinates (Angstroms)
 Number     Number       Type             X           Y           Z
 ---------------------------------------------------------------------
      1          8           0        0.047524   -2.863559    0.000000
      2          1           0       -0.752855   -3.433559    0.000000
      3          1           0        0.846286   -3.435822    0.000000
      4          8           0        0.047524    2.914190    0.000000
      5          1           0        0.018253    3.896356    0.000000
      6          1           0       -0.872064    2.567976    0.000000
 ---------------------------------------------------------------------

 SCF Done:  E(RHF) =  -33.6511351849     A.U. after   11 cycles
 E2 =    -0.2284268712D+00 EUMP2 =    -0.33879562056155D+02
 CCSD(T)
 CCSD(T)= -0.33896581138D+02

 The electronic state is 1-A'.
 Alpha  occ. eigenvalues --   -1.35287  -1.34829  -0.70917  -0.70448  -0.54985
 Alpha  occ. eigenvalues --   -0.54525  -0.49849  -0.49392
 Alpha virt. eigenvalues --    0.20448   0.20916   0.30684   0.31138   0.80704
 Alpha virt. eigenvalues --    0.81154   0.83786   0.84249   0.86878   0.87406
 Alpha virt. eigenvalues --    1.17587   1.18040   1.22050   1.22509   2.57620

 Mulliken charges:
               1
     1  O   -0.738829
     2  H    0.367857
     3  H    0.370971
     4  O   -0.738324
     5  H    0.366451
     6  H    0.371873
 Sum of Mulliken charges =   0.00000

 Dipole moment (field-independent basis, Debye):
    X=             -2.1912    Y=             -1.1879    Z=              0.0000  Tot=              2.4925
 Quadrupole moment (field-independent basis, Debye-Ang):
   XX=             -9.5040   YY=             13.0860   ZZ=            -14.9878
   XY=             -5.6453   XZ=              0.0000   YZ=              0.0000

 MP4DQ=-33.8909318\MP4SDQ=-33.8929614\CCSD=-33.8940176\CCSD(T)=-33.8965
 Normal termination of Gaussian 16 at Sun Dec 10 06:51:00 2023.
