 Gaussian 16, Revision A.03,
 Gaussian 16:  ES64L-G16RevA.03 25-Dec-2016

 ------------------
 #p CCSD(T)/CEP-31G
 ------------------

 -----------
 H2O_H2O_438
 -----------
 Symbolic Z-matrix:
 Charge =  0 Multiplicity = 1

                         Standard orientation:
 ---------------------------------------------------------------------
 Center     Atomic      Atomic             Coordinates (Angstroms)
 Number     Number       Type             X           Y           Z
 ---------------------------------------------------------------------
      1          8           0        0.043010   -1.008660    0.000000
      2          1           0       -0.758610   -1.576913    0.000000
      3          1           0        0.840522   -1.582663    0.000000
      4          8           0        0.043010    1.047262    0.000000
      5          1           0        0.144319    2.024627    0.000000
      6          1           0       -0.914386    0.826128    0.000000
 ---------------------------------------------------------------------

 SCF Done:  E(RHF) =  -33.6080975794     A.U. after   11 cycles
 E2 =    -0.2319718628D+00 EUMP2 =    -0.33840069442244D+02
 CCSD(T)
 CCSD(T)= -0.33857354121D+02

 The electronic state is 1-A'.
 Alpha  occ. eigenvalues --   -1.34446  -1.30805  -0.70029  -0.67611  -0.56409
 Alpha  occ. eigenvalues --   -0.49216  -0.45055  -0.44798
 Alpha virt. eigenvalues --    0.20421   0.26671   0.31663   0.33383   0.79614
 Alpha virt. eigenvalues --    0.84132   0.89929   0.97091   0.99393   1.15530
 Alpha virt. eigenvalues --    1.19170   1.23753   1.25172   1.31758   2.53818

 Mulliken charges:
               1
     1  O   -0.749488
     2  H    0.346360
     3  H    0.384032
     4  O   -0.670751
     5  H    0.338848
     6  H    0.350999
 Sum of Mulliken charges =  -0.00000

 Dipole moment (field-independent basis, Debye):
    X=             -1.7115    Y=             -0.9391    Z=              0.0000  Tot=              1.9522
 Quadrupole moment (field-independent basis, Debye-Ang):
   XX=             -9.3593   YY=             -3.8675   ZZ=            -14.9982
   XY=             -1.4168   XZ=              0.0000   YZ=              0.0000

 4DQ=-33.8511654\MP4SDQ=-33.8534487\CCSD=-33.8544386\CCSD(T)=-33.857354
 Normal termination of Gaussian 16 at Sun Dec 10 06:32:57 2023.
