 Gaussian 16, Revision A.03,
 Gaussian 16:  ES64L-G16RevA.03 25-Dec-2016

 ------------------
 #p CCSD(T)/CEP-31G
 ------------------

 -----------
 H2O_H2O_265
 -----------
 Symbolic Z-matrix:
 Charge =  0 Multiplicity = 1

                         Standard orientation:
 ---------------------------------------------------------------------
 Center     Atomic      Atomic             Coordinates (Angstroms)
 Number     Number       Type             X           Y           Z
 ---------------------------------------------------------------------
      1          8           0        0.047598   -0.909207    0.000000
      2          1           0       -0.754464   -1.476835    0.000000
      3          1           0        0.844663   -1.483832    0.000000
      4          8           0        0.047598    0.959557    0.000000
      5          1           0        0.021235    1.941804    0.000000
      6          1           0       -0.873010    0.616066    0.000000
 ---------------------------------------------------------------------

 SCF Done:  E(RHF) =  -33.5731968678     A.U. after   11 cycles
 E2 =    -0.2336461558D+00 EUMP2 =    -0.33806843023630D+02
 CCSD(T)
 CCSD(T)= -0.33823952928D+02

 The electronic state is 1-A'.
 Alpha  occ. eigenvalues --   -1.36273  -1.29923  -0.72072  -0.68590  -0.56156
 Alpha  occ. eigenvalues --   -0.50745  -0.43993  -0.42847
 Alpha virt. eigenvalues --    0.20058   0.27994   0.30997   0.33662   0.80098
 Alpha virt. eigenvalues --    0.84838   0.89807   0.96252   0.98298   1.17843
 Alpha virt. eigenvalues --    1.20056   1.25657   1.27383   1.33605   2.57036

 Mulliken charges:
               1
     1  O   -0.770142
     2  H    0.347596
     3  H    0.396981
     4  O   -0.652034
     5  H    0.324451
     6  H    0.353149
 Sum of Mulliken charges =   0.00000

 Dipole moment (field-independent basis, Debye):
    X=             -1.8082    Y=             -1.2593    Z=              0.0000  Tot=              2.2035
 Quadrupole moment (field-independent basis, Debye-Ang):
   XX=             -9.5989   YY=             -5.6679   ZZ=            -14.9816
   XY=             -1.5070   XZ=              0.0000   YZ=              0.0000

 MP4DQ=-33.8175335\MP4SDQ=-33.8199763\CCSD=-33.8208387\CCSD(T)=-33.8239
 Normal termination of Gaussian 16 at Sun Dec 10 06:29:43 2023.
