 Gaussian 16, Revision A.03,
 Gaussian 16:  ES64L-G16RevA.03 25-Dec-2016

 ------------------
 #p CCSD(T)/CEP-31G
 ------------------

 ------------
 H2O_H2O_1437
 ------------
 Symbolic Z-matrix:
 Charge =  0 Multiplicity = 1

                         Standard orientation:
 ---------------------------------------------------------------------
 Center     Atomic      Atomic             Coordinates (Angstroms)
 Number     Number       Type             X           Y           Z
 ---------------------------------------------------------------------
      1          8           0        0.040422   -1.543392    0.000000
      2          1           0       -0.760419   -2.112741    0.000000
      3          1           0        0.838719   -2.116304    0.000000
      4          8           0        0.040422    1.576668    0.000000
      5          1           0        0.204113    2.545539    0.000000
      6          1           0       -0.929169    1.417297    0.000000
 ---------------------------------------------------------------------

 SCF Done:  E(RHF) =  -33.6455297857     A.U. after   11 cycles
 E2 =    -0.2291635333D+00 EUMP2 =    -0.33874693319001D+02
 CCSD(T)
 CCSD(T)= -0.33891940945D+02

 The electronic state is 1-A'.
 Alpha  occ. eigenvalues --   -1.34238  -1.33180  -0.69866  -0.68753  -0.54095
 Alpha  occ. eigenvalues --   -0.52099  -0.48759  -0.47651
 Alpha virt. eigenvalues --    0.20449   0.23198   0.31464   0.32414   0.76065
 Alpha virt. eigenvalues --    0.79698   0.84257   0.85097   0.91550   1.10996
 Alpha virt. eigenvalues --    1.18388   1.20961   1.23010   1.24286   2.59409

 Mulliken charges:
               1
     1  O   -0.723301
     2  H    0.354597
     3  H    0.368629
     4  O   -0.715348
     5  H    0.349381
     6  H    0.366042
 Sum of Mulliken charges =   0.00000

 Dipole moment (field-independent basis, Debye):
    X=             -1.8081    Y=             -0.8291    Z=              0.0000  Tot=              1.9892
 Quadrupole moment (field-independent basis, Debye-Ang):
   XX=             -9.1469   YY=              2.5875   ZZ=            -14.9863
   XY=             -2.1896   XZ=              0.0000   YZ=              0.0000

 \MP4DQ=-33.8861654\MP4SDQ=-33.8882587\CCSD=-33.8893168\CCSD(T)=-33.891
 Normal termination of Gaussian 16 at Sun Dec 10 06:51:37 2023.
