 Gaussian 16, Revision A.03,
 Gaussian 16:  ES64L-G16RevA.03 25-Dec-2016

 ------------------
 #p CCSD(T)/CEP-31G
 ------------------

 -----------
 H2O_H2O_868
 -----------
 Symbolic Z-matrix:
 Charge =  0 Multiplicity = 1

                         Standard orientation:
 ---------------------------------------------------------------------
 Center     Atomic      Atomic             Coordinates (Angstroms)
 Number     Number       Type             X           Y           Z
 ---------------------------------------------------------------------
      1          8           0        0.052893   -1.217568    0.000000
      2          1           0       -0.748744   -1.785797    0.000000
      3          1           0        0.850388   -1.791596    0.000000
      4          8           0        0.052893    1.287699    0.000000
      5          1           0       -0.165308    2.245766    0.000000
      6          1           0       -0.782628    0.770580    0.000000
 ---------------------------------------------------------------------

 SCF Done:  E(RHF) =  -33.6427118197     A.U. after   11 cycles
 E2 =    -0.2302100990D+00 EUMP2 =    -0.33872921918742D+02
 CCSD(T)
 CCSD(T)= -0.33890128007D+02

 The electronic state is 1-A'.
 Alpha  occ. eigenvalues --   -1.35250  -1.31797  -0.70919  -0.67904  -0.54742
 Alpha  occ. eigenvalues --   -0.50846  -0.49842  -0.46259
 Alpha virt. eigenvalues --    0.19659   0.25793   0.30693   0.33944   0.77782
 Alpha virt. eigenvalues --    0.83100   0.88260   0.89973   0.93971   1.15487
 Alpha virt. eigenvalues --    1.19423   1.21170   1.23066   1.30121   2.65534

 Mulliken charges:
               1
     1  O   -0.750429
     2  H    0.356389
     3  H    0.388809
     4  O   -0.705982
     5  H    0.336291
     6  H    0.374922
 Sum of Mulliken charges =   0.00000

 Dipole moment (field-independent basis, Debye):
    X=             -2.2635    Y=             -1.7831    Z=              0.0000  Tot=              2.8815
 Quadrupole moment (field-independent basis, Debye-Ang):
   XX=             -9.8504   YY=             -2.1710   ZZ=            -14.9965
   XY=             -2.7259   XZ=              0.0000   YZ=              0.0000

 \MP4DQ=-33.884184\MP4SDQ=-33.886356\CCSD=-33.887387\CCSD(T)=-33.890128
 Normal termination of Gaussian 16 at Sun Dec 10 06:40:59 2023.
