 Gaussian 16, Revision A.03,
 Gaussian 16:  ES64L-G16RevA.03 25-Dec-2016

 ------------------
 #p CCSD(T)/CEP-31G
 ------------------

 ------------
 H2O_H2O_1864
 ------------
 Symbolic Z-matrix:
 Charge =  0 Multiplicity = 1

                         Standard orientation:
 ---------------------------------------------------------------------
 Center     Atomic      Atomic             Coordinates (Angstroms)
 Number     Number       Type             X           Y           Z
 ---------------------------------------------------------------------
      1          8           0        0.045360   -1.763331    0.000000
      2          1           0       -0.755457   -2.332715    0.000000
      3          1           0        0.843681   -2.336208    0.000000
      4          8           0        0.045360    1.807823    0.000000
      5          1           0        0.081144    2.789773    0.000000
      6          1           0       -0.895122    1.523217    0.000000
 ---------------------------------------------------------------------

 SCF Done:  E(RHF) =  -33.6486796049     A.U. after   11 cycles
 E2 =    -0.2288169640D+00 EUMP2 =    -0.33877496568918D+02
 CCSD(T)
 CCSD(T)= -0.33894610299D+02

 The electronic state is 1-A'.
 Alpha  occ. eigenvalues --   -1.34760  -1.33655  -0.70390  -0.69226  -0.54388
 Alpha  occ. eigenvalues --   -0.53118  -0.49291  -0.48188
 Alpha virt. eigenvalues --    0.20259   0.22526   0.31034   0.32160   0.76179
 Alpha virt. eigenvalues --    0.80437   0.83182   0.85641   0.88435   1.01242
 Alpha virt. eigenvalues --    1.17995   1.19610   1.22437   1.23888   2.57461

 Mulliken charges:
               1
     1  O   -0.730720
     2  H    0.360016
     3  H    0.371104
     4  O   -0.726367
     5  H    0.354825
     6  H    0.371142
 Sum of Mulliken charges =   0.00000

 Dipole moment (field-independent basis, Debye):
    X=             -2.0559    Y=             -1.0912    Z=              0.0000  Tot=              2.3275
 Quadrupole moment (field-independent basis, Debye-Ang):
   XX=             -9.3878   YY=              4.1217   ZZ=            -14.9870
   XY=             -3.0533   XZ=              0.0000   YZ=              0.0000

 P4DQ=-33.888906\MP4SDQ=-33.8909676\CCSD=-33.8920165\CCSD(T)=-33.894610
 Normal termination of Gaussian 16 at Sun Dec 10 06:59:30 2023.
