 Gaussian 16, Revision A.03,
 Gaussian 16:  ES64L-G16RevA.03 25-Dec-2016

 ------------------
 #p CCSD(T)/CEP-31G
 ------------------

 -----------
 H2O_H2O_814
 -----------
 Symbolic Z-matrix:
 Charge =  0 Multiplicity = 1

                         Standard orientation:
 ---------------------------------------------------------------------
 Center     Atomic      Atomic             Coordinates (Angstroms)
 Number     Number       Type             X           Y           Z
 ---------------------------------------------------------------------
      1          8           0        0.045382   -1.204950    0.000000
      2          1           0       -0.756001   -1.773538    0.000000
      3          1           0        0.843133   -1.778621    0.000000
      4          8           0        0.045382    1.249351    0.000000
      5          1           0        0.082142    2.231266    0.000000
      6          1           0       -0.895383    0.965681    0.000000
 ---------------------------------------------------------------------

 SCF Done:  E(RHF) =  -33.6371130966     A.U. after   11 cycles
 E2 =    -0.2302833995D+00 EUMP2 =    -0.33867396496082D+02
 CCSD(T)
 CCSD(T)= -0.33884753042D+02

 The electronic state is 1-A'.
 Alpha  occ. eigenvalues --   -1.34178  -1.31952  -0.69807  -0.67804  -0.54844
 Alpha  occ. eigenvalues --   -0.49514  -0.48813  -0.46250
 Alpha virt. eigenvalues --    0.20269   0.25241   0.31544   0.33149   0.78486
 Alpha virt. eigenvalues --    0.83471   0.88645   0.89471   0.95822   1.15766
 Alpha virt. eigenvalues --    1.18895   1.22191   1.23412   1.30188   2.58336

 Mulliken charges:
               1
     1  O   -0.735445
     2  H    0.350050
     3  H    0.377721
     4  O   -0.694391
     5  H    0.340635
     6  H    0.361429
 Sum of Mulliken charges =   0.00000

 Dipole moment (field-independent basis, Debye):
    X=             -1.9315    Y=             -1.1021    Z=              0.0000  Tot=              2.2238
 Quadrupole moment (field-independent basis, Debye-Ang):
   XX=             -9.4366   YY=             -1.4155   ZZ=            -14.9935
   XY=             -1.9564   XZ=              0.0000   YZ=              0.0000

 MP4DQ=-33.8787989\MP4SDQ=-33.8809626\CCSD=-33.8820222\CCSD(T)=-33.8847
 Normal termination of Gaussian 16 at Sun Dec 10 06:39:58 2023.
