 Gaussian 16, Revision A.03,
 Gaussian 16:  ES64L-G16RevA.03 25-Dec-2016

 ------------------
 #p CCSD(T)/CEP-31G
 ------------------

 ------------
 H2O_H2O_2906
 ------------
 Symbolic Z-matrix:
 Charge =  0 Multiplicity = 1

                         Standard orientation:
 ---------------------------------------------------------------------
 Center     Atomic      Atomic             Coordinates (Angstroms)
 Number     Number       Type             X           Y           Z
 ---------------------------------------------------------------------
      1          8           0        0.021860   -2.341221    0.000000
      2          1           0       -0.778169   -2.911711    0.000000
      3          1           0        0.820972   -2.912994    0.000000
      4          8           0        0.021860    2.349881    0.000000
      5          1           0        0.542673    3.183103    0.000000
      6          1           0       -0.935232    2.572323    0.000000
 ---------------------------------------------------------------------

 SCF Done:  E(RHF) =  -33.6491539050     A.U. after   11 cycles
 E2 =    -0.2285414567D+00 EUMP2 =    -0.33877695361681D+02
 CCSD(T)
 CCSD(T)= -0.33894771950D+02

 The electronic state is 1-A'.
 Alpha  occ. eigenvalues --   -1.34619  -1.34499  -0.70243  -0.70117  -0.54218
 Alpha  occ. eigenvalues --   -0.54064  -0.49151  -0.49032
 Alpha virt. eigenvalues --    0.20952   0.21185   0.31237   0.31352   0.81358
 Alpha virt. eigenvalues --    0.81559   0.83367   0.85971   0.87647   0.88101
 Alpha virt. eigenvalues --    1.18173   1.18291   1.22654   1.22775   2.58252

 Mulliken charges:
               1
     1  O   -0.731946
     2  H    0.364676
     3  H    0.367273
     4  O   -0.731565
     5  H    0.364074
     6  H    0.367488
 Sum of Mulliken charges =   0.00000

 Dipole moment (field-independent basis, Debye):
    X=             -1.0039    Y=             -0.2055    Z=              0.0000  Tot=              1.0248
 Quadrupole moment (field-independent basis, Debye-Ang):
   XX=             -8.3695   YY=             12.1003   ZZ=            -14.9855
   XY=             -1.7671   XZ=              0.0000   YZ=              0.0000

 \MP4DQ=-33.889106\MP4SDQ=-33.8911415\CCSD=-33.8922006\CCSD(T)=-33.8947
 Normal termination of Gaussian 16 at Sun Dec 10 06:32:19 2023.
