 Gaussian 16, Revision A.03,
 Gaussian 16:  ES64L-G16RevA.03 25-Dec-2016

 ------------------
 #p CCSD(T)/CEP-31G
 ------------------

 ------------
 H2O_H2O_3869
 ------------
 Symbolic Z-matrix:
 Charge =  0 Multiplicity = 1

                         Standard orientation:
 ---------------------------------------------------------------------
 Center     Atomic      Atomic             Coordinates (Angstroms)
 Number     Number       Type             X           Y           Z
 ---------------------------------------------------------------------
      1          8           0        0.054146   -2.809170    0.000000
      2          1           0       -0.746358   -3.378995    0.000000
      3          1           0        0.852782   -3.381609    0.000000
      4          8           0        0.054146    2.886503    0.000000
      5          1           0       -0.228125    3.827688    0.000000
      6          1           0       -0.744627    2.314253    0.000000
 ---------------------------------------------------------------------

 SCF Done:  E(RHF) =  -33.6516112386     A.U. after   11 cycles
 E2 =    -0.2284045117D+00 EUMP2 =    -0.33880015750372D+02
 CCSD(T)
 CCSD(T)= -0.33897020955D+02

 The electronic state is 1-A'.
 Alpha  occ. eigenvalues --   -1.35499  -1.34781  -0.71131  -0.70396  -0.55224
 Alpha  occ. eigenvalues --   -0.54497  -0.50067  -0.49350
 Alpha virt. eigenvalues --    0.20261   0.21002   0.30502   0.31226   0.80486
 Alpha virt. eigenvalues --    0.81190   0.83517   0.84252   0.86631   0.87433
 Alpha virt. eigenvalues --    1.17396   1.18108   1.21855   1.22581   2.57415

 Mulliken charges:
               1
     1  O   -0.740522
     2  H    0.368464
     3  H    0.372059
     4  O   -0.740028
     5  H    0.366351
     6  H    0.373677
 Sum of Mulliken charges =  -0.00000

 Dipole moment (field-independent basis, Debye):
    X=             -2.4960    Y=             -1.8159    Z=              0.0000  Tot=              3.0867
 Quadrupole moment (field-independent basis, Debye-Ang):
   XX=             -9.9411   YY=              9.5395   ZZ=            -14.9886
   XY=             -6.7972   XZ=              0.0000   YZ=              0.0000

 MP4DQ=-33.8913753\MP4SDQ=-33.8934036\CCSD=-33.8944588\CCSD(T)=-33.8970
 Normal termination of Gaussian 16 at Sun Dec 10 06:49:41 2023.
