 Gaussian 16, Revision A.03,
 Gaussian 16:  ES64L-G16RevA.03 25-Dec-2016

 ------------------
 #p CCSD(T)/CEP-31G
 ------------------

 ------------
 H2O_H2O_4399
 ------------
 Symbolic Z-matrix:
 Charge =  0 Multiplicity = 1

                         Standard orientation:
 ---------------------------------------------------------------------
 Center     Atomic      Atomic             Coordinates (Angstroms)
 Number     Number       Type             X           Y           Z
 ---------------------------------------------------------------------
      1          8           0        0.057203   -3.068447    0.000000
      2          1           0       -0.743265   -3.638321    0.000000
      3          1           0        0.855875   -3.640836    0.000000
      4          8           0        0.057203    3.182494    0.000000
      5          1           0       -0.512671    3.982963    0.000000
      6          1           0       -0.515186    2.383822    0.000000
 ---------------------------------------------------------------------

 SCF Done:  E(RHF) =  -33.6521497182     A.U. after   11 cycles
 E2 =    -0.2283656578D+00 EUMP2 =    -0.33880515375978D+02
 CCSD(T)
 CCSD(T)= -0.33897504932D+02

 The electronic state is 1-A'.
 Alpha  occ. eigenvalues --   -1.35755  -1.34898  -0.71389  -0.70519  -0.55510
 Alpha  occ. eigenvalues --   -0.54639  -0.50332  -0.49474
 Alpha virt. eigenvalues --    0.20036   0.20920   0.30279   0.31161   0.80219
 Alpha virt. eigenvalues --    0.81063   0.83206   0.84084   0.86334   0.87245
 Alpha virt. eigenvalues --    1.17163   1.18016   1.21617   1.22491   2.57170

 Mulliken charges:
               1
     1  O   -0.742421
     2  H    0.369838
     3  H    0.372582
     4  O   -0.742320
     5  H    0.367626
     6  H    0.374694
 Sum of Mulliken charges =  -0.00000

 Dipole moment (field-independent basis, Debye):
    X=             -2.6388    Y=             -2.6690    Z=              0.0000  Tot=              3.7533
 Quadrupole moment (field-independent basis, Debye-Ang):
   XX=            -10.1660   YY=              6.2488   ZZ=            -14.9894
   XY=             -8.5871   XZ=              0.0000   YZ=              0.0000

 MP4DQ=-33.8918636\MP4SDQ=-33.8938903\CCSD=-33.8949448\CCSD(T)=-33.8975
 Normal termination of Gaussian 16 at Sun Dec 10 06:59:11 2023.
