 Gaussian 16, Revision A.03,
 Gaussian 16:  ES64L-G16RevA.03 25-Dec-2016

 ------------------
 #p CCSD(T)/CEP-31G
 ------------------

 ------------
 H2O_H2O_4033
 ------------
 Symbolic Z-matrix:
 Charge =  0 Multiplicity = 1

                         Standard orientation:
 ---------------------------------------------------------------------
 Center     Atomic      Atomic             Coordinates (Angstroms)
 Number     Number       Type             X           Y           Z
 ---------------------------------------------------------------------
      1          8           0        0.028563   -2.935955    0.000000
      2          1           0       -0.771485   -3.506419    0.000000
      3          1           0        0.827657   -3.507754    0.000000
      4          8           0        0.028563    2.951210    0.000000
      5          1           0        0.436194    3.845271    0.000000
      6          1           0       -0.949373    3.046856    0.000000
 ---------------------------------------------------------------------

 SCF Done:  E(RHF) =  -33.6505664186     A.U. after   11 cycles
 E2 =    -0.2284490723D+00 EUMP2 =    -0.33879015490814D+02
 CCSD(T)
 CCSD(T)= -0.33896051002D+02

 The electronic state is 1-A'.
 Alpha  occ. eigenvalues --   -1.35019  -1.34887  -0.70647  -0.70510  -0.54686
 Alpha  occ. eigenvalues --   -0.54553  -0.49572  -0.49440
 Alpha virt. eigenvalues --    0.20684   0.20819   0.30917   0.31046   0.80981
 Alpha virt. eigenvalues --    0.81112   0.84116   0.84265   0.87189   0.87348
 Alpha virt. eigenvalues --    1.17830   1.17962   1.22298   1.22430   2.57877

 Mulliken charges:
               1
     1  O   -0.736794
     2  H    0.367490
     3  H    0.369304
     4  O   -0.736573
     5  H    0.366964
     6  H    0.369609
 Sum of Mulliken charges =  -0.00000

 Dipole moment (field-independent basis, Debye):
    X=             -1.3173    Y=             -0.3577    Z=              0.0000  Tot=              1.3650
 Quadrupole moment (field-independent basis, Debye-Ang):
   XX=             -8.5700   YY=             17.5880   ZZ=            -14.9868
   XY=             -3.1384   XZ=              0.0000   YZ=              0.0000

 MP4DQ=-33.8903973\MP4SDQ=-33.8924283\CCSD=-33.8934858\CCSD(T)=-33.8960
 Normal termination of Gaussian 16 at Sun Dec 10 06:52:41 2023.
