 Gaussian 16, Revision A.03,
 Gaussian 16:  ES64L-G16RevA.03 25-Dec-2016

 ------------------
 #p CCSD(T)/CEP-31G
 ------------------

 ------------
 H2O_H2O_3501
 ------------
 Symbolic Z-matrix:
 Charge =  0 Multiplicity = 1

                         Standard orientation:
 ---------------------------------------------------------------------
 Center     Atomic      Atomic             Coordinates (Angstroms)
 Number     Number       Type             X           Y           Z
 ---------------------------------------------------------------------
      1          8           0        0.003735   -2.664894    0.000000
      2          1           0       -0.795905   -3.235930    0.000000
      3          1           0        0.803237   -3.236123    0.000000
      4          8           0        0.003735    2.665138    0.000000
      5          1           0        0.764316    3.287249    0.000000
      6          1           0       -0.831415    3.182853    0.000000
 ---------------------------------------------------------------------

 SCF Done:  E(RHF) =  -33.6497908497     A.U. after   10 cycles
 E2 =    -0.2284894061D+00 EUMP2 =    -0.33878280255732D+02
 CCSD(T)
 CCSD(T)= -0.33895338073D+02

 The electronic state is 1-A'.
 Alpha  occ. eigenvalues --   -1.34749  -1.34746  -0.70374  -0.70371  -0.54379
 Alpha  occ. eigenvalues --   -0.54359  -0.49291  -0.49288
 Alpha virt. eigenvalues --    0.20896   0.20933   0.31139   0.31146   0.81253
 Alpha virt. eigenvalues --    0.81275   0.84235   0.84754   0.87489   0.87539
 Alpha virt. eigenvalues --    1.18068   1.18071   1.22541   1.22549   2.58125

 Mulliken charges:
               1
     1  O   -0.734085
     2  H    0.366886
     3  H    0.367200
     4  O   -0.734079
     5  H    0.366832
     6  H    0.367247
 Sum of Mulliken charges =  -0.00000

 Dipole moment (field-independent basis, Debye):
    X=             -0.1720    Y=             -0.0057    Z=              0.0000  Tot=              0.1721
 Quadrupole moment (field-independent basis, Debye-Ang):
   XX=             -8.0601   YY=             16.1955   ZZ=            -14.9859
   XY=             -0.3454   XZ=              0.0000   YZ=              0.0000

 \MP4DQ=-33.8896781\MP4SDQ=-33.8917112\CCSD=-33.8927701\CCSD(T)=-33.895
 Normal termination of Gaussian 16 at Sun Dec 10 06:42:54 2023.
