 Gaussian 16, Revision A.03,
 Gaussian 16:  ES64L-G16RevA.03 25-Dec-2016

 ------------------
 #p CCSD(T)/CEP-31G
 ------------------

 -----------
 H2O_H2O_485
 -----------
 Symbolic Z-matrix:
 Charge =  0 Multiplicity = 1

                         Standard orientation:
 ---------------------------------------------------------------------
 Center     Atomic      Atomic             Coordinates (Angstroms)
 Number     Number       Type             X           Y           Z
 ---------------------------------------------------------------------
      1          8           0        0.034802   -1.043506    0.000000
      2          1           0       -0.766386   -1.612368    0.000000
      3          1           0        0.832749   -1.616903    0.000000
      4          8           0        0.034802    1.066913    0.000000
      5          1           0        0.324126    2.005954    0.000000
      6          1           0       -0.947316    1.036060    0.000000
 ---------------------------------------------------------------------

 SCF Done:  E(RHF) =  -33.6115778660     A.U. after   11 cycles
 E2 =    -0.2315763809D+00 EUMP2 =    -0.33843154246913D+02
 CCSD(T)
 CCSD(T)= -0.33860468362D+02

 The electronic state is 1-A'.
 Alpha  occ. eigenvalues --   -1.33648  -1.31003  -0.69107  -0.67207  -0.56853
 Alpha  occ. eigenvalues --   -0.48498  -0.44878  -0.44616
 Alpha virt. eigenvalues --    0.20849   0.26041   0.32189   0.33211   0.79833
 Alpha virt. eigenvalues --    0.82161   0.89968   0.97728   0.99626   1.15170
 Alpha virt. eigenvalues --    1.19463   1.23369   1.25062   1.30329   2.51627

 Mulliken charges:
               1
     1  O   -0.729955
     2  H    0.343385
     3  H    0.373892
     4  O   -0.680637
     5  H    0.346463
     6  H    0.346852
 Sum of Mulliken charges =   0.00000

 Dipole moment (field-independent basis, Debye):
    X=             -1.3961    Y=             -0.5592    Z=              0.0000  Tot=              1.5039
 Quadrupole moment (field-independent basis, Debye-Ang):
   XX=             -9.0039   YY=             -3.1493   ZZ=            -15.0045
   XY=             -1.0459   XZ=              0.0000   YZ=              0.0000

 MP4DQ=-33.8543362\MP4SDQ=-33.8565722\CCSD=-33.8575969\CCSD(T)=-33.8604
 Normal termination of Gaussian 16 at Sun Dec 10 06:33:50 2023.
