 Gaussian 16, Revision A.03,
 Gaussian 16:  ES64L-G16RevA.03 25-Dec-2016

 ------------------
 #p CCSD(T)/CEP-31G
 ------------------

 ------------
 H2O_H2O_3037
 ------------
 Symbolic Z-matrix:
 Charge =  0 Multiplicity = 1

                         Standard orientation:
 ---------------------------------------------------------------------
 Center     Atomic      Atomic             Coordinates (Angstroms)
 Number     Number       Type             X           Y           Z
 ---------------------------------------------------------------------
      1          8           0        0.040409   -2.394297    0.000000
      2          1           0       -0.759984   -2.964275    0.000000
      3          1           0        0.839156   -2.966581    0.000000
      4          8           0        0.040409    2.427636    0.000000
      5          1           0        0.203338    3.396636    0.000000
      6          1           0       -0.929057    2.267503    0.000000
 ---------------------------------------------------------------------

 SCF Done:  E(RHF) =  -33.6501307776     A.U. after   11 cycles
 E2 =    -0.2285003494D+00 EUMP2 =    -0.33878631127040D+02
 CCSD(T)
 CCSD(T)= -0.33895679710D+02

 The electronic state is 1-A'.
 Alpha  occ. eigenvalues --   -1.34959  -1.34520  -0.70587  -0.70131  -0.54601
 Alpha  occ. eigenvalues --   -0.54158  -0.49506  -0.49069
 Alpha virt. eigenvalues --    0.20691   0.21194   0.30953   0.31379   0.81040
 Alpha virt. eigenvalues --    0.81482   0.83523   0.85165   0.87276   0.88064
 Alpha virt. eigenvalues --    1.17873   1.18307   1.22344   1.22783   2.57930

 Mulliken charges:
               1
     1  O   -0.735373
     2  H    0.365482
     3  H    0.369896
     4  O   -0.734382
     5  H    0.363847
     6  H    0.370530
 Sum of Mulliken charges =  -0.00000

 Dipole moment (field-independent basis, Debye):
    X=             -1.8568    Y=             -0.7894    Z=              0.0000  Tot=              2.0177
 Quadrupole moment (field-independent basis, Debye-Ang):
   XX=             -9.1041   YY=             10.6693   ZZ=            -14.9867
   XY=             -3.7008   XZ=              0.0000   YZ=              0.0000

 MP4DQ=-33.8900217\MP4SDQ=-33.8920546\CCSD=-33.8931116\CCSD(T)=-33.8956
 Normal termination of Gaussian 16 at Sun Dec 10 06:34:36 2023.
