 Gaussian 16, Revision A.03,
 Gaussian 16:  ES64L-G16RevA.03 25-Dec-2016

 ------------------
 #p CCSD(T)/CEP-31G
 ------------------

 ------------
 H2O_H2O_3372
 ------------
 Symbolic Z-matrix:
 Charge =  0 Multiplicity = 1

                         Standard orientation:
 ---------------------------------------------------------------------
 Center     Atomic      Atomic             Coordinates (Angstroms)
 Number     Number       Type             X           Y           Z
 ---------------------------------------------------------------------
      1          8           0        0.056718   -2.531429    0.000000
      2          1           0       -0.743930   -3.101050    0.000000
      3          1           0        0.855209   -3.104070    0.000000
      4          8           0        0.056718    2.630532    0.000000
      5          1           0       -0.403524    3.498682    0.000000
      6          1           0       -0.615248    1.913617    0.000000
 ---------------------------------------------------------------------

 SCF Done:  E(RHF) =  -33.6521253550     A.U. after   11 cycles
 E2 =    -0.2283918565D+00 EUMP2 =    -0.33880517211520D+02
 CCSD(T)
 CCSD(T)= -0.33897507452D+02

 The electronic state is 1-A'.
 Alpha  occ. eigenvalues --   -1.35697  -1.34568  -0.71332  -0.70175  -0.55453
 Alpha  occ. eigenvalues --   -0.54301  -0.50273  -0.49144
 Alpha virt. eigenvalues --    0.20061   0.21285   0.30331   0.31494   0.80282
 Alpha virt. eigenvalues --    0.81385   0.83189   0.84485   0.86392   0.87659
 Alpha virt. eigenvalues --    1.17219   1.18348   1.21669   1.22857   2.57216

 Mulliken charges:
               1
     1  O   -0.742341
     2  H    0.368780
     3  H    0.373578
     4  O   -0.741812
     5  H    0.365218
     6  H    0.376577
 Sum of Mulliken charges =  -0.00000

 Dipole moment (field-independent basis, Debye):
    X=             -2.6103    Y=             -2.3396    Z=              0.0000  Tot=              3.5053
 Quadrupole moment (field-independent basis, Debye-Ang):
   XX=            -10.1246   YY=              5.1251   ZZ=            -14.9897
   XY=             -6.8273   XZ=              0.0000   YZ=              0.0000

 MP4DQ=-33.8918651\MP4SDQ=-33.8938926\CCSD=-33.8949459\CCSD(T)=-33.8975
 Normal termination of Gaussian 16 at Sun Dec 10 06:40:33 2023.
