 Gaussian 16, Revision A.03,
 Gaussian 16:  ES64L-G16RevA.03 25-Dec-2016

 ------------------
 #p CCSD(T)/CEP-31G
 ------------------

 ----------
 H2O_H2O_70
 ----------
 Symbolic Z-matrix:
 Charge =  0 Multiplicity = 1

                         Standard orientation:
 ---------------------------------------------------------------------
 Center     Atomic      Atomic             Coordinates (Angstroms)
 Number     Number       Type             X           Y           Z
 ---------------------------------------------------------------------
      1          8           0        0.055409   -0.784547    0.000000
      2          1           0       -0.747430   -1.351075    0.000000
      3          1           0        0.851686   -1.360263    0.000000
      4          8           0        0.055409    0.868574    0.000000
      5          1           0       -0.284025    1.790686    0.000000
      6          1           0       -0.706781    0.248436    0.000000
 ---------------------------------------------------------------------

 SCF Done:  E(RHF) =  -33.4551038463     A.U. after   12 cycles
 E2 =    -0.2368748052D+00 EUMP2 =    -0.33691978651448D+02
 CCSD(T)
 CCSD(T)= -0.33708132446D+02

 The electronic state is 1-A'.
 Alpha  occ. eigenvalues --   -1.43443  -1.28097  -0.79404  -0.72803  -0.55439
 Alpha  occ. eigenvalues --   -0.51459  -0.42635  -0.39906
 Alpha virt. eigenvalues --    0.19053   0.28224   0.30837   0.35169   0.79307
 Alpha virt. eigenvalues --    0.82733   0.89520   0.94393   0.96988   1.17678
 Alpha virt. eigenvalues --    1.18807   1.27126   1.31123   1.40192   2.76681

 Mulliken charges:
               1
     1  O   -0.778195
     2  H    0.349037
     3  H    0.435834
     4  O   -0.642057
     5  H    0.272539
     6  H    0.362842
 Sum of Mulliken charges =   0.00000

 Dipole moment (field-independent basis, Debye):
    X=             -1.9379    Y=             -2.3674    Z=              0.0000  Tot=              3.0594
 Quadrupole moment (field-independent basis, Debye-Ang):
   XX=            -10.0225   YY=             -8.6499   ZZ=            -14.8869
   XY=             -1.8160   XZ=              0.0000   YZ=              0.0000

 P4DQ=-33.7011191\MP4SDQ=-33.7039451\CCSD=-33.7044441\CCSD(T)=-33.70813
 Normal termination of Gaussian 16 at Sun Dec 10 06:26:02 2023.
