 Gaussian 16, Revision A.03,
 Gaussian 16:  ES64L-G16RevA.03 25-Dec-2016

 ------------------
 #p CCSD(T)/CEP-31G
 ------------------

 ------------
 H2O_H2O_1378
 ------------
 Symbolic Z-matrix:
 Charge =  0 Multiplicity = 1

                         Standard orientation:
 ---------------------------------------------------------------------
 Center     Atomic      Atomic             Coordinates (Angstroms)
 Number     Number       Type             X           Y           Z
 ---------------------------------------------------------------------
      1          8           0        0.011143   -1.533689    0.000000
      2          1           0       -0.788785   -2.104322    0.000000
      3          1           0        0.810357   -2.105321    0.000000
      4          8           0        0.011143    1.535870    0.000000
      5          1           0        0.684375    2.251596    0.000000
      6          1           0       -0.884234    1.940599    0.000000
 ---------------------------------------------------------------------

 SCF Done:  E(RHF) =  -33.6414133912     A.U. after   11 cycles
 E2 =    -0.2291712321D+00 EUMP2 =    -0.33870584623304D+02
 CCSD(T)
 CCSD(T)= -0.33887924613D+02

 The electronic state is 1-A'.
 Alpha  occ. eigenvalues --   -1.33369  -1.33200  -0.68975  -0.68820  -0.53685
 Alpha  occ. eigenvalues --   -0.51190  -0.47945  -0.47491
 Alpha virt. eigenvalues --    0.21222   0.22877   0.32041   0.32400   0.77733
 Alpha virt. eigenvalues --    0.80092   0.82896   0.85661   0.96423   1.07302
 Alpha virt. eigenvalues --    1.19153   1.19581   1.23705   1.24139   2.59819

 Mulliken charges:
               1
     1  O   -0.710227
     2  H    0.353024
     3  H    0.357157
     4  O   -0.709446
     5  H    0.352920
     6  H    0.356574
 Sum of Mulliken charges =   0.00000

 Dipole moment (field-independent basis, Debye):
    X=             -0.4990    Y=             -0.0544    Z=              0.0000  Tot=              0.5020
 Quadrupole moment (field-independent basis, Debye-Ang):
   XX=             -8.2479   YY=              3.6560   ZZ=            -14.9842
   XY=             -0.4915   XZ=              0.0000   YZ=              0.0000

 \MP4DQ=-33.8821294\MP4SDQ=-33.8842157\CCSD=-33.8852912\CCSD(T)=-33.887
 Normal termination of Gaussian 16 at Sun Dec 10 06:50:31 2023.
