 Gaussian 16, Revision A.03,
 Gaussian 16:  ES64L-G16RevA.03 25-Dec-2016

 ------------------
 #p CCSD(T)/CEP-31G
 ------------------

 ------------
 H2O_H2O_1665
 ------------
 Symbolic Z-matrix:
 Charge =  0 Multiplicity = 1

                         Standard orientation:
 ---------------------------------------------------------------------
 Center     Atomic      Atomic             Coordinates (Angstroms)
 Number     Number       Type             X           Y           Z
 ---------------------------------------------------------------------
      1          8           0        0.047550   -1.653682    0.000000
      2          1           0       -0.753410   -2.222865    0.000000
      3          1           0        0.845728   -2.226759    0.000000
      4          8           0        0.047550    1.704216    0.000000
      5          1           0        0.019280    2.686411    0.000000
      6          1           0       -0.872391    1.358939    0.000000
 ---------------------------------------------------------------------

 SCF Done:  E(RHF) =  -33.6485390766     A.U. after   11 cycles
 E2 =    -0.2289479804D+00 EUMP2 =    -0.33877487056956D+02
 CCSD(T)
 CCSD(T)= -0.33894626165D+02

 The electronic state is 1-A'.
 Alpha  occ. eigenvalues --   -1.34816  -1.33394  -0.70449  -0.68955  -0.54474
 Alpha  occ. eigenvalues --   -0.52820  -0.49350  -0.47927
 Alpha virt. eigenvalues --    0.20073   0.22999   0.30970   0.32404   0.75398
 Alpha virt. eigenvalues --    0.79947   0.83907   0.85405   0.88873   1.05863
 Alpha virt. eigenvalues --    1.17912   1.20378   1.22412   1.24511   2.57262

 Mulliken charges:
               1
     1  O   -0.730906
     2  H    0.358884
     3  H    0.372536
     4  O   -0.724684
     5  H    0.351998
     6  H    0.372172
 Sum of Mulliken charges =  -0.00000

 Dipole moment (field-independent basis, Debye):
    X=             -2.1435    Y=             -1.2504    Z=              0.0000  Tot=              2.4816
 Quadrupole moment (field-independent basis, Debye-Ang):
   XX=             -9.5174   YY=              2.7895   ZZ=            -14.9877
   XY=             -3.0671   XZ=              0.0000   YZ=              0.0000

 1\MP4DQ=-33.8888976\MP4SDQ=-33.8909736\CCSD=-33.8920209\CCSD(T)=-33.89
 Normal termination of Gaussian 16 at Sun Dec 10 06:55:50 2023.
