 Gaussian 16, Revision A.03,
 Gaussian 16:  ES64L-G16RevA.03 25-Dec-2016

 ------------------
 #p CCSD(T)/CEP-31G
 ------------------

 -----------
 H2O_H2O_799
 -----------
 Symbolic Z-matrix:
 Charge =  0 Multiplicity = 1

                         Standard orientation:
 ---------------------------------------------------------------------
 Center     Atomic      Atomic             Coordinates (Angstroms)
 Number     Number       Type             X           Y           Z
 ---------------------------------------------------------------------
      1          8           0        0.057345   -1.153985    0.000000
      2          1           0       -0.744539   -1.721865    0.000000
      3          1           0        0.854590   -1.728358    0.000000
      4          8           0        0.057345    1.267746    0.000000
      5          1           0       -0.510536    2.069630    0.000000
      6          1           0       -0.517029    0.470501    0.000000
 ---------------------------------------------------------------------

 SCF Done:  E(RHF) =  -33.6456742508     A.U. after   11 cycles
 E2 =    -0.2301570389D+00 EUMP2 =    -0.33875831289639D+02
 CCSD(T)
 CCSD(T)= -0.33892395496D+02

 The electronic state is 1-A'.
 Alpha  occ. eigenvalues --   -1.37678  -1.30676  -0.73346  -0.68830  -0.55384
 Alpha  occ. eigenvalues --   -0.52236  -0.50620  -0.45223
 Alpha virt. eigenvalues --    0.18636   0.27344   0.28918   0.38157   0.76274
 Alpha virt. eigenvalues --    0.82270   0.88796   0.89062   0.98394   1.11358
 Alpha virt. eigenvalues --    1.18232   1.19511   1.25680   1.31731   2.67675

 Mulliken charges:
               1
     1  O   -0.786128
     2  H    0.372574
     3  H    0.419873
     4  O   -0.730431
     5  H    0.328201
     6  H    0.395911
 Sum of Mulliken charges =   0.00000

 Dipole moment (field-independent basis, Debye):
    X=             -2.4225    Y=             -3.0785    Z=              0.0000  Tot=              3.9174
 Quadrupole moment (field-independent basis, Debye-Ang):
   XX=            -10.1130   YY=             -4.8369   ZZ=            -15.0089
   XY=             -3.5775   XZ=              0.0000   YZ=              0.0000

 MP4DQ=-33.886398\MP4SDQ=-33.8886049\CCSD=-33.8895337\CCSD(T)=-33.89239
 Normal termination of Gaussian 16 at Sun Dec 10 06:39:41 2023.
