 Gaussian 16, Revision A.03,
 Gaussian 16:  ES64L-G16RevA.03 25-Dec-2016

 ------------------
 #p CCSD(T)/CEP-31G
 ------------------

 ------------
 H2O_H2O_1385
 ------------
 Symbolic Z-matrix:
 Charge =  0 Multiplicity = 1

                         Standard orientation:
 ---------------------------------------------------------------------
 Center     Atomic      Atomic             Coordinates (Angstroms)
 Number     Number       Type             X           Y           Z
 ---------------------------------------------------------------------
      1          8           0        0.034791   -1.522127    0.000000
      2          1           0       -0.765893   -2.091697    0.000000
      3          1           0        0.833246   -2.094818    0.000000
      4          8           0        0.034791    1.545595    0.000000
      5          1           0        0.323285    2.484892    0.000000
      6          1           0       -0.947299    1.513873    0.000000
 ---------------------------------------------------------------------

 SCF Done:  E(RHF) =  -33.6439742768     A.U. after   11 cycles
 E2 =    -0.2292080224D+00 EUMP2 =    -0.33873182299141D+02
 CCSD(T)
 CCSD(T)= -0.33890472646D+02

 The electronic state is 1-A'.
 Alpha  occ. eigenvalues --   -1.33924  -1.33154  -0.69547  -0.68738  -0.53954
 Alpha  occ. eigenvalues --   -0.51735  -0.48447  -0.47580
 Alpha virt. eigenvalues --    0.20695   0.23148   0.31726   0.32379   0.76690
 Alpha virt. eigenvalues --    0.79746   0.83661   0.85450   0.93035   1.11387
 Alpha virt. eigenvalues --    1.18662   1.20751   1.23345   1.24060   2.59758

 Mulliken charges:
               1
     1  O   -0.719029
     2  H    0.353046
     3  H    0.365711
     4  O   -0.712096
     5  H    0.349483
     6  H    0.362885
 Sum of Mulliken charges =   0.00000

 Dipole moment (field-independent basis, Debye):
    X=             -1.5539    Y=             -0.5852    Z=              0.0000  Tot=              1.6604
 Quadrupole moment (field-independent basis, Debye-Ang):
   XX=             -8.8967   YY=              2.7687   ZZ=            -14.9856
   XY=             -1.7459   XZ=              0.0000   YZ=              0.0000

 MP4DQ=-33.8846834\MP4SDQ=-33.8867783\CCSD=-33.887843\CCSD(T)=-33.89047
 Normal termination of Gaussian 16 at Sun Dec 10 06:50:38 2023.
