 Gaussian 16, Revision A.03,
 Gaussian 16:  ES64L-G16RevA.03 25-Dec-2016

 ------------------
 #p CCSD(T)/CEP-31G
 ------------------

 ------------
 H2O_H2O_1623
 ------------
 Symbolic Z-matrix:
 Charge =  0 Multiplicity = 1

                         Standard orientation:
 ---------------------------------------------------------------------
 Center     Atomic      Atomic             Coordinates (Angstroms)
 Number     Number       Type             X           Y           Z
 ---------------------------------------------------------------------
      1          8           0        0.057149   -1.596741    0.000000
      2          1           0       -0.744116   -2.165493    0.000000
      3          1           0        0.855019   -2.170248    0.000000
      4          8           0        0.057149    1.703157    0.000000
      5          1           0       -0.457980    2.539906    0.000000
      6          1           0       -0.567313    0.944505    0.000000
 ---------------------------------------------------------------------

 SCF Done:  E(RHF) =  -33.6541875943     A.U. after   11 cycles
 E2 =    -0.2288903013D+00 EUMP2 =    -0.33883077895664D+02
 CCSD(T)
 CCSD(T)= -0.33900068770D+02

 The electronic state is 1-A'.
 Alpha  occ. eigenvalues --   -1.36220  -1.32959  -0.71867  -0.68549  -0.56094
 Alpha  occ. eigenvalues --   -0.52737  -0.50824  -0.47564
 Alpha virt. eigenvalues --    0.19007   0.24169   0.29847   0.34077   0.77035
 Alpha virt. eigenvalues --    0.78758   0.83989   0.86247   0.88231   1.03328
 Alpha virt. eigenvalues --    1.16655   1.20332   1.21507   1.28843   2.53441

 Mulliken charges:
               1
     1  O   -0.750761
     2  H    0.367398
     3  H    0.385019
     4  O   -0.746380
     5  H    0.351705
     6  H    0.393019
 Sum of Mulliken charges =  -0.00000

 Dipole moment (field-independent basis, Debye):
    X=             -2.5777    Y=             -2.6643    Z=              0.0000  Tot=              3.7071
 Quadrupole moment (field-independent basis, Debye-Ang):
   XX=            -10.1303   YY=             -1.2525   ZZ=            -14.9963
   XY=             -4.6075   XZ=              0.0000   YZ=              0.0000

 3\MP4DQ=-33.8943377\MP4SDQ=-33.8964183\CCSD=-33.8974488\CCSD(T)=-33.90
 Normal termination of Gaussian 16 at Sun Dec 10 06:55:04 2023.
