 Gaussian 16, Revision A.03,
 Gaussian 16:  ES64L-G16RevA.03 25-Dec-2016

 ------------------
 #p CCSD(T)/CEP-31G
 ------------------

 -----------
 H2O_H2O_276
 -----------
 Symbolic Z-matrix:
 Charge =  0 Multiplicity = 1

                         Standard orientation:
 ---------------------------------------------------------------------
 Center     Atomic      Atomic             Coordinates (Angstroms)
 Number     Number       Type             X           Y           Z
 ---------------------------------------------------------------------
      1          8           0        0.003735   -0.949722    0.000000
      2          1           0       -0.796029   -1.520584    0.000000
      3          1           0        0.803113   -1.521125    0.000000
      4          8           0        0.003735    0.949965    0.000000
      5          1           0        0.764452    1.571910    0.000000
      6          1           0       -0.831302    1.467861    0.000000
 ---------------------------------------------------------------------

 SCF Done:  E(RHF) =  -33.5699727249     A.U. after   11 cycles
 E2 =    -0.2337106238D+00 EUMP2 =    -0.33803683348711D+02
 CCSD(T)
 CCSD(T)= -0.33820649653D+02

 The electronic state is 1-A'.
 Alpha  occ. eigenvalues --   -1.33775  -1.29901  -0.68579  -0.65962  -0.60779
 Alpha  occ. eigenvalues --   -0.48756  -0.43427  -0.38494
 Alpha virt. eigenvalues --    0.21522   0.26717   0.32654   0.33581   0.78518
 Alpha virt. eigenvalues --    0.81448   0.90140   0.92091   1.06656   1.20394
 Alpha virt. eigenvalues --    1.21522   1.23806   1.27996   1.28282   2.48064

 Mulliken charges:
               1
     1  O   -0.697665
     2  H    0.346272
     3  H    0.351209
     4  O   -0.696936
     5  H    0.349538
     6  H    0.347581
 Sum of Mulliken charges =   0.00000

 Dipole moment (field-independent basis, Debye):
    X=             -0.1410    Y=             -0.0059    Z=              0.0000  Tot=              0.1411
 Quadrupole moment (field-independent basis, Debye-Ang):
   XX=             -8.3885   YY=             -4.8532   ZZ=            -15.0353
   XY=             -0.0772   XZ=              0.0000   YZ=              0.0000

 P4DQ=-33.814273\MP4SDQ=-33.8166511\CCSD=-33.8175578\CCSD(T)=-33.820649
 Normal termination of Gaussian 16 at Sun Dec 10 06:29:55 2023.
