 Gaussian 16, Revision A.03,
 Gaussian 16:  ES64L-G16RevA.03 25-Dec-2016

 ------------------
 #p CCSD(T)/CEP-31G
 ------------------

 ------------
 H2O_H2O_1773
 ------------
 Symbolic Z-matrix:
 Charge =  0 Multiplicity = 1

                         Standard orientation:
 ---------------------------------------------------------------------
 Center     Atomic      Atomic             Coordinates (Angstroms)
 Number     Number       Type             X           Y           Z
 ---------------------------------------------------------------------
      1          8           0        0.057142   -1.676509    0.000000
      2          1           0       -0.744046   -2.245370    0.000000
      3          1           0        0.855090   -2.249906    0.000000
      4          8           0        0.057142    1.782940    0.000000
      5          1           0       -0.458102    2.619618    0.000000
      6          1           0       -0.567216    1.024203    0.000000
 ---------------------------------------------------------------------

 SCF Done:  E(RHF) =  -33.6539764138     A.U. after   11 cycles
 E2 =    -0.2287700014D+00 EUMP2 =    -0.33882746415195D+02
 CCSD(T)
 CCSD(T)= -0.33899731795D+02

 The electronic state is 1-A'.
 Alpha  occ. eigenvalues --   -1.36147  -1.33200  -0.71792  -0.68766  -0.56014
 Alpha  occ. eigenvalues --   -0.52968  -0.50747  -0.47801
 Alpha virt. eigenvalues --    0.19050   0.23729   0.29894   0.33606   0.77717
 Alpha virt. eigenvalues --    0.79147   0.83402   0.86017   0.87311   1.00029
 Alpha virt. eigenvalues --    1.16753   1.20250   1.21399   1.28156   2.53922

 Mulliken charges:
               1
     1  O   -0.748769
     2  H    0.367631
     3  H    0.382671
     4  O   -0.746344
     5  H    0.354043
     6  H    0.390767
 Sum of Mulliken charges =   0.00000

 Dipole moment (field-independent basis, Debye):
    X=             -2.5885    Y=             -2.6425    Z=              0.0000  Tot=              3.6991
 Quadrupole moment (field-independent basis, Debye-Ang):
   XX=            -10.1338   YY=             -0.7558   ZZ=            -14.9951
   XY=             -4.8125   XZ=              0.0000   YZ=              0.0000

 \MP4DQ=-33.894024\MP4SDQ=-33.8960938\CCSD=-33.8971271\CCSD(T)=-33.8997
 Normal termination of Gaussian 16 at Sun Dec 10 06:57:50 2023.
