 Gaussian 16, Revision A.03,
 Gaussian 16:  ES64L-G16RevA.03 25-Dec-2016

 ------------------
 #p CCSD(T)/CEP-31G
 ------------------

 ------------
 H2O_H2O_4285
 ------------
 Symbolic Z-matrix:
 Charge =  0 Multiplicity = 1

                         Standard orientation:
 ---------------------------------------------------------------------
 Center     Atomic      Atomic             Coordinates (Angstroms)
 Number     Number       Type             X           Y           Z
 ---------------------------------------------------------------------
      1          8           0        0.034780   -3.064417    0.000000
      2          1           0       -0.765347   -3.634770    0.000000
      3          1           0        0.833795   -3.636326    0.000000
      4          8           0        0.034780    3.087953    0.000000
      5          1           0        0.322354    4.027532    0.000000
      6          1           0       -0.947278    3.055270    0.000000
 ---------------------------------------------------------------------

 SCF Done:  E(RHF) =  -33.6508448102     A.U. after   11 cycles
 E2 =    -0.2284339314D+00 EUMP2 =    -0.33879278741568D+02
 CCSD(T)
 CCSD(T)= -0.33896306246D+02

 The electronic state is 1-A'.
 Alpha  occ. eigenvalues --   -1.35128  -1.34941  -0.70757  -0.70565  -0.54811
 Alpha  occ. eigenvalues --   -0.54623  -0.49686  -0.49499
 Alpha virt. eigenvalues --    0.20591   0.20781   0.30824   0.31008   0.80868
 Alpha virt. eigenvalues --    0.81052   0.83983   0.84168   0.87060   0.87279
 Alpha virt. eigenvalues --    1.17733   1.17918   1.22199   1.22385   2.57773

 Mulliken charges:
               1
     1  O   -0.737773
     2  H    0.367913
     3  H    0.369860
     4  O   -0.737520
     5  H    0.367268
     6  H    0.370252
 Sum of Mulliken charges =  -0.00000

 Dipole moment (field-independent basis, Debye):
    X=             -1.6049    Y=             -0.5510    Z=              0.0000  Tot=              1.6968
 Quadrupole moment (field-independent basis, Debye-Ang):
   XX=             -8.8233   YY=             17.9519   ZZ=            -14.9872
   XY=             -4.1242   XZ=              0.0000   YZ=              0.0000

 \MP4DQ=-33.8906547\MP4SDQ=-33.892685\CCSD=-33.893742\CCSD(T)=-33.89630
 Normal termination of Gaussian 16 at Sun Dec 10 06:57:12 2023.
