 Gaussian 16, Revision A.03,
 Gaussian 16:  ES64L-G16RevA.03 25-Dec-2016

 ------------------
 #p CCSD(T)/CEP-31G
 ------------------

 ------------
 H2O_H2O_3610
 ------------
 Symbolic Z-matrix:
 Charge =  0 Multiplicity = 1

                         Standard orientation:
 ---------------------------------------------------------------------
 Center     Atomic      Atomic             Coordinates (Angstroms)
 Number     Number       Type             X           Y           Z
 ---------------------------------------------------------------------
      1          8           0        0.034781   -2.705432    0.000000
      2          1           0       -0.765418   -3.275683    0.000000
      3          1           0        0.833723   -3.277444    0.000000
      4          8           0        0.034781    2.728960    0.000000
      5          1           0        0.322476    3.668501    0.000000
      6          1           0       -0.947281    2.696402    0.000000
 ---------------------------------------------------------------------

 SCF Done:  E(RHF) =  -33.6504103354     A.U. after   11 cycles
 E2 =    -0.2284651085D+00 EUMP2 =    -0.33878875443909D+02
 CCSD(T)
 CCSD(T)= -0.33895915532D+02

 The electronic state is 1-A'.
 Alpha  occ. eigenvalues --   -1.34998  -1.34756  -0.70625  -0.70376  -0.54655
 Alpha  occ. eigenvalues --   -0.54413  -0.49548  -0.49308
 Alpha virt. eigenvalues --    0.20696   0.20944   0.30930   0.31164   0.81005
 Alpha virt. eigenvalues --    0.81242   0.84085   0.84477   0.87219   0.87521
 Alpha virt. eigenvalues --    1.17846   1.18084   1.22316   1.22555   2.57896

 Mulliken charges:
               1
     1  O   -0.736278
     2  H    0.366766
     3  H    0.369513
     4  O   -0.735828
     5  H    0.365874
     6  H    0.369953
 Sum of Mulliken charges =  -0.00000

 Dipole moment (field-independent basis, Debye):
    X=             -1.6022    Y=             -0.5534    Z=              0.0000  Tot=              1.6951
 Quadrupole moment (field-independent basis, Debye-Ang):
   XX=             -8.8276   YY=             14.4971   ZZ=            -14.9868
   XY=             -3.5570   XZ=              0.0000   YZ=              0.0000

 \MP4DQ=-33.8902604\MP4SDQ=-33.892292\CCSD=-33.8933495\CCSD(T)=-33.8959
 Normal termination of Gaussian 16 at Sun Dec 10 06:44:53 2023.
