 Gaussian 16, Revision A.03,
 Gaussian 16:  ES64L-G16RevA.03 25-Dec-2016

 ------------------
 #p CCSD(T)/CEP-31G
 ------------------

 ------------
 H2O_H2O_3429
 ------------
 Symbolic Z-matrix:
 Charge =  0 Multiplicity = 1

                         Standard orientation:
 ---------------------------------------------------------------------
 Center     Atomic      Atomic             Coordinates (Angstroms)
 Number     Number       Type             X           Y           Z
 ---------------------------------------------------------------------
      1          8           0        0.014783   -2.623032    0.000000
      2          1           0       -0.785065   -3.193777    0.000000
      3          1           0        0.814077   -3.194552    0.000000
      4          8           0        0.014783    2.626910    0.000000
      5          1           0        0.639658    3.385223    0.000000
      6          1           0       -0.905197    2.972083    0.000000
 ---------------------------------------------------------------------

 SCF Done:  E(RHF) =  -33.6497853146     A.U. after   11 cycles
 E2 =    -0.2284925539D+00 EUMP2 =    -0.33878277868516D+02
 CCSD(T)
 CCSD(T)= -0.33895335903D+02

 The electronic state is 1-A'.
 Alpha  occ. eigenvalues --   -1.34760  -1.34717  -0.70385  -0.70341  -0.54384
 Alpha  occ. eigenvalues --   -0.54335  -0.49301  -0.49259
 Alpha virt. eigenvalues --    0.20891   0.20956   0.31130   0.31172   0.81247
 Alpha virt. eigenvalues --    0.81298   0.84182   0.84820   0.87489   0.87572
 Alpha virt. eigenvalues --    1.18057   1.18099   1.22532   1.22575   2.58120

 Mulliken charges:
               1
     1  O   -0.734078
     2  H    0.366392
     3  H    0.367686
     4  O   -0.733971
     5  H    0.366122
     6  H    0.367849
 Sum of Mulliken charges =  -0.00000

 Dipole moment (field-independent basis, Debye):
    X=             -0.6806    Y=             -0.0914    Z=              0.0000  Tot=              0.6867
 Quadrupole moment (field-independent basis, Debye-Ang):
   XX=             -8.1928   YY=             15.4393   ZZ=            -14.9859
   XY=             -1.3575   XZ=              0.0000   YZ=              0.0000

 \MP4DQ=-33.8896758\MP4SDQ=-33.891709\CCSD=-33.8927678\CCSD(T)=-33.8953
 Normal termination of Gaussian 16 at Sun Dec 10 06:41:35 2023.
