 Gaussian 16, Revision A.03,
 Gaussian 16:  ES64L-G16RevA.03 25-Dec-2016

 ------------------
 #p CCSD(T)/CEP-31G
 ------------------

 ------------
 H2O_H2O_2657
 ------------
 Symbolic Z-matrix:
 Charge =  0 Multiplicity = 1

                         Standard orientation:
 ---------------------------------------------------------------------
 Center     Atomic      Atomic             Coordinates (Angstroms)
 Number     Number       Type             X           Y           Z
 ---------------------------------------------------------------------
      1          8           0        0.025266   -2.206594    0.000000
      2          1           0       -0.774866   -2.776940    0.000000
      3          1           0        0.824276   -2.778512    0.000000
      4          8           0        0.025266    2.218325    0.000000
      5          1           0        0.490625    3.083742    0.000000
      6          1           0       -0.944296    2.377869    0.000000
 ---------------------------------------------------------------------

 SCF Done:  E(RHF) =  -33.6487901427     A.U. after   11 cycles
 E2 =    -0.2285776784D+00 EUMP2 =    -0.33877367821124D+02
 CCSD(T)
 CCSD(T)= -0.33894455331D+02

 The electronic state is 1-A'.
 Alpha  occ. eigenvalues --   -1.34549  -1.34366  -0.70173  -0.69981  -0.54142
 Alpha  occ. eigenvalues --   -0.53890  -0.49077  -0.48894
 Alpha virt. eigenvalues --    0.20947   0.21350   0.31288   0.31461   0.81367
 Alpha virt. eigenvalues --    0.81758   0.82373   0.86514   0.87817   0.89065
 Alpha virt. eigenvalues --    1.18228   1.18409   1.22713   1.22899   2.58286

 Mulliken charges:
               1
     1  O   -0.730729
     2  H    0.363614
     3  H    0.367127
     4  O   -0.730078
     5  H    0.362734
     6  H    0.367332
 Sum of Mulliken charges =   0.00000

 Dipole moment (field-independent basis, Debye):
    X=             -1.1584    Y=             -0.2798    Z=              0.0000  Tot=              1.1917
 Quadrupole moment (field-independent basis, Debye-Ang):
   XX=             -8.4780   YY=             10.4860   ZZ=            -14.9853
   XY=             -1.9177   XZ=              0.0000   YZ=              0.0000

 \MP4DQ=-33.888785\MP4SDQ=-33.8908226\CCSD=-33.8918814\CCSD(T)=-33.8944
 Normal termination of Gaussian 16 at Sun Dec 10 06:27:40 2023.
