 Gaussian 16, Revision A.03,
 Gaussian 16:  ES64L-G16RevA.03 25-Dec-2016

 ------------------
 #p CCSD(T)/CEP-31G
 ------------------

 ------------
 H2O_H2O_2902
 ------------
 Symbolic Z-matrix:
 Charge =  0 Multiplicity = 1

                         Standard orientation:
 ---------------------------------------------------------------------
 Center     Atomic      Atomic             Coordinates (Angstroms)
 Number     Number       Type             X           Y           Z
 ---------------------------------------------------------------------
      1          8           0        0.007455   -2.345396    0.000000
      2          1           0       -0.792272   -2.916309    0.000000
      3          1           0        0.806870   -2.916747    0.000000
      4          8           0        0.007455    2.346369    0.000000
      5          1           0        0.725821    3.016784    0.000000
      6          1           0       -0.859698    2.808486    0.000000
 ---------------------------------------------------------------------

 SCF Done:  E(RHF) =  -33.6488955169     A.U. after   11 cycles
 E2 =    -0.2285482755D+00 EUMP2 =    -0.33877443792408D+02
 CCSD(T)
 CCSD(T)= -0.33894527666D+02

 The electronic state is 1-A'.
 Alpha  occ. eigenvalues --   -1.34523  -1.34509  -0.70146  -0.70132  -0.54135
 Alpha  occ. eigenvalues --   -0.54030  -0.49053  -0.49036
 Alpha virt. eigenvalues --    0.21008   0.21187   0.31304   0.31345   0.81424
 Alpha virt. eigenvalues --    0.81588   0.83405   0.86283   0.87636   0.88001
 Alpha virt. eigenvalues --    1.18258   1.18271   1.22722   1.22775   2.58328

 Mulliken charges:
               1
     1  O   -0.731031
     2  H    0.365072
     3  H    0.365959
     4  O   -0.730985
     5  H    0.364930
     6  H    0.366054
 Sum of Mulliken charges =  -0.00000

 Dipole moment (field-independent basis, Debye):
    X=             -0.3424    Y=             -0.0231    Z=              0.0000  Tot=              0.3432
 Quadrupole moment (field-independent basis, Debye-Ang):
   XX=             -8.1011   YY=             12.6996   ZZ=            -14.9852
   XY=             -0.5847   XZ=              0.0000   YZ=              0.0000

 P4DQ=-33.8888597\MP4SDQ=-33.8908958\CCSD=-33.8919556\CCSD(T)=-33.89452
 Normal termination of Gaussian 16 at Sun Dec 10 06:32:14 2023.
