 Gaussian 16, Revision A.03,
 Gaussian 16:  ES64L-G16RevA.03 25-Dec-2016

 ------------------
 #p CCSD(T)/CEP-31G
 ------------------

 ------------
 H2O_H2O_2576
 ------------
 Symbolic Z-matrix:
 Charge =  0 Multiplicity = 1

                         Standard orientation:
 ---------------------------------------------------------------------
 Center     Atomic      Atomic             Coordinates (Angstroms)
 Number     Number       Type             X           Y           Z
 ---------------------------------------------------------------------
      1          8           0        0.003735   -2.172945    0.000000
      2          1           0       -0.795920   -2.743959    0.000000
      3          1           0        0.803222   -2.744196    0.000000
      4          8           0        0.003735    2.173189    0.000000
      5          1           0        0.764333    2.795280    0.000000
      6          1           0       -0.831401    2.690927    0.000000
 ---------------------------------------------------------------------

 SCF Done:  E(RHF) =  -33.6481419659     A.U. after   10 cycles
 E2 =    -0.2286033644D+00 EUMP2 =    -0.33876745330252D+02
 CCSD(T)
 CCSD(T)= -0.33893851348D+02

 The electronic state is 1-A'.
 Alpha  occ. eigenvalues --   -1.34348  -1.34342  -0.69971  -0.69963  -0.53977
 Alpha  occ. eigenvalues --   -0.53750  -0.48877  -0.48850
 Alpha virt. eigenvalues --    0.21053   0.21401   0.31410   0.31501   0.81471
 Alpha virt. eigenvalues --    0.81899   0.82074   0.87487   0.88300   0.88595
 Alpha virt. eigenvalues --    1.18403   1.18407   1.22835   1.22961   2.58371

 Mulliken charges:
               1
     1  O   -0.728471
     2  H    0.363962
     3  H    0.364509
     4  O   -0.728455
     5  H    0.363891
     6  H    0.364564
 Sum of Mulliken charges =   0.00000

 Dipole moment (field-independent basis, Debye):
    X=             -0.1712    Y=             -0.0058    Z=              0.0000  Tot=              0.1713
 Quadrupole moment (field-independent basis, Debye-Ang):
   XX=             -8.0862   YY=             10.8815   ZZ=            -14.9846
   XY=             -0.2637   XZ=              0.0000   YZ=              0.0000

 MP4DQ=-33.8881753\MP4SDQ=-33.8902149\CCSD=-33.891275\CCSD(T)=-33.89385
 Normal termination of Gaussian 16 at Sun Dec 10 06:26:09 2023.
