 Gaussian 16, Revision A.03,
 Gaussian 16:  ES64L-G16RevA.03 25-Dec-2016

 ------------------
 #p CCSD(T)/CEP-31G
 ------------------

 ------------
 H2O_H2O_4282
 ------------
 Symbolic Z-matrix:
 Charge =  0 Multiplicity = 1

                         Standard orientation:
 ---------------------------------------------------------------------
 Center     Atomic      Atomic             Coordinates (Angstroms)
 Number     Number       Type             X           Y           Z
 ---------------------------------------------------------------------
      1          8           0        0.025265   -3.070821    0.000000
      2          1           0       -0.774710   -3.641388    0.000000
      3          1           0        0.824432   -3.642518    0.000000
      4          8           0        0.025265    3.082565    0.000000
      5          1           0        0.490385    3.948111    0.000000
      6          1           0       -0.944342    3.241842    0.000000
 ---------------------------------------------------------------------

 SCF Done:  E(RHF) =  -33.6506693979     A.U. after   11 cycles
 E2 =    -0.2284407895D+00 EUMP2 =    -0.33879110187455D+02
 CCSD(T)
 CCSD(T)= -0.33896142739D+02

 The electronic state is 1-A'.
 Alpha  occ. eigenvalues --   -1.35043  -1.34950  -0.70671  -0.70575  -0.54715
 Alpha  occ. eigenvalues --   -0.54622  -0.49597  -0.49504
 Alpha virt. eigenvalues --    0.20667   0.20761   0.30899   0.30990   0.80956
 Alpha virt. eigenvalues --    0.81048   0.84088   0.84183   0.87159   0.87270
 Alpha virt. eigenvalues --    1.17811   1.17903   1.22278   1.22371   2.57856

 Mulliken charges:
               1
     1  O   -0.737145
     2  H    0.367862
     3  H    0.369283
     4  O   -0.737001
     5  H    0.367468
     6  H    0.369532
 Sum of Mulliken charges =  -0.00000

 Dipole moment (field-independent basis, Debye):
    X=             -1.1658    Y=             -0.2749    Z=              0.0000  Tot=              1.1978
 Quadrupole moment (field-independent basis, Debye-Ang):
   XX=             -8.4532   YY=             19.3200   ZZ=            -14.9869
   XY=             -2.9004   XZ=              0.0000   YZ=              0.0000

 \MP4DQ=-33.8904899\MP4SDQ=-33.8925205\CCSD=-33.893578\CCSD(T)=-33.8961
 Normal termination of Gaussian 16 at Sun Dec 10 06:57:09 2023.
