 Gaussian 16, Revision A.03,
 Gaussian 16:  ES64L-G16RevA.03 25-Dec-2016

 ------------------
 #p CCSD(T)/CEP-31G
 ------------------

 ------------
 H2O_H2O_1895
 ------------
 Symbolic Z-matrix:
 Charge =  0 Multiplicity = 1

                         Standard orientation:
 ---------------------------------------------------------------------
 Center     Atomic      Atomic             Coordinates (Angstroms)
 Number     Number       Type             X           Y           Z
 ---------------------------------------------------------------------
      1          8           0        0.055279   -1.754969    0.000000
      2          1           0       -0.745799   -2.323986    0.000000
      3          1           0        0.853338   -2.328212    0.000000
      4          8           0        0.055279    1.839340    0.000000
      5          1           0       -0.287016    2.760394    0.000000
      6          1           0       -0.704984    1.216839    0.000000
 ---------------------------------------------------------------------

 SCF Done:  E(RHF) =  -33.6519327748     A.U. after   11 cycles
 E2 =    -0.2287274131D+00 EUMP2 =    -0.33880660187980D+02
 CCSD(T)
 CCSD(T)= -0.33897685795D+02

 The electronic state is 1-A'.
 Alpha  occ. eigenvalues --   -1.35620  -1.33498  -0.71260  -0.69053  -0.55364
 Alpha  occ. eigenvalues --   -0.53194  -0.50193  -0.48077
 Alpha virt. eigenvalues --    0.19484   0.23051   0.30298   0.32705   0.77195
 Alpha virt. eigenvalues --    0.79816   0.83004   0.86026   0.86815   0.99125
 Alpha virt. eigenvalues --    1.17238   1.20076   1.21698   1.25773   2.55698

 Mulliken charges:
               1
     1  O   -0.741420
     2  H    0.364642
     3  H    0.377741
     4  O   -0.737970
     5  H    0.355207
     6  H    0.381800
 Sum of Mulliken charges =  -0.00000

 Dipole moment (field-independent basis, Debye):
    X=             -2.5090    Y=             -2.0738    Z=              0.0000  Tot=              3.2551
 Quadrupole moment (field-independent basis, Debye-Ang):
   XX=            -10.0060   YY=              1.4335   ZZ=            -14.9914
   XY=             -4.4382   XZ=              0.0000   YZ=              0.0000

 \MP4DQ=-33.8919951\MP4SDQ=-33.8940548\CCSD=-33.8950947\CCSD(T)=-33.897
 Normal termination of Gaussian 16 at Sun Dec 10 07:00:05 2023.
