 Gaussian 16, Revision A.03,
 Gaussian 16:  ES64L-G16RevA.03 25-Dec-2016

 ------------------
 #p CCSD(T)/CEP-31G
 ------------------

 ------------
 H2O_H2O_2646
 ------------
 Symbolic Z-matrix:
 Charge =  0 Multiplicity = 1

                         Standard orientation:
 ---------------------------------------------------------------------
 Center     Atomic      Atomic             Coordinates (Angstroms)
 Number     Number       Type             X           Y           Z
 ---------------------------------------------------------------------
      1          8           0        0.056117   -2.149869    0.000000
      2          1           0       -0.744707   -2.719244    0.000000
      3          1           0        0.854431   -2.722756    0.000000
      4          8           0        0.056117    2.241565    0.000000
      5          1           0       -0.346085    3.138081    0.000000
      6          1           0       -0.661506    1.570354    0.000000
 ---------------------------------------------------------------------

 SCF Done:  E(RHF) =  -33.6521400321     A.U. after   11 cycles
 E2 =    -0.2284602679D+00 EUMP2 =    -0.33880600300001D+02
 CCSD(T)
 CCSD(T)= -0.33897591859D+02

 The electronic state is 1-A'.
 Alpha  occ. eigenvalues --   -1.35665  -1.34176  -0.71301  -0.69762  -0.55422
 Alpha  occ. eigenvalues --   -0.53899  -0.50241  -0.48754
 Alpha virt. eigenvalues --    0.19872   0.21860   0.30328   0.31907   0.80297
 Alpha virt. eigenvalues --    0.81786   0.82030   0.85358   0.86361   0.89214
 Alpha virt. eigenvalues --    1.17248   1.18864   1.21652   1.23625   2.57215

 Mulliken charges:
               1
     1  O   -0.742276
     2  H    0.367472
     3  H    0.375013
     4  O   -0.740989
     5  H    0.361976
     6  H    0.378803
 Sum of Mulliken charges =  -0.00000

 Dipole moment (field-independent basis, Debye):
    X=             -2.5724    Y=             -2.1935    Z=              0.0000  Tot=              3.3807
 Quadrupole moment (field-independent basis, Debye-Ang):
   XX=            -10.0743   YY=              3.4961   ZZ=            -14.9903
   XY=             -5.6406   XZ=              0.0000   YZ=              0.0000

 MP4DQ=-33.8919433\MP4SDQ=-33.893976\CCSD=-33.8950252\CCSD(T)=-33.89759
 Normal termination of Gaussian 16 at Sun Dec 10 06:27:27 2023.
