 Gaussian 16, Revision A.03,
 Gaussian 16:  ES64L-G16RevA.03 25-Dec-2016

 ------------------
 #p CCSD(T)/CEP-31G
 ------------------

 ------------
 H2O_H2O_4084
 ------------
 Symbolic Z-matrix:
 Charge =  0 Multiplicity = 1

                         Standard orientation:
 ---------------------------------------------------------------------
 Center     Atomic      Atomic             Coordinates (Angstroms)
 Number     Number       Type             X           Y           Z
 ---------------------------------------------------------------------
      1          8           0        0.031739   -2.960409    0.000000
      2          1           0       -0.768357   -3.530805    0.000000
      3          1           0        0.830785   -3.532276    0.000000
      4          8           0        0.031739    2.979601    0.000000
      5          1           0        0.380099    3.898378    0.000000
      6          1           0       -0.950355    3.011165    0.000000
 ---------------------------------------------------------------------

 SCF Done:  E(RHF) =  -33.6506648616     A.U. after   11 cycles
 E2 =    -0.2284443175D+00 EUMP2 =    -0.33879109179082D+02
 CCSD(T)
 CCSD(T)= -0.33896141859D+02

 The electronic state is 1-A'.
 Alpha  occ. eigenvalues --   -1.35060  -1.34896  -0.70688  -0.70520  -0.54732
 Alpha  occ. eigenvalues --   -0.54568  -0.49615  -0.49451
 Alpha virt. eigenvalues --    0.20649   0.20815   0.30882   0.31042   0.80939
 Alpha virt. eigenvalues --    0.81100   0.84068   0.84239   0.87141   0.87336
 Alpha virt. eigenvalues --    1.17794   1.17956   1.22261   1.22424   2.57838

 Mulliken charges:
               1
     1  O   -0.737142
     2  H    0.367589
     3  H    0.369553
     4  O   -0.736886
     5  H    0.366982
     6  H    0.369904
 Sum of Mulliken charges =   0.00000

 Dipole moment (field-independent basis, Debye):
    X=             -1.4640    Y=             -0.4498    Z=              0.0000  Tot=              1.5315
 Quadrupole moment (field-independent basis, Debye-Ang):
   XX=             -8.6935   YY=             17.4174   ZZ=            -14.9869
   XY=             -3.5658   XZ=              0.0000   YZ=              0.0000

 \MP4DQ=-33.8904889\MP4SDQ=-33.8925197\CCSD=-33.893577\CCSD(T)=-33.8961
 Normal termination of Gaussian 16 at Sun Dec 10 06:53:39 2023.
