 Gaussian 16, Revision A.03,
 Gaussian 16:  ES64L-G16RevA.03 25-Dec-2016

 ------------------
 #p CCSD(T)/CEP-31G
 ------------------

 ------------
 H2O_H2O_4457
 ------------
 Symbolic Z-matrix:
 Charge =  0 Multiplicity = 1

                         Standard orientation:
 ---------------------------------------------------------------------
 Center     Atomic      Atomic             Coordinates (Angstroms)
 Number     Number       Type             X           Y           Z
 ---------------------------------------------------------------------
      1          8           0        0.025265   -3.163892    0.000000
      2          1           0       -0.774698   -3.734475    0.000000
      3          1           0        0.824444   -3.735573    0.000000
      4          8           0        0.025265    3.175637    0.000000
      5          1           0        0.490366    4.041193    0.000000
      6          1           0       -0.944345    3.334894    0.000000
 ---------------------------------------------------------------------

 SCF Done:  E(RHF) =  -33.6507679779     A.U. after   11 cycles
 E2 =    -0.2284345127D+00 EUMP2 =    -0.33879202490560D+02
 CCSD(T)
 CCSD(T)= -0.33896232222D+02

 The electronic state is 1-A'.
 Alpha  occ. eigenvalues --   -1.35075  -1.34988  -0.70704  -0.70613  -0.54753
 Alpha  occ. eigenvalues --   -0.54666  -0.49631  -0.49544
 Alpha virt. eigenvalues --    0.20640   0.20728   0.30872   0.30958   0.80922
 Alpha virt. eigenvalues --    0.81009   0.84046   0.84132   0.87119   0.87223
 Alpha virt. eigenvalues --    1.17783   1.17870   1.22249   1.22336   2.57825

 Mulliken charges:
               1
     1  O   -0.737488
     2  H    0.368090
     3  H    0.369398
     4  O   -0.737363
     5  H    0.367724
     6  H    0.369639
 Sum of Mulliken charges =  -0.00000

 Dipole moment (field-independent basis, Debye):
    X=             -1.1662    Y=             -0.2747    Z=              0.0000  Tot=              1.1981
 Quadrupole moment (field-independent basis, Debye-Ang):
   XX=             -8.4519   YY=             20.2643   ZZ=            -14.9870
   XY=             -3.0074   XZ=              0.0000   YZ=              0.0000

 MP4DQ=-33.8905801\MP4SDQ=-33.8926105\CCSD=-33.8936678\CCSD(T)=-33.8962
 Normal termination of Gaussian 16 at Sun Dec 10 07:00:32 2023.
