 Gaussian 16, Revision A.03,
 Gaussian 16:  ES64L-G16RevA.03 25-Dec-2016

 ------------------
 #p CCSD(T)/CEP-31G
 ------------------

 ------------
 H2O_H2O_2666
 ------------
 Symbolic Z-matrix:
 Charge =  0 Multiplicity = 1

                         Standard orientation:
 ---------------------------------------------------------------------
 Center     Atomic      Atomic             Coordinates (Angstroms)
 Number     Number       Type             X           Y           Z
 ---------------------------------------------------------------------
      1          8           0        0.049516   -2.182050    0.000000
      2          1           0       -0.751153   -2.751641    0.000000
      3          1           0        0.847986   -2.754721    0.000000
      4          8           0        0.049516    2.238972    0.000000
      5          1           0       -0.043429    3.217168    0.000000
      6          1           0       -0.845666    1.833813    0.000000
 ---------------------------------------------------------------------

 SCF Done:  E(RHF) =  -33.6506424349     A.U. after   11 cycles
 E2 =    -0.2285151070D+00 EUMP2 =    -0.33879157541820D+02
 CCSD(T)
 CCSD(T)= -0.33896192135D+02

 The electronic state is 1-A'.
 Alpha  occ. eigenvalues --   -1.35180  -1.34276  -0.70810  -0.69871  -0.54851
 Alpha  occ. eigenvalues --   -0.53934  -0.49734  -0.48834
 Alpha virt. eigenvalues --    0.20380   0.21578   0.30745   0.31664   0.80788
 Alpha virt. eigenvalues --    0.81732   0.82105   0.85501   0.87009   0.89527
 Alpha virt. eigenvalues --    1.17673   1.18609   1.22109   1.23114   2.57719

 Mulliken charges:
               1
     1  O   -0.737205
     2  H    0.365247
     3  H    0.372022
     4  O   -0.735401
     5  H    0.361851
     6  H    0.373486
 Sum of Mulliken charges =  -0.00000

 Dipole moment (field-independent basis, Debye):
    X=             -2.2697    Y=             -1.3578    Z=              0.0000  Tot=              2.6449
 Quadrupole moment (field-independent basis, Debye-Ang):
   XX=             -9.6286   YY=              6.8336   ZZ=            -14.9879
   XY=             -4.4607   XZ=              0.0000   YZ=              0.0000

 \MP4DQ=-33.8905355\MP4SDQ=-33.8925692\CCSD=-33.893623\CCSD(T)=-33.8961
 Normal termination of Gaussian 16 at Sun Dec 10 06:27:50 2023.
