 Gaussian 16, Revision A.03,
 Gaussian 16:  ES64L-G16RevA.03 25-Dec-2016

 ------------------
 #p CCSD(T)/CEP-31G
 ------------------

 -----------
 H2O_H2O_211
 -----------
 Symbolic Z-matrix:
 Charge =  0 Multiplicity = 1

                         Standard orientation:
 ---------------------------------------------------------------------
 Center     Atomic      Atomic             Coordinates (Angstroms)
 Number     Number       Type             X           Y           Z
 ---------------------------------------------------------------------
      1          8           0        0.037708   -0.894713    0.000000
      2          1           0       -0.763895   -1.462989    0.000000
      3          1           0        0.835236   -1.468693    0.000000
      4          8           0        0.037708    0.922791    0.000000
      5          1           0        0.265694    1.878577    0.000000
      6          1           0       -0.940359    0.828485    0.000000
 ---------------------------------------------------------------------

 SCF Done:  E(RHF) =  -33.5583755275     A.U. after   11 cycles
 E2 =    -0.2343866341D+00 EUMP2 =    -0.33792762161527D+02
 CCSD(T)
 CCSD(T)= -0.33809795298D+02

 The electronic state is 1-A'.
 Alpha  occ. eigenvalues --   -1.35640  -1.29718  -0.70936  -0.67677  -0.58939
 Alpha  occ. eigenvalues --   -0.50333  -0.43525  -0.39412
 Alpha virt. eigenvalues --    0.20583   0.27715   0.31621   0.33460   0.81049
 Alpha virt. eigenvalues --    0.84196   0.89732   0.94850   0.99004   1.19512
 Alpha virt. eigenvalues --    1.20255   1.25381   1.26908   1.33935   2.52551

 Mulliken charges:
               1
     1  O   -0.743467
     2  H    0.340227
     3  H    0.384352
     4  O   -0.663533
     5  H    0.338590
     6  H    0.343830
 Sum of Mulliken charges =   0.00000

 Dipole moment (field-independent basis, Debye):
    X=             -1.4112    Y=             -0.7009    Z=              0.0000  Tot=              1.5756
 Quadrupole moment (field-independent basis, Debye-Ang):
   XX=             -9.1706   YY=             -5.8033   ZZ=            -14.9941
   XY=             -0.9902   XZ=              0.0000   YZ=              0.0000

 MP4DQ=-33.8033097\MP4SDQ=-33.8057971\CCSD=-33.8066321\CCSD(T)=-33.8097
 Normal termination of Gaussian 16 at Sun Dec 10 06:28:41 2023.
