 Gaussian 16, Revision A.03,
 Gaussian 16:  ES64L-G16RevA.03 25-Dec-2016

 ------------------
 #p CCSD(T)/CEP-31G
 ------------------

 -----------
 H2O_H2O_348
 -----------
 Symbolic Z-matrix:
 Charge =  0 Multiplicity = 1

                         Standard orientation:
 ---------------------------------------------------------------------
 Center     Atomic      Atomic             Coordinates (Angstroms)
 Number     Number       Type             X           Y           Z
 ---------------------------------------------------------------------
      1          8           0        0.057260   -0.918774    0.000000
      2          1           0       -0.745184   -1.485862    0.000000
      3          1           0        0.853937   -1.493934    0.000000
      4          8           0        0.057260    1.024952    0.000000
      5          1           0       -0.456133    1.862769    0.000000
      6          1           0       -0.568775    0.267598    0.000000
 ---------------------------------------------------------------------

 SCF Done:  E(RHF) =  -33.5759166326     A.U. after   11 cycles
 E2 =    -0.2324145886D+00 EUMP2 =    -0.33808331221248D+02
 CCSD(T)
 CCSD(T)= -0.33824195133D+02

 The electronic state is 1-A'.
 Alpha  occ. eigenvalues --   -1.40403  -1.28770  -0.76891  -0.71713  -0.53973
 Alpha  occ. eigenvalues --   -0.49368  -0.48939  -0.43157
 Alpha virt. eigenvalues --    0.18593   0.27929   0.29536   0.38303   0.77340
 Alpha virt. eigenvalues --    0.84730   0.90496   0.93768   0.98957   1.15916
 Alpha virt. eigenvalues --    1.18548   1.21227   1.32180   1.32605   2.83938

 Mulliken charges:
               1
     1  O   -0.799662
     2  H    0.372010
     3  H    0.447028
     4  O   -0.694754
     5  H    0.299213
     6  H    0.376166
 Sum of Mulliken charges =   0.00000

 Dipole moment (field-independent basis, Debye):
    X=             -2.2008    Y=             -3.0709    Z=              0.0000  Tot=              3.7781
 Quadrupole moment (field-independent basis, Debye-Ang):
   XX=            -10.0902   YY=             -6.9122   ZZ=            -14.9658
   XY=             -2.7161   XZ=              0.0000   YZ=              0.0000

 \MP4DQ=-33.8177835\MP4SDQ=-33.8202243\CCSD=-33.8209579\CCSD(T)=-33.824
 Normal termination of Gaussian 16 at Sun Dec 10 06:31:16 2023.
