 Gaussian 16, Revision A.03,
 Gaussian 16:  ES64L-G16RevA.03 25-Dec-2016

 ------------------
 #p CCSD(T)/CEP-31G
 ------------------

 ------------
 H2O_H2O_1424
 ------------
 Symbolic Z-matrix:
 Charge =  0 Multiplicity = 1

                         Standard orientation:
 ---------------------------------------------------------------------
 Center     Atomic      Atomic             Coordinates (Angstroms)
 Number     Number       Type             X           Y           Z
 ---------------------------------------------------------------------
      1          8           0        0.057295   -1.486330    0.000000
      2          1           0       -0.744092   -2.054912    0.000000
      3          1           0        0.855042   -2.060006    0.000000
      4          8           0        0.057295    1.600192    0.000000
      5          1           0       -0.511287    2.401579    0.000000
      6          1           0       -0.516382    0.802444    0.000000
 ---------------------------------------------------------------------

 SCF Done:  E(RHF) =  -33.6552856296     A.U. after   11 cycles
 E2 =    -0.2290767648D+00 EUMP2 =    -0.33884362394394D+02
 CCSD(T)
 CCSD(T)= -0.33901317547D+02

 The electronic state is 1-A'.
 Alpha  occ. eigenvalues --   -1.36567  -1.32510  -0.72216  -0.68224  -0.56472
 Alpha  occ. eigenvalues --   -0.52323  -0.51189  -0.47124
 Alpha virt. eigenvalues --    0.18842   0.24960   0.29605   0.35342   0.76835
 Alpha virt. eigenvalues --    0.77964   0.84960   0.86557   0.90633   1.06882
 Alpha virt. eigenvalues --    1.16370   1.20146   1.21671   1.30106   2.52894

 Mulliken charges:
               1
     1  O   -0.758676
     2  H    0.369098
     3  H    0.391510
     4  O   -0.749877
     5  H    0.348159
     6  H    0.399785
 Sum of Mulliken charges =   0.00000

 Dipole moment (field-independent basis, Debye):
    X=             -2.5644    Y=             -2.8941    Z=              0.0000  Tot=              3.8667
 Quadrupole moment (field-independent basis, Debye-Ang):
   XX=            -10.1330   YY=             -2.4912   ZZ=            -15.0003
   XY=             -4.4757   XZ=              0.0000   YZ=              0.0000

 6\MP4DQ=-33.8955451\MP4SDQ=-33.8976428\CCSD=-33.8986634\CCSD(T)=-33.90
 Normal termination of Gaussian 16 at Sun Dec 10 06:51:22 2023.
