 Gaussian 16, Revision A.03,
 Gaussian 16:  ES64L-G16RevA.03 25-Dec-2016

 ------------------
 #p CCSD(T)/CEP-31G
 ------------------

 ------------
 H2O_H2O_3823
 ------------
 Symbolic Z-matrix:
 Charge =  0 Multiplicity = 1

                         Standard orientation:
 ---------------------------------------------------------------------
 Center     Atomic      Atomic             Coordinates (Angstroms)
 Number     Number       Type             X           Y           Z
 ---------------------------------------------------------------------
      1          8           0        0.057084   -2.766708    0.000000
      2          1           0       -0.743480   -3.336448    0.000000
      3          1           0        0.855660   -3.339230    0.000000
      4          8           0        0.057084    2.873265    0.000000
      5          1           0       -0.459077    3.709378    0.000000
      6          1           0       -0.566442    2.113843    0.000000
 ---------------------------------------------------------------------

 SCF Done:  E(RHF) =  -33.6521646695     A.U. after   11 cycles
 E2 =    -0.2283746470D+00 EUMP2 =    -0.33880539316538D+02
 CCSD(T)
 CCSD(T)= -0.33897528355D+02

 The electronic state is 1-A'.
 Alpha  occ. eigenvalues --   -1.35735  -1.34734  -0.71370  -0.70348  -0.55492
 Alpha  occ. eigenvalues --   -0.54472  -0.50312  -0.49311
 Alpha virt. eigenvalues --    0.20051   0.21096   0.30299   0.31330   0.80241
 Alpha virt. eigenvalues --    0.81222   0.83213   0.84255   0.86354   0.87438
 Alpha virt. eigenvalues --    1.17183   1.18179   1.21637   1.22664   2.57185

 Mulliken charges:
               1
     1  O   -0.742478
     2  H    0.369384
     3  H    0.373096
     4  O   -0.742219
     5  H    0.366499
     6  H    0.375717
 Sum of Mulliken charges =   0.00000

 Dipole moment (field-independent basis, Debye):
    X=             -2.6305    Y=             -2.5039    Z=              0.0000  Tot=              3.6317
 Quadrupole moment (field-independent basis, Debye-Ang):
   XX=            -10.1545   YY=              5.6057   ZZ=            -14.9896
   XY=             -7.6315   XZ=              0.0000   YZ=              0.0000

 1\MP4DQ=-33.8918869\MP4SDQ=-33.8939138\CCSD=-33.8949678\CCSD(T)=-33.89
 Normal termination of Gaussian 16 at Sun Dec 10 06:48:49 2023.
