 Gaussian 16, Revision A.03,
 Gaussian 16:  ES64L-G16RevA.03 25-Dec-2016

 ------------------
 #p CCSD(T)/CEP-31G
 ------------------

 ------------
 H2O_H2O_1391
 ------------
 Symbolic Z-matrix:
 Charge =  0 Multiplicity = 1

                         Standard orientation:
 ---------------------------------------------------------------------
 Center     Atomic      Atomic             Coordinates (Angstroms)
 Number     Number       Type             X           Y           Z
 ---------------------------------------------------------------------
      1          8           0        0.049541   -1.504002    0.000000
      2          1           0       -0.751614   -2.072910    0.000000
      3          1           0        0.847522   -2.077354    0.000000
      4          8           0        0.049541    1.560840    0.000000
      5          1           0       -0.042571    2.539115    0.000000
      6          1           0       -0.845987    1.156444    0.000000
 ---------------------------------------------------------------------

 SCF Done:  E(RHF) =  -33.6479622701     A.U. after   11 cycles
 E2 =    -0.2292148368D+00 EUMP2 =    -0.33877177106913D+02
 CCSD(T)
 CCSD(T)= -0.33894368030D+02

 The electronic state is 1-A'.
 Alpha  occ. eigenvalues --   -1.34869  -1.32966  -0.70507  -0.68535  -0.54588
 Alpha  occ. eigenvalues --   -0.52297  -0.49411  -0.47491
 Alpha virt. eigenvalues --    0.19915   0.23777   0.30937   0.32775   0.76338
 Alpha virt. eigenvalues --    0.79138   0.85216   0.85298   0.89917   1.12015
 Alpha virt. eigenvalues --    1.17813   1.21465   1.22486   1.26025   2.58219

 Mulliken charges:
               1
     1  O   -0.732235
     2  H    0.357153
     3  H    0.375236
     4  O   -0.720921
     5  H    0.347558
     6  H    0.373208
 Sum of Mulliken charges =  -0.00000

 Dipole moment (field-independent basis, Debye):
    X=             -2.2094    Y=             -1.4213    Z=              0.0000  Tot=              2.6271
 Quadrupole moment (field-independent basis, Debye-Ang):
   XX=             -9.6405   YY=              1.1130   ZZ=            -14.9893
   XY=             -2.9733   XZ=              0.0000   YZ=              0.0000

 4\MP4DQ=-33.8885901\MP4SDQ=-33.8906904\CCSD=-33.891739\CCSD(T)=-33.894
 Normal termination of Gaussian 16 at Sun Dec 10 06:50:45 2023.
