 Gaussian 16, Revision A.03,
 Gaussian 16:  ES64L-G16RevA.03 25-Dec-2016

 ------------------
 #p CCSD(T)/CEP-31G
 ------------------

 ------------
 H2O_H2O_3710
 ------------
 Symbolic Z-matrix:
 Charge =  0 Multiplicity = 1

                         Standard orientation:
 ---------------------------------------------------------------------
 Center     Atomic      Atomic             Coordinates (Angstroms)
 Number     Number       Type             X           Y           Z
 ---------------------------------------------------------------------
      1          8           0        0.034781   -2.758614    0.000000
      2          1           0       -0.765407   -3.328882    0.000000
      3          1           0        0.833735   -3.330610    0.000000
      4          8           0        0.034781    2.782144    0.000000
      5          1           0        0.322456    3.721692    0.000000
      6          1           0       -0.947281    2.749567    0.000000
 ---------------------------------------------------------------------

 SCF Done:  E(RHF) =  -33.6504886909     A.U. after   11 cycles
 E2 =    -0.2284593495D+00 EUMP2 =    -0.33878948040393D+02
 CCSD(T)
 CCSD(T)= -0.33895985842D+02

 The electronic state is 1-A'.
 Alpha  occ. eigenvalues --   -1.35020  -1.34788  -0.70648  -0.70408  -0.54681
 Alpha  occ. eigenvalues --   -0.54449  -0.49572  -0.49340
 Alpha virt. eigenvalues --    0.20679   0.20916   0.30912   0.31138   0.80982
 Alpha virt. eigenvalues --    0.81210   0.84087   0.84406   0.87192   0.87477
 Alpha virt. eigenvalues --    1.17827   1.18056   1.22296   1.22526   2.57875

 Mulliken charges:
               1
     1  O   -0.736546
     2  H    0.366971
     3  H    0.369575
     4  O   -0.736134
     5  H    0.366124
     6  H    0.370010
 Sum of Mulliken charges =   0.00000

 Dipole moment (field-independent basis, Debye):
    X=             -1.6027    Y=             -0.5529    Z=              0.0000  Tot=              1.6954
 Quadrupole moment (field-independent basis, Debye-Ang):
   XX=             -8.8268   YY=             15.0101   ZZ=            -14.9868
   XY=             -3.6408   XZ=              0.0000   YZ=              0.0000

 P4DQ=-33.8903314\MP4SDQ=-33.8923627\CCSD=-33.8934201\CCSD(T)=-33.89598
 Normal termination of Gaussian 16 at Sun Dec 10 06:46:44 2023.
