 Gaussian 16, Revision A.03,
 Gaussian 16:  ES64L-G16RevA.03 25-Dec-2016

 ------------------
 #p CCSD(T)/CEP-31G
 ------------------

 ------------
 H2O_H2O_1559
 ------------
 Symbolic Z-matrix:
 Charge =  0 Multiplicity = 1

                         Standard orientation:
 ---------------------------------------------------------------------
 Center     Atomic      Atomic             Coordinates (Angstroms)
 Number     Number       Type             X           Y           Z
 ---------------------------------------------------------------------
      1          8           0        0.031747   -1.617547    0.000000
      2          1           0       -0.768782   -2.187336    0.000000
      3          1           0        0.830358   -2.190020    0.000000
      4          8           0        0.031747    1.636691    0.000000
      5          1           0        0.380804    2.555203    0.000000
      6          1           0       -0.950324    1.669000    0.000000
 ---------------------------------------------------------------------

 SCF Done:  E(RHF) =  -33.6449258781     A.U. after   11 cycles
 E2 =    -0.2290463439D+00 EUMP2 =    -0.33873972222020D+02
 CCSD(T)
 CCSD(T)= -0.33891217248D+02

 The electronic state is 1-A'.
 Alpha  occ. eigenvalues --   -1.33975  -1.33411  -0.69598  -0.69000  -0.53854
 Alpha  occ. eigenvalues --   -0.52208  -0.48489  -0.47861
 Alpha virt. eigenvalues --    0.20773   0.22740   0.31699   0.32195   0.75880
 Alpha virt. eigenvalues --    0.80218   0.84361   0.84574   0.92001   1.07279
 Alpha virt. eigenvalues --    1.18648   1.19736   1.23277   1.23783   2.58977

 Mulliken charges:
               1
     1  O   -0.719767
     2  H    0.354928
     3  H    0.364888
     4  O   -0.715626
     5  H    0.352101
     6  H    0.363476
 Sum of Mulliken charges =  -0.00000

 Dipole moment (field-independent basis, Debye):
    X=             -1.4287    Y=             -0.4759    Z=              0.0000  Tot=              1.5059
 Quadrupole moment (field-independent basis, Debye-Ang):
   XX=             -8.7611   YY=              3.9637   ZZ=            -14.9847
   XY=             -1.6783   XZ=              0.0000   YZ=              0.0000

 P4DQ=-33.8854585\MP4SDQ=-33.8875407\CCSD=-33.8886011\CCSD(T)=-33.89121
 Normal termination of Gaussian 16 at Sun Dec 10 06:53:52 2023.
