 Gaussian 16, Revision A.03,
 Gaussian 16:  ES64L-G16RevA.03 25-Dec-2016

 ------------------
 #p CCSD(T)/CEP-31G
 ------------------

 -----------
 H2O_H2O_475
 -----------
 Symbolic Z-matrix:
 Charge =  0 Multiplicity = 1

                         Standard orientation:
 ---------------------------------------------------------------------
 Center     Atomic      Atomic             Coordinates (Angstroms)
 Number     Number       Type             X           Y           Z
 ---------------------------------------------------------------------
      1          8           0        0.000000   -0.000000    1.056221
      2          1           0        0.000000    0.799571    1.627353
      3          1           0       -0.000000   -0.799571    1.627353
      4          8           0        0.000000   -0.000000   -1.056221
      5          1           0       -0.000000   -0.799571   -1.627353
      6          1           0        0.000000    0.799571   -1.627353
 ---------------------------------------------------------------------

 SCF Done:  E(RHF) =  -33.6048992062     A.U. after   10 cycles
 E2 =    -0.2316637001D+00 EUMP2 =    -0.33836562906241D+02
 CCSD(T)
 CCSD(T)= -0.33853804268D+02

 The electronic state is 1-AG.
 Alpha  occ. eigenvalues --   -1.32878  -1.30781  -0.68115  -0.66632  -0.57672
 Alpha  occ. eigenvalues --   -0.47787  -0.44465  -0.42774
 Alpha virt. eigenvalues --    0.21603   0.25579   0.32914   0.33358   0.78106
 Alpha virt. eigenvalues --    0.80457   0.90199   0.97298   1.02029   1.19607
 Alpha virt. eigenvalues --    1.20141   1.22888   1.23219   1.27154   2.49547

 Mulliken charges:
               1
     1  O   -0.697440
     2  H    0.348720
     3  H    0.348720
     4  O   -0.697440
     5  H    0.348720
     6  H    0.348720
 Sum of Mulliken charges =   0.00000

 Dipole moment (field-independent basis, Debye):
    X=             -0.0000    Y=              0.0000    Z=              0.0000  Tot=              0.0000
 Quadrupole moment (field-independent basis, Debye-Ang):
   XX=            -15.0203   YY=             -8.3154   ZZ=             -2.8805
   XY=              0.0000   XZ=             -0.0000   YZ=             -0.0000

 .8476767\MP4SDQ=-33.8498801\CCSD=-33.8509104\CCSD(T)=-33.8538043\RMSD=
 Normal termination of Gaussian 16 at Sun Dec 10 06:33:39 2023.
