 Gaussian 16, Revision A.03,
 Gaussian 16:  ES64L-G16RevA.03 25-Dec-2016

 ------------------
 #p CCSD(T)/CEP-31G
 ------------------

 ------------
 H2O_H2O_4419
 ------------
 Symbolic Z-matrix:
 Charge =  0 Multiplicity = 1

                         Standard orientation:
 ---------------------------------------------------------------------
 Center     Atomic      Atomic             Coordinates (Angstroms)
 Number     Number       Type             X           Y           Z
 ---------------------------------------------------------------------
      1          8           0        0.054140   -3.101672    0.000000
      2          1           0       -0.746277   -3.671618    0.000000
      3          1           0        0.852863   -3.673989    0.000000
      4          8           0        0.054140    3.179021    0.000000
      5          1           0       -0.228274    4.120163    0.000000
      6          1           0       -0.744546    2.606650    0.000000
 ---------------------------------------------------------------------

 SCF Done:  E(RHF) =  -33.6516535620     A.U. after   11 cycles
 E2 =    -0.2283938913D+00 EUMP2 =    -0.33880047453262D+02
 CCSD(T)
 CCSD(T)= -0.33897051466D+02

 The electronic state is 1-A'.
 Alpha  occ. eigenvalues --   -1.35515  -1.34932  -0.71148  -0.70552  -0.55243
 Alpha  occ. eigenvalues --   -0.54653  -0.50085  -0.49501
 Alpha virt. eigenvalues --    0.20248   0.20848   0.30488   0.31077   0.80467
 Alpha virt. eigenvalues --    0.81043   0.83503   0.84092   0.86611   0.87252
 Alpha virt. eigenvalues --    1.17381   1.17961   1.21840   1.22429   2.57401

 Mulliken charges:
               1
     1  O   -0.740655
     2  H    0.368962
     3  H    0.371693
     4  O   -0.740347
     5  H    0.367381
     6  H    0.372965
 Sum of Mulliken charges =   0.00000

 Dipole moment (field-independent basis, Debye):
    X=             -2.4985    Y=             -1.8098    Z=              0.0000  Tot=              3.0851
 Quadrupole moment (field-independent basis, Debye-Ang):
   XX=             -9.9422   YY=             11.6141   ZZ=            -14.9885
   XY=             -7.5212   XZ=              0.0000   YZ=              0.0000

 \MP4DQ=-33.8914063\MP4SDQ=-33.8934344\CCSD=-33.8944898\CCSD(T)=-33.897
 Normal termination of Gaussian 16 at Sun Dec 10 06:59:33 2023.
