 Gaussian 16, Revision A.03,
 Gaussian 16:  ES64L-G16RevA.03 25-Dec-2016

 ------------------
 #p CCSD(T)/CEP-31G
 ------------------

 ------------
 H2O_H2O_1611
 ------------
 Symbolic Z-matrix:
 Charge =  0 Multiplicity = 1

                         Standard orientation:
 ---------------------------------------------------------------------
 Center     Atomic      Atomic             Coordinates (Angstroms)
 Number     Number       Type             X           Y           Z
 ---------------------------------------------------------------------
      1          8           0        0.037685   -1.639221    0.000000
      2          1           0       -0.763004   -2.208784    0.000000
      3          1           0        0.836135   -2.211919    0.000000
      4          8           0        0.037685    1.667420    0.000000
      5          1           0        0.264136    2.623571    0.000000
      6          1           0       -0.940229    1.571543    0.000000
 ---------------------------------------------------------------------

 SCF Done:  E(RHF) =  -33.6461573916     A.U. after   11 cycles
 E2 =    -0.2290075248D+00 EUMP2 =    -0.33875164916368D+02
 CCSD(T)
 CCSD(T)= -0.33892373018D+02

 The electronic state is 1-A'.
 Alpha  occ. eigenvalues --   -1.34242  -1.33436  -0.69868  -0.69016  -0.54002
 Alpha  occ. eigenvalues --   -0.52492  -0.48757  -0.47921
 Alpha virt. eigenvalues --    0.20563   0.22764   0.31474   0.32219   0.75557
 Alpha virt. eigenvalues --    0.80192   0.84265   0.84755   0.90777   1.06819
 Alpha virt. eigenvalues --    1.18418   1.19912   1.22991   1.23860   2.58431

 Mulliken charges:
               1
     1  O   -0.723420
     2  H    0.356146
     3  H    0.367449
     4  O   -0.718361
     5  H    0.352089
     6  H    0.366097
 Sum of Mulliken charges =   0.00000

 Dipole moment (field-independent basis, Debye):
    X=             -1.6975    Y=             -0.6993    Z=              0.0000  Tot=              1.8359
 Quadrupole moment (field-independent basis, Debye-Ang):
   XX=             -9.0075   YY=              3.7864   ZZ=            -14.9855
   XY=             -2.1349   XZ=              0.0000   YZ=              0.0000

 \MP4DQ=-33.8866266\MP4SDQ=-33.8887062\CCSD=-33.8897618\CCSD(T)=-33.892
 Normal termination of Gaussian 16 at Sun Dec 10 06:54:50 2023.
