 Gaussian 16, Revision A.03,
 Gaussian 16:  ES64L-G16RevA.03 25-Dec-2016

 ------------------
 #p CCSD(T)/CEP-31G
 ------------------

 ------------
 H2O_H2O_3068
 ------------
 Symbolic Z-matrix:
 Charge =  0 Multiplicity = 1

                         Standard orientation:
 ---------------------------------------------------------------------
 Center     Atomic      Atomic             Coordinates (Angstroms)
 Number     Number       Type             X           Y           Z
 ---------------------------------------------------------------------
      1          8           0        0.052832   -2.387511    0.000000
      2          1           0       -0.747809   -2.957143    0.000000
      3          1           0        0.851330   -2.960141    0.000000
      4          8           0        0.052832    2.457827    0.000000
      5          1           0       -0.167047    3.415511    0.000000
      6          1           0       -0.781782    1.939246    0.000000
 ---------------------------------------------------------------------

 SCF Done:  E(RHF) =  -33.6513160229     A.U. after   11 cycles
 E2 =    -0.2284485591D+00 EUMP2 =    -0.33879764581990D+02
 CCSD(T)
 CCSD(T)= -0.33896778776D+02

 The electronic state is 1-A'.
 Alpha  occ. eigenvalues --   -1.35393  -1.34473  -0.71025  -0.70075  -0.55102
 Alpha  occ. eigenvalues --   -0.54170  -0.49957  -0.49039
 Alpha virt. eigenvalues --    0.20300   0.21341   0.30584   0.31513   0.80596
 Alpha virt. eigenvalues --    0.81497   0.83250   0.84844   0.86748   0.88017
 Alpha virt. eigenvalues --    1.17489   1.18412   1.21941   1.22909   2.57513

 Mulliken charges:
               1
     1  O   -0.739529
     2  H    0.366998
     3  H    0.372551
     4  O   -0.738386
     5  H    0.363862
     6  H    0.374505
 Sum of Mulliken charges =  -0.00000

 Dipole moment (field-independent basis, Debye):
    X=             -2.4283    Y=             -1.6656    Z=              0.0000  Tot=              2.9446
 Quadrupole moment (field-independent basis, Debye-Ang):
   XX=             -9.8469   YY=              7.2275   ZZ=            -14.9886
   XY=             -5.4911   XZ=              0.0000   YZ=              0.0000

 MP4DQ=-33.8911297\MP4SDQ=-33.8931597\CCSD=-33.894214\CCSD(T)=-33.89677
 Normal termination of Gaussian 16 at Sun Dec 10 06:35:09 2023.
