 Gaussian 16, Revision A.03,
 Gaussian 16:  ES64L-G16RevA.03 25-Dec-2016

 ------------------
 #p CCSD(T)/CEP-31G
 ------------------

 -----------
 H2O_H2O_797
 -----------
 Symbolic Z-matrix:
 Charge =  0 Multiplicity = 1

                         Standard orientation:
 ---------------------------------------------------------------------
 Center     Atomic      Atomic             Coordinates (Angstroms)
 Number     Number       Type             X           Y           Z
 ---------------------------------------------------------------------
      1          8           0        0.056824   -1.162077    0.000000
      2          1           0       -0.745039   -1.729987    0.000000
      3          1           0        0.854091   -1.736421    0.000000
      4          8           0        0.056824    1.260937    0.000000
      5          1           0       -0.401564    2.130067    0.000000
      6          1           0       -0.616671    0.545458    0.000000
 ---------------------------------------------------------------------

 SCF Done:  E(RHF) =  -33.6437627184     A.U. after   11 cycles
 E2 =    -0.2303408312D+00 EUMP2 =    -0.33874103549509D+02
 CCSD(T)
 CCSD(T)= -0.33890941017D+02

 The electronic state is 1-A'.
 Alpha  occ. eigenvalues --   -1.36785  -1.31059  -0.72482  -0.68371  -0.54898
 Alpha  occ. eigenvalues --   -0.51354  -0.50948  -0.45591
 Alpha virt. eigenvalues --    0.18996   0.26928   0.29549   0.36254   0.76831
 Alpha virt. eigenvalues --    0.82940   0.88698   0.89753   0.97605   1.12787
 Alpha virt. eigenvalues --    1.19274   1.19618   1.25052   1.31031   2.69641

 Mulliken charges:
               1
     1  O   -0.774684
     2  H    0.365947
     3  H    0.408993
     4  O   -0.718949
     5  H    0.329698
     6  H    0.388995
 Sum of Mulliken charges =  -0.00000

 Dipole moment (field-independent basis, Debye):
    X=             -2.4033    Y=             -2.6138    Z=              0.0000  Tot=              3.5507
 Quadrupole moment (field-independent basis, Debye-Ang):
   XX=            -10.0887   YY=             -3.9813   ZZ=            -15.0051
   XY=             -3.2942   XZ=              0.0000   YZ=              0.0000

 4DQ=-33.8849457\MP4SDQ=-33.8871495\CCSD=-33.8881159\CCSD(T)=-33.890941
 Normal termination of Gaussian 16 at Sun Dec 10 06:39:39 2023.
