 Gaussian 16, Revision A.03,
 Gaussian 16:  ES64L-G16RevA.03 25-Dec-2016

 ------------------
 #p CCSD(T)/CEP-31G
 ------------------

 ------------
 H2O_H2O_4552
 ------------
 Symbolic Z-matrix:
 Charge =  0 Multiplicity = 1

                         Standard orientation:
 ---------------------------------------------------------------------
 Center     Atomic      Atomic             Coordinates (Angstroms)
 Number     Number       Type             X           Y           Z
 ---------------------------------------------------------------------
      1          8           0        0.007455   -3.222925    0.000000
      2          1           0       -0.792230   -3.793898    0.000000
      3          1           0        0.806912   -3.794217    0.000000
      4          8           0        0.007455    3.223900    0.000000
      5          1           0        0.725771    3.894368    0.000000
      6          1           0       -0.859732    3.685953    0.000000
 ---------------------------------------------------------------------

 SCF Done:  E(RHF) =  -33.6506804906     A.U. after   10 cycles
 E2 =    -0.2284365192D+00 EUMP2 =    -0.33879117009886D+02
 CCSD(T)
 CCSD(T)= -0.33896149261D+02

 The electronic state is 1-A'.
 Alpha  occ. eigenvalues --   -1.35021  -1.35014  -0.70649  -0.70642  -0.54694
 Alpha  occ. eigenvalues --   -0.54687  -0.49576  -0.49569
 Alpha virt. eigenvalues --    0.20689   0.20696   0.30921   0.30927   0.80978
 Alpha virt. eigenvalues --    0.80985   0.84107   0.84120   0.87181   0.87189
 Alpha virt. eigenvalues --    1.17833   1.17840   1.22300   1.22307   2.57877

 Mulliken charges:
               1
     1  O   -0.737169
     2  H    0.368399
     3  H    0.368769
     4  O   -0.737158
     5  H    0.368319
     6  H    0.368839
 Sum of Mulliken charges =   0.00000

 Dipole moment (field-independent basis, Debye):
    X=             -0.3442    Y=             -0.0228    Z=              0.0000  Tot=              0.3449
 Quadrupole moment (field-independent basis, Debye-Ang):
   XX=             -8.0733   YY=             22.0876   ZZ=            -14.9868
   XY=             -0.8797   XZ=              0.0000   YZ=              0.0000

 4DQ=-33.8904965\MP4SDQ=-33.8925271\CCSD=-33.8935846\CCSD(T)=-33.896149
 Normal termination of Gaussian 16 at Sun Dec 10 07:03:35 2023.
