 Gaussian 16, Revision A.03,
 Gaussian 16:  ES64L-G16RevA.03 25-Dec-2016

 ------------------
 #p CCSD(T)/CEP-31G
 ------------------

 ------------
 H2O_H2O_4158
 ------------
 Symbolic Z-matrix:
 Charge =  0 Multiplicity = 1

                         Standard orientation:
 ---------------------------------------------------------------------
 Center     Atomic      Atomic             Coordinates (Angstroms)
 Number     Number       Type             X           Y           Z
 ---------------------------------------------------------------------
      1          8           0        0.028563   -3.002434    0.000000
      2          1           0       -0.771474   -3.572912    0.000000
      3          1           0        0.827667   -3.574218    0.000000
      4          8           0        0.028563    3.017690    0.000000
      5          1           0        0.436177    3.911759    0.000000
      6          1           0       -0.949374    3.113318    0.000000
 ---------------------------------------------------------------------

 SCF Done:  E(RHF) =  -33.6506473292     A.U. after   11 cycles
 E2 =    -0.2284437215D+00 EUMP2 =    -0.33879091050662D+02
 CCSD(T)
 CCSD(T)= -0.33896124234D+02

 The electronic state is 1-A'.
 Alpha  occ. eigenvalues --   -1.35045  -1.34918  -0.70673  -0.70542  -0.54716
 Alpha  occ. eigenvalues --   -0.54589  -0.49599  -0.49472
 Alpha virt. eigenvalues --    0.20664   0.20792   0.30896   0.31020   0.80955
 Alpha virt. eigenvalues --    0.81080   0.84087   0.84219   0.87158   0.87309
 Alpha virt. eigenvalues --    1.17808   1.17934   1.22276   1.22402   2.57853

 Mulliken charges:
               1
     1  O   -0.737074
     2  H    0.367684
     3  H    0.369390
     4  O   -0.736875
     5  H    0.367187
     6  H    0.369688
 Sum of Mulliken charges =   0.00000

 Dipole moment (field-independent basis, Debye):
    X=             -1.3177    Y=             -0.3574    Z=              0.0000  Tot=              1.3653
 Quadrupole moment (field-independent basis, Debye-Ang):
   XX=             -8.5690   YY=             18.2528   ZZ=            -14.9869
   XY=             -3.2247   XZ=              0.0000   YZ=              0.0000

 MP4DQ=-33.8904712\MP4SDQ=-33.8925019\CCSD=-33.8935593\CCSD(T)=-33.8961
 Normal termination of Gaussian 16 at Sun Dec 10 06:54:59 2023.
