 Gaussian 16, Revision A.03,
 Gaussian 16:  ES64L-G16RevA.03 25-Dec-2016

 ------------------
 #p CCSD(T)/CEP-31G
 ------------------

 -----------
 H2O_H2O_502
 -----------
 Symbolic Z-matrix:
 Charge =  0 Multiplicity = 1

                         Standard orientation:
 ---------------------------------------------------------------------
 Center     Atomic      Atomic             Coordinates (Angstroms)
 Number     Number       Type             X           Y           Z
 ---------------------------------------------------------------------
      1          8           0        0.007455   -1.068991    0.000000
      2          1           0       -0.792458   -1.639643    0.000000
      3          1           0        0.806683   -1.640603    0.000000
      4          8           0        0.007455    1.069959    0.000000
      5          1           0        0.726040    1.740139    0.000000
      6          1           0       -0.859547    1.532360    0.000000
 ---------------------------------------------------------------------

 SCF Done:  E(RHF) =  -33.6080876603     A.U. after   11 cycles
 E2 =    -0.2314805231D+00 EUMP2 =    -0.33839568183435D+02
 CCSD(T)
 CCSD(T)= -0.33856836852D+02

 The electronic state is 1-A'.
 Alpha  occ. eigenvalues --   -1.32854  -1.30897  -0.68133  -0.66739  -0.57353
 Alpha  occ. eigenvalues --   -0.47749  -0.44609  -0.43285
 Alpha virt. eigenvalues --    0.21570   0.25474   0.32889   0.33316   0.78279
 Alpha virt. eigenvalues --    0.80325   0.90147   0.98125   1.00998   1.18192
 Alpha virt. eigenvalues --    1.20158   1.22948   1.23627   1.27034   2.49955

 Mulliken charges:
               1
     1  O   -0.698896
     2  H    0.345514
     3  H    0.352792
     4  O   -0.696690
     5  H    0.349872
     6  H    0.347408
 Sum of Mulliken charges =  -0.00000

 Dipole moment (field-independent basis, Debye):
    X=             -0.2975    Y=             -0.0226    Z=              0.0000  Tot=              0.2984
 Quadrupole moment (field-independent basis, Debye-Ang):
   XX=             -8.3420   YY=             -2.6615   ZZ=            -15.0175
   XY=             -0.1786   XZ=              0.0000   YZ=              0.0000

 4DQ=-33.8507309\MP4SDQ=-33.8529227\CCSD=-33.8539622\CCSD(T)=-33.856836
 Normal termination of Gaussian 16 at Sun Dec 10 06:34:08 2023.
