 Gaussian 16, Revision A.03,
 Gaussian 16:  ES64L-G16RevA.03 25-Dec-2016

 ------------------
 #p CCSD(T)/CEP-31G
 ------------------

 ------------
 H2O_H2O_1161
 ------------
 Symbolic Z-matrix:
 Charge =  0 Multiplicity = 1

                         Standard orientation:
 ---------------------------------------------------------------------
 Center     Atomic      Atomic             Coordinates (Angstroms)
 Number     Number       Type             X           Y           Z
 ---------------------------------------------------------------------
      1          8           0        0.037690   -1.399907    0.000000
      2          1           0       -0.763188   -1.969205    0.000000
      3          1           0        0.835949   -1.972871    0.000000
      4          8           0        0.037690    1.428081    0.000000
      5          1           0        0.264458    2.384158    0.000000
      6          1           0       -0.940256    1.332529    0.000000
 ---------------------------------------------------------------------

 SCF Done:  E(RHF) =  -33.6421014954     A.U. after   11 cycles
 E2 =    -0.2294957504D+00 EUMP2 =    -0.33871597245745D+02
 CCSD(T)
 CCSD(T)= -0.33888945567D+02

 The electronic state is 1-A'.
 Alpha  occ. eigenvalues --   -1.33843  -1.32771  -0.69465  -0.68366  -0.54180
 Alpha  occ. eigenvalues --   -0.50933  -0.48395  -0.47145
 Alpha virt. eigenvalues --    0.20624   0.23768   0.31784   0.32611   0.79168
 Alpha virt. eigenvalues --    0.79727   0.82963   0.86728   0.94580   1.14747
 Alpha virt. eigenvalues --    1.18720   1.22320   1.23455   1.25338   2.59101

 Mulliken charges:
               1
     1  O   -0.719689
     2  H    0.350730
     3  H    0.367466
     4  O   -0.706410
     5  H    0.346481
     6  H    0.361421
 Sum of Mulliken charges =  -0.00000

 Dipole moment (field-independent basis, Debye):
    X=             -1.6604    Y=             -0.7018    Z=              0.0000  Tot=              1.8027
 Quadrupole moment (field-independent basis, Debye-Ang):
   XX=             -9.0399   YY=              1.2733   ZZ=            -14.9876
   XY=             -1.7513   XZ=              0.0000   YZ=              0.0000

 \MP4DQ=-33.8831074\MP4SDQ=-33.8852201\CCSD=-33.8862919\CCSD(T)=-33.888
 Normal termination of Gaussian 16 at Sun Dec 10 06:46:27 2023.
