 Gaussian 16, Revision A.03,
 Gaussian 16:  ES64L-G16RevA.03 25-Dec-2016

 ------------------
 #p CCSD(T)/CEP-31G
 ------------------

 -----------
 H2O_H2O_204
 -----------
 Symbolic Z-matrix:
 Charge =  0 Multiplicity = 1

                         Standard orientation:
 ---------------------------------------------------------------------
 Center     Atomic      Atomic             Coordinates (Angstroms)
 Number     Number       Type             X           Y           Z
 ---------------------------------------------------------------------
      1          8           0        0.014785   -0.907874    0.000000
      2          1           0       -0.785584   -1.477887    0.000000
      3          1           0        0.813556   -1.480124    0.000000
      4          8           0        0.014785    0.911725    0.000000
      5          1           0        0.640352    1.669467    0.000000
      6          1           0       -0.904879    1.257738    0.000000
 ---------------------------------------------------------------------

 SCF Done:  E(RHF) =  -33.5506507047     A.U. after   11 cycles
 E2 =    -0.2348350404D+00 EUMP2 =    -0.33785485745115D+02
 CCSD(T)
 CCSD(T)= -0.33802323229D+02

 The electronic state is 1-A'.
 Alpha  occ. eigenvalues --   -1.34591  -1.29585  -0.69227  -0.66080  -0.61840
 Alpha  occ. eigenvalues --   -0.49527  -0.43111  -0.36818
 Alpha virt. eigenvalues --    0.21324   0.27289   0.32320   0.33613   0.79738
 Alpha virt. eigenvalues --    0.81726   0.89884   0.91161   1.05383   1.20128
 Alpha virt. eigenvalues --    1.22044   1.23403   1.27908   1.32142   2.48913

 Mulliken charges:
               1
     1  O   -0.703459
     2  H    0.339805
     3  H    0.360837
     4  O   -0.691466
     5  H    0.350254
     6  H    0.344028
 Sum of Mulliken charges =  -0.00000

 Dipole moment (field-independent basis, Debye):
    X=             -0.5496    Y=             -0.0981    Z=              0.0000  Tot=              0.5583
 Quadrupole moment (field-independent basis, Debye-Ang):
   XX=             -8.5376   YY=             -5.6896   ZZ=            -15.0313
   XY=             -0.3169   XZ=              0.0000   YZ=              0.0000

 P4DQ=-33.7958116\MP4SDQ=-33.7982984\CCSD=-33.7991262\CCSD(T)=-33.80232
 Normal termination of Gaussian 16 at Sun Dec 10 06:28:34 2023.
