 Gaussian 16, Revision A.03,
 Gaussian 16:  ES64L-G16RevA.03 25-Dec-2016

 ------------------
 #p CCSD(T)/CEP-31G
 ------------------

 ------------
 H2O_H2O_1394
 ------------
 Symbolic Z-matrix:
 Charge =  0 Multiplicity = 1

                         Standard orientation:
 ---------------------------------------------------------------------
 Center     Atomic      Atomic             Coordinates (Angstroms)
 Number     Number       Type             X           Y           Z
 ---------------------------------------------------------------------
      1          8           0        0.054200   -1.492955    0.000000
      2          1           0       -0.747104   -2.061654    0.000000
      3          1           0        0.852031   -2.066515    0.000000
      4          8           0        0.054200    1.570135    0.000000
      5          1           0       -0.226748    2.511716    0.000000
      6          1           0       -0.745376    0.999008    0.000000
 ---------------------------------------------------------------------

 SCF Done:  E(RHF) =  -33.6504688932     A.U. after   11 cycles
 E2 =    -0.2291912052D+00 EUMP2 =    -0.33879660098419D+02
 CCSD(T)
 CCSD(T)= -0.33896778016D+02

 The electronic state is 1-A'.
 Alpha  occ. eigenvalues --   -1.35466  -1.32811  -0.71112  -0.68404  -0.55159
 Alpha  occ. eigenvalues --   -0.52417  -0.50032  -0.47376
 Alpha virt. eigenvalues --    0.19501   0.24237   0.30456   0.33323   0.76475
 Alpha virt. eigenvalues --    0.78721   0.85132   0.86346   0.89125   1.11084
 Alpha virt. eigenvalues --    1.17288   1.20924   1.22162   1.27563   2.56393

 Mulliken charges:
               1
     1  O   -0.740895
     2  H    0.360643
     3  H    0.380993
     4  O   -0.729424
     5  H    0.347177
     6  H    0.381506
 Sum of Mulliken charges =   0.00000

 Dipole moment (field-independent basis, Debye):
    X=             -2.4184    Y=             -1.9393    Z=              0.0000  Tot=              3.1000
 Quadrupole moment (field-independent basis, Debye-Ang):
   XX=             -9.9293   YY=             -0.0703   ZZ=            -14.9926
   XY=             -3.5872   XZ=              0.0000   YZ=              0.0000

 \MP4DQ=-33.8910032\MP4SDQ=-33.8931047\CCSD=-33.8941437\CCSD(T)=-33.896
 Normal termination of Gaussian 16 at Sun Dec 10 06:50:48 2023.
