 Gaussian 16, Revision A.03,
 Gaussian 16:  ES64L-G16RevA.03 25-Dec-2016

 ------------------
 #p CCSD(T)/CEP-31G
 ------------------

 ------------
 H2O_H2O_2308
 ------------
 Symbolic Z-matrix:
 Charge =  0 Multiplicity = 1

                         Standard orientation:
 ---------------------------------------------------------------------
 Center     Atomic      Atomic             Coordinates (Angstroms)
 Number     Number       Type             X           Y           Z
 ---------------------------------------------------------------------
      1          8           0        0.028566   -2.018548    0.000000
      2          1           0       -0.771698   -2.588710    0.000000
      3          1           0        0.827443   -2.590650    0.000000
      4          8           0        0.028566    2.033783    0.000000
      5          1           0        0.436535    2.927688    0.000000
      6          1           0       -0.949333    2.129798    0.000000
 ---------------------------------------------------------------------

 SCF Done:  E(RHF) =  -33.6481046302     A.U. after   11 cycles
 E2 =    -0.2286586631D+00 EUMP2 =    -0.33876763293245D+02
 CCSD(T)
 CCSD(T)= -0.33893872953D+02

 The electronic state is 1-A'.
 Alpha  occ. eigenvalues --   -1.34427  -1.34139  -0.70050  -0.69747  -0.54026
 Alpha  occ. eigenvalues --   -0.53567  -0.48947  -0.48657
 Alpha virt. eigenvalues --    0.20896   0.21665   0.31377   0.31643   0.80073
 Alpha virt. eigenvalues --    0.81274   0.82212   0.86528   0.88379   0.92433
 Alpha virt. eigenvalues --    1.18323   1.18617   1.22822   1.23116   2.58230

 Mulliken charges:
               1
     1  O   -0.728445
     2  H    0.361734
     3  H    0.366763
     4  O   -0.727250
     5  H    0.360341
     6  H    0.366857
 Sum of Mulliken charges =   0.00000

 Dipole moment (field-independent basis, Debye):
    X=             -1.3053    Y=             -0.3672    Z=              0.0000  Tot=              1.3559
 Quadrupole moment (field-independent basis, Debye-Ang):
   XX=             -8.6012   YY=              8.3274   ZZ=            -14.9850
   XY=             -1.9654   XZ=              0.0000   YZ=              0.0000

 MP4DQ=-33.8881912\MP4SDQ=-33.8902351\CCSD=-33.8912925\CCSD(T)=-33.8938
 Normal termination of Gaussian 16 at Sun Dec 10 07:08:56 2023.
