 Gaussian 16, Revision A.03,
 Gaussian 16:  ES64L-G16RevA.03 25-Dec-2016

 ------------------
 #p CCSD(T)/CEP-31G
 ------------------

 ------------
 H2O_H2O_1005
 ------------
 Symbolic Z-matrix:
 Charge =  0 Multiplicity = 1

                         Standard orientation:
 ---------------------------------------------------------------------
 Center     Atomic      Atomic             Coordinates (Angstroms)
 Number     Number       Type             X           Y           Z
 ---------------------------------------------------------------------
      1          8           0        0.018362   -1.332166    0.000000
      2          1           0       -0.781885   -1.902351    0.000000
      3          1           0        0.817256   -1.904244    0.000000
      4          8           0        0.018362    1.338185    0.000000
      5          1           0        0.592860    2.135341    0.000000
      6          1           0       -0.922023    1.623106    0.000000
 ---------------------------------------------------------------------

 SCF Done:  E(RHF) =  -33.6359057120     A.U. after   11 cycles
 E2 =    -0.2296790665D+00 EUMP2 =    -0.33865584778560D+02
 CCSD(T)
 CCSD(T)= -0.33883010144D+02

 The electronic state is 1-A'.
 Alpha  occ. eigenvalues --   -1.33022  -1.32503  -0.68592  -0.68148  -0.54261
 Alpha  occ. eigenvalues --   -0.49233  -0.47678  -0.46631
 Alpha virt. eigenvalues --    0.21288   0.23775   0.32412   0.32718   0.79409
 Alpha virt. eigenvalues --    0.80460   0.84192   0.87863   1.00958   1.11555
 Alpha virt. eigenvalues --    1.19438   1.21377   1.24219   1.24731   2.57435

 Mulliken charges:
               1
     1  O   -0.705928
     2  H    0.347603
     3  H    0.357437
     4  O   -0.701062
     5  H    0.348883
     6  H    0.353066
 Sum of Mulliken charges =   0.00000

 Dipole moment (field-independent basis, Debye):
    X=             -0.7991    Y=             -0.1476    Z=              0.0000  Tot=              0.8126
 Quadrupole moment (field-independent basis, Debye-Ang):
   XX=             -8.4223   YY=              1.0831   ZZ=            -14.9899
   XY=             -0.6739   XZ=              0.0000   YZ=              0.0000

 \MP4DQ=-33.8771333\MP4SDQ=-33.8792373\CCSD=-33.8803285\CCSD(T)=-33.883
 Normal termination of Gaussian 16 at Sun Dec 10 06:43:33 2023.
