 Gaussian 16, Revision A.03,
 Gaussian 16:  ES64L-G16RevA.03 25-Dec-2016

 ------------------
 #p CCSD(T)/CEP-31G
 ------------------

 ------------
 H2O_H2O_2755
 ------------
 Symbolic Z-matrix:
 Charge =  0 Multiplicity = 1

                         Standard orientation:
 ---------------------------------------------------------------------
 Center     Atomic      Atomic             Coordinates (Angstroms)
 Number     Number       Type             X           Y           Z
 ---------------------------------------------------------------------
      1          8           0        0.018361   -2.262870    0.000000
      2          1           0       -0.781609   -2.833445    0.000000
      3          1           0        0.817533   -2.834560    0.000000
      4          8           0        0.018361    2.268907    0.000000
      5          1           0        0.592471    3.066342    0.000000
      6          1           0       -0.922163    2.553372    0.000000
 ---------------------------------------------------------------------

 SCF Done:  E(RHF) =  -33.6487765759     A.U. after   11 cycles
 E2 =    -0.2285659784D+00 EUMP2 =    -0.33877342554300D+02
 CCSD(T)
 CCSD(T)= -0.33894430126D+02

 The electronic state is 1-A'.
 Alpha  occ. eigenvalues --   -1.34518  -1.34428  -0.70142  -0.70048  -0.54116
 Alpha  occ. eigenvalues --   -0.53947  -0.49046  -0.48955
 Alpha virt. eigenvalues --    0.20992   0.21274   0.31313   0.31406   0.81412
 Alpha virt. eigenvalues --    0.81685   0.82860   0.86576   0.87768   0.88410
 Alpha virt. eigenvalues --    1.18258   1.18346   1.22737   1.22840   2.58322

 Mulliken charges:
               1
     1  O   -0.730652
     2  H    0.364130
     3  H    0.366527
     4  O   -0.730334
     5  H    0.363628
     6  H    0.366702
 Sum of Mulliken charges =  -0.00000

 Dipole moment (field-independent basis, Debye):
    X=             -0.8425    Y=             -0.1437    Z=              0.0000  Tot=              0.8546
 Quadrupole moment (field-independent basis, Debye-Ang):
   XX=             -8.2843   YY=             11.4644   ZZ=            -14.9852
   XY=             -1.4042   XZ=              0.0000   YZ=              0.0000

 \MP4DQ=-33.8887605\MP4SDQ=-33.8907975\CCSD=-33.8918569\CCSD(T)=-33.894
 Normal termination of Gaussian 16 at Sun Dec 10 06:29:29 2023.
