 Gaussian 16, Revision A.03,
 Gaussian 16:  ES64L-G16RevA.03 25-Dec-2016

 ------------------
 #p CCSD(T)/CEP-31G
 ------------------

 ------------
 H2O_H2O_2340
 ------------
 Symbolic Z-matrix:
 Charge =  0 Multiplicity = 1

                         Standard orientation:
 ---------------------------------------------------------------------
 Center     Atomic      Atomic             Coordinates (Angstroms)
 Number     Number       Type             X           Y           Z
 ---------------------------------------------------------------------
      1          8           0        0.047539   -2.012650    0.000000
      2          1           0       -0.753176   -2.582177    0.000000
      3          1           0        0.845962   -2.585385    0.000000
      4          8           0        0.047539    2.063225    0.000000
      5          1           0        0.018848    3.045408    0.000000
      6          1           0       -0.872254    1.717554    0.000000
 ---------------------------------------------------------------------

 SCF Done:  E(RHF) =  -33.6500258061     A.U. after   11 cycles
 E2 =    -0.2285982674D+00 EUMP2 =    -0.33878624073465D+02
 CCSD(T)
 CCSD(T)= -0.33895679072D+02

 The electronic state is 1-A'.
 Alpha  occ. eigenvalues --   -1.35021  -1.34067  -0.70651  -0.69653  -0.54661
 Alpha  occ. eigenvalues --   -0.53680  -0.49566  -0.48618
 Alpha virt. eigenvalues --    0.20356   0.21882   0.30854   0.31839   0.79986
 Alpha virt. eigenvalues --    0.80824   0.82078   0.85857   0.87285   0.92677
 Alpha virt. eigenvalues --    1.17804   1.18869   1.22219   1.23364   2.57735

 Mulliken charges:
               1
     1  O   -0.735070
     2  H    0.363544
     3  H    0.371688
     4  O   -0.732541
     5  H    0.359632
     6  H    0.372747
 Sum of Mulliken charges =  -0.00000

 Dipole moment (field-independent basis, Debye):
    X=             -2.1719    Y=             -1.2171    Z=              0.0000  Tot=              2.4897
 Quadrupole moment (field-independent basis, Debye-Ang):
   XX=             -9.5078   YY=              5.9136   ZZ=            -14.9875
   XY=             -3.8201   XZ=              0.0000   YZ=              0.0000

 1\MP4DQ=-33.8900117\MP4SDQ=-33.8920516\CCSD=-33.8931037\CCSD(T)=-33.89
 Normal termination of Gaussian 16 at Sun Dec 10 07:09:31 2023.
