 Gaussian 16, Revision A.03,
 Gaussian 16:  ES64L-G16RevA.03 25-Dec-2016

 ------------------
 #p CCSD(T)/CEP-31G
 ------------------

 ------------
 H2O_H2O_4061
 ------------
 Symbolic Z-matrix:
 Charge =  0 Multiplicity = 1

                         Standard orientation:
 ---------------------------------------------------------------------
 Center     Atomic      Atomic             Coordinates (Angstroms)
 Number     Number       Type             X           Y           Z
 ---------------------------------------------------------------------
      1          8           0        0.037673   -2.942186    0.000000
      2          1           0       -0.762524   -3.512441    0.000000
      3          1           0        0.836617   -3.514194    0.000000
      4          8           0        0.037673    2.970450    0.000000
      5          1           0        0.263298    3.926797    0.000000
      6          1           0       -0.940158    2.873728    0.000000
 ---------------------------------------------------------------------

 SCF Done:  E(RHF) =  -33.6508017691     A.U. after   11 cycles
 E2 =    -0.2284393364D+00 EUMP2 =    -0.33879241105550D+02
 CCSD(T)
 CCSD(T)= -0.33896269844D+02

 The electronic state is 1-A'.
 Alpha  occ. eigenvalues --   -1.35127  -1.34883  -0.70755  -0.70505  -0.54806
 Alpha  occ. eigenvalues --   -0.54562  -0.49683  -0.49440
 Alpha virt. eigenvalues --    0.20590   0.20838   0.30824   0.31063   0.80870
 Alpha virt. eigenvalues --    0.81110   0.83987   0.84233   0.87064   0.87351
 Alpha virt. eigenvalues --    1.17733   1.17974   1.22199   1.22442   2.57774

 Mulliken charges:
               1
     1  O   -0.737633
     2  H    0.367642
     3  H    0.369991
     4  O   -0.737287
     5  H    0.366818
     6  H    0.370470
 Sum of Mulliken charges =  -0.00000

 Dipole moment (field-independent basis, Debye):
    X=             -1.7375    Y=             -0.6625    Z=              0.0000  Tot=              1.8596
 Quadrupole moment (field-independent basis, Debye-Ang):
   XX=             -8.9602   YY=             16.2675   ZZ=            -14.9872
   XY=             -4.3190   XZ=              0.0000   YZ=              0.0000

 \MP4DQ=-33.890618\MP4SDQ=-33.8926484\CCSD=-33.8937053\CCSD(T)=-33.8962
 Normal termination of Gaussian 16 at Sun Dec 10 06:53:12 2023.
