 Gaussian 16, Revision A.03,
 Gaussian 16:  ES64L-G16RevA.03 25-Dec-2016

 ------------------
 #p CCSD(T)/CEP-31G
 ------------------

 ------------
 H2O_H2O_1174
 ------------
 Symbolic Z-matrix:
 Charge =  0 Multiplicity = 1

                         Standard orientation:
 ---------------------------------------------------------------------
 Center     Atomic      Atomic             Coordinates (Angstroms)
 Number     Number       Type             X           Y           Z
 ---------------------------------------------------------------------
      1          8           0        0.057312   -1.353389    0.000000
      2          1           0       -0.744245   -1.921730    0.000000
      3          1           0        0.854887   -1.927305    0.000000
      4          8           0        0.057312    1.467216    0.000000
      5          1           0       -0.511029    2.268774    0.000000
      6          1           0       -0.516604    0.669641    0.000000
 ---------------------------------------------------------------------

 SCF Done:  E(RHF) =  -33.6546842257     A.U. after   11 cycles
 E2 =    -0.2294067284D+00 EUMP2 =    -0.33884090954179D+02
 CCSD(T)
 CCSD(T)= -0.33900985394D+02

 The electronic state is 1-A'.
 Alpha  occ. eigenvalues --   -1.36842  -1.31908  -0.72492  -0.68015  -0.56500
 Alpha  occ. eigenvalues --   -0.51751  -0.51470  -0.46515
 Alpha virt. eigenvalues --    0.18783   0.25846   0.29429   0.36492   0.77113
 Alpha virt. eigenvalues --    0.77559   0.86428   0.87102   0.94196   1.10280
 Alpha virt. eigenvalues --    1.16890   1.19941   1.22360   1.30954   2.55314

 Mulliken charges:
               1
     1  O   -0.767389
     2  H    0.369688
     3  H    0.400175
     4  O   -0.746390
     5  H    0.341989
     6  H    0.401927
 Sum of Mulliken charges =   0.00000

 Dipole moment (field-independent basis, Debye):
    X=             -2.5252    Y=             -2.9519    Z=              0.0000  Tot=              3.8846
 Quadrupole moment (field-independent basis, Debye-Ang):
   XX=            -10.1250   YY=             -3.3513   ZZ=            -15.0046
   XY=             -4.1259   XZ=              0.0000   YZ=              0.0000

 \MP4DQ=-33.8951456\MP4SDQ=-33.8972733\CCSD=-33.8982749\CCSD(T)=-33.900
 Normal termination of Gaussian 16 at Sun Dec 10 06:46:42 2023.
