 Gaussian 16, Revision A.03,
 Gaussian 16:  ES64L-G16RevA.03 25-Dec-2016

 ------------------
 #p CCSD(T)/CEP-31G
 ------------------

 ------------
 H2O_H2O_4570
 ------------
 Symbolic Z-matrix:
 Charge =  0 Multiplicity = 1

                         Standard orientation:
 ---------------------------------------------------------------------
 Center     Atomic      Atomic             Coordinates (Angstroms)
 Number     Number       Type             X           Y           Z
 ---------------------------------------------------------------------
      1          8           0        0.055229   -3.177564    0.000000
      2          1           0       -0.745183   -3.747516    0.000000
      3          1           0        0.853957   -3.749875    0.000000
      4          8           0        0.055229    3.262064    0.000000
      5          1           0       -0.288140    4.182718    0.000000
      6          1           0       -0.704306    2.638676    0.000000
 ---------------------------------------------------------------------

 SCF Done:  E(RHF) =  -33.6517538094     A.U. after   11 cycles
 E2 =    -0.2283868526D+00 EUMP2 =    -0.33880140661972D+02
 CCSD(T)
 CCSD(T)= -0.33897141778D+02

 The electronic state is 1-A'.
 Alpha  occ. eigenvalues --   -1.35565  -1.34961  -0.71197  -0.70582  -0.55298
 Alpha  occ. eigenvalues --   -0.54687  -0.50136  -0.49532
 Alpha virt. eigenvalues --    0.20205   0.20824   0.30445   0.31056   0.80416
 Alpha virt. eigenvalues --    0.81011   0.83443   0.84053   0.86554   0.87210
 Alpha virt. eigenvalues --    1.17336   1.17936   1.21794   1.22405   2.57353

 Mulliken charges:
               1
     1  O   -0.741010
     2  H    0.369220
     3  H    0.371790
     4  O   -0.740762
     5  H    0.367640
     6  H    0.373122
 Sum of Mulliken charges =  -0.00000

 Dipole moment (field-independent basis, Debye):
    X=             -2.5493    Y=             -1.9757    Z=              0.0000  Tot=              3.2253
 Quadrupole moment (field-independent basis, Debye-Ang):
   XX=            -10.0206   YY=             11.1553   ZZ=            -14.9887
   XY=             -8.0017   XZ=              0.0000   YZ=              0.0000

 \MP4DQ=-33.8914974\MP4SDQ=-33.8935252\CCSD=-33.8945805\CCSD(T)=-33.897
 Normal termination of Gaussian 16 at Sun Dec 10 07:03:54 2023.
