 Gaussian 16, Revision A.03,
 Gaussian 16:  ES64L-G16RevA.03 25-Dec-2016

 ------------------
 #p CCSD(T)/CEP-31G
 ------------------

 ------------
 H2O_H2O_1868
 ------------
 Symbolic Z-matrix:
 Charge =  0 Multiplicity = 1

                         Standard orientation:
 ---------------------------------------------------------------------
 Center     Atomic      Atomic             Coordinates (Angstroms)
 Number     Number       Type             X           Y           Z
 ---------------------------------------------------------------------
      1          8           0        0.052855   -1.749344    0.000000
      2          1           0       -0.748167   -2.318439    0.000000
      3          1           0        0.850970   -2.322510    0.000000
      4          8           0        0.052855    1.819589    0.000000
      5          1           0       -0.166381    2.777421    0.000000
      6          1           0       -0.782106    1.301569    0.000000
 ---------------------------------------------------------------------

 SCF Done:  E(RHF) =  -33.6507531635     A.U. after   11 cycles
 E2 =    -0.2287703440D+00 EUMP2 =    -0.33879523507436D+02
 CCSD(T)
 CCSD(T)= -0.33896581668D+02

 The electronic state is 1-A'.
 Alpha  occ. eigenvalues --   -1.35316  -1.33539  -0.70953  -0.69096  -0.55001
 Alpha  occ. eigenvalues --   -0.53172  -0.49873  -0.48104
 Alpha virt. eigenvalues --    0.19739   0.22888   0.30547   0.32483   0.76526
 Alpha virt. eigenvalues --    0.80020   0.83100   0.85933   0.87257   1.00467
 Alpha virt. eigenvalues --    1.17502   1.20036   1.21939   1.24960   2.56355

 Mulliken charges:
               1
     1  O   -0.737559
     2  H    0.362731
     3  H    0.375581
     4  O   -0.733217
     5  H    0.354713
     6  H    0.377750
 Sum of Mulliken charges =  -0.00000

 Dipole moment (field-independent basis, Debye):
    X=             -2.3964    Y=             -1.7254    Z=              0.0000  Tot=              2.9529
 Quadrupole moment (field-independent basis, Debye-Ang):
   XX=             -9.8431   YY=              2.3839   ZZ=            -14.9897
   XY=             -3.9787   XZ=              0.0000   YZ=              0.0000

 \MP4DQ=-33.8908861\MP4SDQ=-33.892947\CCSD=-33.8939897\CCSD(T)=-33.8965
 Normal termination of Gaussian 16 at Sun Dec 10 06:59:35 2023.
