 Gaussian 16, Revision A.03,
 Gaussian 16:  ES64L-G16RevA.03 25-Dec-2016

 ------------------
 #p CCSD(T)/CEP-31G
 ------------------

 ------------
 H2O_H2O_1797
 ------------
 Symbolic Z-matrix:
 Charge =  0 Multiplicity = 1

                         Standard orientation:
 ---------------------------------------------------------------------
 Center     Atomic      Atomic             Coordinates (Angstroms)
 Number     Number       Type             X           Y           Z
 ---------------------------------------------------------------------
      1          8           0        0.056763   -1.693840    0.000000
      2          1           0       -0.744402   -2.262735    0.000000
      3          1           0        0.854734   -2.267206    0.000000
      4          8           0        0.056763    1.792840    0.000000
      5          1           0       -0.402691    2.661407    0.000000
      6          1           0       -0.615853    1.076535    0.000000
 ---------------------------------------------------------------------

 SCF Done:  E(RHF) =  -33.6532486449     A.U. after   11 cycles
 E2 =    -0.2287649794D+00 EUMP2 =    -0.33882013624261D+02
 CCSD(T)
 CCSD(T)= -0.33899015313D+02

 The electronic state is 1-A'.
 Alpha  occ. eigenvalues --   -1.35966  -1.33283  -0.71610  -0.68842  -0.55787
 Alpha  occ. eigenvalues --   -0.53030  -0.50556  -0.47877
 Alpha virt. eigenvalues --    0.19182   0.23535   0.30030   0.33276   0.77398
 Alpha virt. eigenvalues --    0.79347   0.83315   0.86050   0.87072   1.00135
 Alpha virt. eigenvalues --    1.16916   1.20250   1.21503   1.27403   2.54495

 Mulliken charges:
               1
     1  O   -0.746118
     2  H    0.366425
     3  H    0.381055
     4  O   -0.743177
     5  H    0.354186
     6  H    0.387629
 Sum of Mulliken charges =   0.00000

 Dipole moment (field-independent basis, Debye):
    X=             -2.5721    Y=             -2.4512    Z=              0.0000  Tot=              3.5531
 Quadrupole moment (field-independent basis, Debye-Ang):
   XX=            -10.1077   YY=             -0.0731   ZZ=            -14.9938
   XY=             -4.6824   XZ=              0.0000   YZ=              0.0000

 P4DQ=-33.8933121\MP4SDQ=-33.8953796\CCSD=-33.8964149\CCSD(T)=-33.89901
 Normal termination of Gaussian 16 at Sun Dec 10 06:58:16 2023.
