 Gaussian 16, Revision A.03,
 Gaussian 16:  ES64L-G16RevA.03 25-Dec-2016

 ------------------
 #p CCSD(T)/CEP-31G
 ------------------

 ------------
 H2O_H2O_4586
 ------------
 Symbolic Z-matrix:
 Charge =  0 Multiplicity = 1

                         Standard orientation:
 ---------------------------------------------------------------------
 Center     Atomic      Atomic             Coordinates (Angstroms)
 Number     Number       Type             X           Y           Z
 ---------------------------------------------------------------------
      1          8           0        0.037672   -3.221397    0.000000
      2          1           0       -0.762471   -3.791727    0.000000
      3          1           0        0.836670   -3.793329    0.000000
      4          8           0        0.037672    3.249668    0.000000
      5          1           0        0.263206    4.206035    0.000000
      6          1           0       -0.940150    3.152852    0.000000
 ---------------------------------------------------------------------

 SCF Done:  E(RHF) =  -33.6510424575     A.U. after   11 cycles
 E2 =    -0.2284218317D+00 EUMP2 =    -0.33879464289173D+02
 CCSD(T)
 CCSD(T)= -0.33896486122D+02

 The electronic state is 1-A'.
 Alpha  occ. eigenvalues --   -1.35205  -1.35003  -0.70835  -0.70628  -0.54899
 Alpha  occ. eigenvalues --   -0.54696  -0.49765  -0.49563
 Alpha virt. eigenvalues --    0.20525   0.20730   0.30759   0.30959   0.80788
 Alpha virt. eigenvalues --    0.80987   0.83884   0.84083   0.86969   0.87201
 Alpha virt. eigenvalues --    1.17665   1.17865   1.22129   1.22330   2.57700

 Mulliken charges:
               1
     1  O   -0.738466
     2  H    0.368320
     3  H    0.370146
     4  O   -0.738240
     5  H    0.367672
     6  H    0.370568
 Sum of Mulliken charges =   0.00000

 Dipole moment (field-independent basis, Debye):
    X=             -1.7392    Y=             -0.6608    Z=              0.0000  Tot=              1.8605
 Quadrupole moment (field-independent basis, Debye-Ang):
   XX=             -8.9581   YY=             18.8860   ZZ=            -14.9874
   XY=             -4.7987   XZ=              0.0000   YZ=              0.0000

 \MP4DQ=-33.8908362\MP4SDQ=-33.8928659\CCSD=-33.8939226\CCSD(T)=-33.896
 Normal termination of Gaussian 16 at Sun Dec 10 07:04:12 2023.
