 Gaussian 16, Revision A.03,
 Gaussian 16:  ES64L-G16RevA.03 25-Dec-2016

 ------------------
 #p CCSD(T)/CEP-31G
 ------------------

 -----------
 H2O_H2O_869
 -----------
 Symbolic Z-matrix:
 Charge =  0 Multiplicity = 1

                         Standard orientation:
 ---------------------------------------------------------------------
 Center     Atomic      Atomic             Coordinates (Angstroms)
 Number     Number       Type             X           Y           Z
 ---------------------------------------------------------------------
      1          8           0        0.054226   -1.213779    0.000000
      2          1           0       -0.747463   -1.781934    0.000000
      3          1           0        0.851668   -1.787879    0.000000
      4          8           0        0.054226    1.290886    0.000000
      5          1           0       -0.226084    2.232657    0.000000
      6          1           0       -0.745737    0.720301    0.000000
 ---------------------------------------------------------------------

 SCF Done:  E(RHF) =  -33.6437260602     A.U. after   11 cycles
 E2 =    -0.2302090637D+00 EUMP2 =    -0.33873935123829D+02
 CCSD(T)
 CCSD(T)= -0.33891082133D+02

 The electronic state is 1-A'.
 Alpha  occ. eigenvalues --   -1.35563  -1.31696  -0.71240  -0.67939  -0.54793
 Alpha  occ. eigenvalues --   -0.51024  -0.50152  -0.46186
 Alpha virt. eigenvalues --    0.19503   0.25997   0.30448   0.34315   0.77577
 Alpha virt. eigenvalues --    0.82878   0.88247   0.89851   0.94545   1.14977
 Alpha virt. eigenvalues --    1.19591   1.20696   1.23241   1.30188   2.68269

 Mulliken charges:
               1
     1  O   -0.755071
     2  H    0.358328
     3  H    0.392473
     4  O   -0.709633
     5  H    0.335207
     6  H    0.378695
 Sum of Mulliken charges =   0.00000

 Dipole moment (field-independent basis, Debye):
    X=             -2.3198    Y=             -1.9743    Z=              0.0000  Tot=              3.0462
 Quadrupole moment (field-independent basis, Debye-Ang):
   XX=             -9.9308   YY=             -2.4972   ZZ=            -14.9982
   XY=             -2.9033   XZ=              0.0000   YZ=              0.0000

 P4DQ=-33.8851347\MP4SDQ=-33.8873105\CCSD=-33.8883311\CCSD(T)=-33.89108
 Normal termination of Gaussian 16 at Sun Dec 10 06:41:00 2023.
