 Gaussian 16, Revision A.03,
 Gaussian 16:  ES64L-G16RevA.03 25-Dec-2016

 ------------------
 #p CCSD(T)/CEP-31G
 ------------------

 -----------
 H2O_H2O_693
 -----------
 Symbolic Z-matrix:
 Charge =  0 Multiplicity = 1

                         Standard orientation:
 ---------------------------------------------------------------------
 Center     Atomic      Atomic             Coordinates (Angstroms)
 Number     Number       Type             X           Y           Z
 ---------------------------------------------------------------------
      1          8           0        0.052903   -1.124512    0.000000
      2          1           0       -0.748899   -1.692508    0.000000
      3          1           0        0.850231   -1.698772    0.000000
      4          8           0        0.052903    1.194612    0.000000
      5          1           0       -0.165019    2.152743    0.000000
      6          1           0       -0.782768    0.677737    0.000000
 ---------------------------------------------------------------------

 SCF Done:  E(RHF) =  -33.6350214345     A.U. after   11 cycles
 E2 =    -0.2307936852D+00 EUMP2 =    -0.33865815119690D+02
 CCSD(T)
 CCSD(T)= -0.33882987659D+02

 The electronic state is 1-A'.
 Alpha  occ. eigenvalues --   -1.35396  -1.31328  -0.71099  -0.68025  -0.54539
 Alpha  occ. eigenvalues --   -0.49999  -0.49921  -0.45722
 Alpha virt. eigenvalues --    0.19656   0.26470   0.30637   0.34216   0.77864
 Alpha virt. eigenvalues --    0.84250   0.89142   0.94008   0.95930   1.14506
 Alpha virt. eigenvalues --    1.19046   1.21364   1.24400   1.31066   2.64360

 Mulliken charges:
               1
     1  O   -0.760080
     2  H    0.356086
     3  H    0.394256
     4  O   -0.693824
     5  H    0.331646
     6  H    0.371916
 Sum of Mulliken charges =   0.00000

 Dipole moment (field-independent basis, Debye):
    X=             -2.2095    Y=             -1.7855    Z=              0.0000  Tot=              2.8407
 Quadrupole moment (field-independent basis, Debye-Ang):
   XX=             -9.8552   YY=             -3.1480   ZZ=            -14.9980
   XY=             -2.4975   XZ=              0.0000   YZ=              0.0000

 \MP4DQ=-33.8769534\MP4SDQ=-33.8791671\CCSD=-33.8801746\CCSD(T)=-33.882
 Normal termination of Gaussian 16 at Sun Dec 10 06:37:41 2023.
