 Gaussian 16, Revision A.03,
 Gaussian 16:  ES64L-G16RevA.03 25-Dec-2016

 ------------------
 #p CCSD(T)/CEP-31G
 ------------------

 ------------
 H2O_H2O_1506
 ------------
 Symbolic Z-matrix:
 Charge =  0 Multiplicity = 1

                         Standard orientation:
 ---------------------------------------------------------------------
 Center     Atomic      Atomic             Coordinates (Angstroms)
 Number     Number       Type             X           Y           Z
 ---------------------------------------------------------------------
      1          8           0        0.021861   -1.596658    0.000000
      2          1           0       -0.778380   -2.166850    0.000000
      3          1           0        0.820761   -2.168730    0.000000
      4          8           0        0.021861    1.605302    0.000000
      5          1           0        0.542986    2.438330    0.000000
      6          1           0       -0.935147    1.828102    0.000000
 ---------------------------------------------------------------------

 SCF Done:  E(RHF) =  -33.6434256414     A.U. after   11 cycles
 E2 =    -0.2290767781D+00 EUMP2 =    -0.33872502419550D+02
 CCSD(T)
 CCSD(T)= -0.33889787832D+02

 The electronic state is 1-A'.
 Alpha  occ. eigenvalues --   -1.33661  -1.33382  -0.69278  -0.68986  -0.53718
 Alpha  occ. eigenvalues --   -0.51831  -0.48194  -0.47768
 Alpha virt. eigenvalues --    0.21026   0.22712   0.31910   0.32216   0.76496
 Alpha virt. eigenvalues --    0.80264   0.83886   0.84921   0.93738   1.06794
 Alpha virt. eigenvalues --    1.18918   1.19488   1.23515   1.23852   2.59530

 Mulliken charges:
               1
     1  O   -0.715260
     2  H    0.354015
     3  H    0.361216
     4  O   -0.712990
     5  H    0.352781
     6  H    0.360238
 Sum of Mulliken charges =  -0.00000

 Dipole moment (field-independent basis, Debye):
    X=             -0.9834    Y=             -0.2154    Z=              0.0000  Tot=              1.0067
 Quadrupole moment (field-independent basis, Debye-Ang):
   XX=             -8.4459   YY=              4.1563   ZZ=            -14.9840
   XY=             -1.0651   XZ=              0.0000   YZ=              0.0000

 P4DQ=-33.8840164\MP4SDQ=-33.8860995\CCSD=-33.8871662\CCSD(T)=-33.88978
 Normal termination of Gaussian 16 at Sun Dec 10 06:52:53 2023.
