 Gaussian 16, Revision A.03,
 Gaussian 16:  ES64L-G16RevA.03 25-Dec-2016

 ------------------
 #p CCSD(T)/CEP-31G
 ------------------

 ------------
 H2O_H2O_1448
 ------------
 Symbolic Z-matrix:
 Charge =  0 Multiplicity = 1

                         Standard orientation:
 ---------------------------------------------------------------------
 Center     Atomic      Atomic             Coordinates (Angstroms)
 Number     Number       Type             X           Y           Z
 ---------------------------------------------------------------------
      1          8           0        0.057159   -1.503681    0.000000
      2          1           0       -0.744208   -2.072290    0.000000
      3          1           0        0.854926   -2.077329    0.000000
      4          8           0        0.057159    1.610077    0.000000
      5          1           0       -0.457822    2.446917    0.000000
      6          1           0       -0.567439    0.851535    0.000000
 ---------------------------------------------------------------------

 SCF Done:  E(RHF) =  -33.6543013573     A.U. after   11 cycles
 E2 =    -0.2290669004D+00 EUMP2 =    -0.33883368257661D+02
 CCSD(T)
 CCSD(T)= -0.33900360095D+02

 The electronic state is 1-A'.
 Alpha  occ. eigenvalues --   -1.36323  -1.32637  -0.71972  -0.68297  -0.56175
 Alpha  occ. eigenvalues --   -0.52428  -0.50931  -0.47243
 Alpha virt. eigenvalues --    0.18975   0.24728   0.29785   0.34689   0.76704
 Alpha virt. eigenvalues --    0.78222   0.84824   0.86531   0.89853   1.07273
 Alpha virt. eigenvalues --    1.16556   1.20260   1.21721   1.29486   2.53471

 Mulliken charges:
               1
     1  O   -0.754106
     2  H    0.367171
     3  H    0.388656
     4  O   -0.745652
     5  H    0.348461
     6  H    0.395469
 Sum of Mulliken charges =  -0.00000

 Dipole moment (field-independent basis, Debye):
    X=             -2.5605    Y=             -2.6924    Z=              0.0000  Tot=              3.7155
 Quadrupole moment (field-independent basis, Debye-Ang):
   XX=            -10.1258   YY=             -1.8490   ZZ=            -14.9982
   XY=             -4.3673   XZ=              0.0000   YZ=              0.0000

 3\MP4DQ=-33.8945947\MP4SDQ=-33.8966906\CCSD=-33.8977163\CCSD(T)=-33.90
 Normal termination of Gaussian 16 at Sun Dec 10 06:51:49 2023.
