 Gaussian 16, Revision A.03,
 Gaussian 16:  ES64L-G16RevA.03 25-Dec-2016

 ------------------
 #p CCSD(T)/CEP-31G
 ------------------

 ------------
 H2O_H2O_2123
 ------------
 Symbolic Z-matrix:
 Charge =  0 Multiplicity = 1

                         Standard orientation:
 ---------------------------------------------------------------------
 Center     Atomic      Atomic             Coordinates (Angstroms)
 Number     Number       Type             X           Y           Z
 ---------------------------------------------------------------------
      1          8           0        0.057127   -1.862635    0.000000
      2          1           0       -0.743903   -2.431718    0.000000
      3          1           0        0.855233   -2.435813    0.000000
      4          8           0        0.057127    1.969099    0.000000
      5          1           0       -0.458347    2.805634    0.000000
      6          1           0       -0.567022    1.210188    0.000000
 ---------------------------------------------------------------------

 SCF Done:  E(RHF) =  -33.6534295272     A.U. after   11 cycles
 E2 =    -0.2285766791D+00 EUMP2 =    -0.33882006206353D+02
 CCSD(T)
 CCSD(T)= -0.33898979339D+02

 The electronic state is 1-A'.
 Alpha  occ. eigenvalues --   -1.36011  -1.33655  -0.71653  -0.69218  -0.55844
 Alpha  occ. eigenvalues --   -0.53411  -0.50604  -0.48249
 Alpha virt. eigenvalues --    0.19236   0.22865   0.30004   0.32748   0.79751
 Alpha virt. eigenvalues --    0.79802   0.82466   0.85603   0.86367   0.93751
 Alpha virt. eigenvalues --    1.16926   1.19770   1.21349   1.26230   2.55532

 Mulliken charges:
               1
     1  O   -0.746159
     2  H    0.368125
     3  H    0.379066
     4  O   -0.745319
     5  H    0.358241
     6  H    0.386046
 Sum of Mulliken charges =   0.00000

 Dipole moment (field-independent basis, Debye):
    X=             -2.6047    Y=             -2.5987    Z=              0.0000  Tot=              3.6794
 Quadrupole moment (field-independent basis, Debye-Ang):
   XX=            -10.1405   YY=              0.3678   ZZ=            -14.9931
   XY=             -5.2903   XZ=              0.0000   YZ=              0.0000

 6\MP4DQ=-33.8933089\MP4SDQ=-33.8953591\CCSD=-33.8963978\CCSD(T)=-33.89
 Normal termination of Gaussian 16 at Sun Dec 10 07:05:37 2023.
