 Gaussian 16, Revision A.03,
 Gaussian 16:  ES64L-G16RevA.03 25-Dec-2016

 ------------------
 #p CCSD(T)/CEP-31G
 ------------------

 ------------
 H2O_H2O_2609
 ------------
 Symbolic Z-matrix:
 Charge =  0 Multiplicity = 1

                         Standard orientation:
 ---------------------------------------------------------------------
 Center     Atomic      Atomic             Coordinates (Angstroms)
 Number     Number       Type             X           Y           Z
 ---------------------------------------------------------------------
      1          8           0        0.031742   -2.175961    0.000000
      2          1           0       -0.768542   -2.746093    0.000000
      3          1           0        0.830599   -2.748092    0.000000
      4          8           0        0.031742    2.195132    0.000000
      5          1           0        0.380406    3.113794    0.000000
      6          1           0       -0.950342    2.227020    0.000000
 ---------------------------------------------------------------------

 SCF Done:  E(RHF) =  -33.6489944080     A.U. after   11 cycles
 E2 =    -0.2285789132D+00 EUMP2 =    -0.33877573321255D+02
 CCSD(T)
 CCSD(T)= -0.33894655270D+02

 The electronic state is 1-A'.
 Alpha  occ. eigenvalues --   -1.34632  -1.34324  -0.70257  -0.69934  -0.54226
 Alpha  occ. eigenvalues --   -0.53871  -0.49163  -0.48856
 Alpha virt. eigenvalues --    0.20865   0.21410   0.31218   0.31508   0.81287
 Alpha virt. eigenvalues --    0.81789   0.82054   0.86287   0.87741   0.89615
 Alpha virt. eigenvalues --    1.18153   1.18460   1.22637   1.22947   2.58213

 Mulliken charges:
               1
     1  O   -0.731461
     2  H    0.363465
     3  H    0.368018
     4  O   -0.730419
     5  H    0.362113
     6  H    0.368284
 Sum of Mulliken charges =  -0.00000

 Dipole moment (field-independent basis, Debye):
    X=             -1.4545    Y=             -0.4577    Z=              0.0000  Tot=              1.5248
 Quadrupole moment (field-independent basis, Debye-Ang):
   XX=             -8.7129   YY=              9.6626   ZZ=            -14.9856
   XY=             -2.4453   XZ=              0.0000   YZ=              0.0000

 \MP4DQ=-33.8889859\MP4SDQ=-33.8910236\CCSD=-33.8920814\CCSD(T)=-33.894
 Normal termination of Gaussian 16 at Sun Dec 10 06:26:45 2023.
