 Gaussian 16, Revision A.03,
 Gaussian 16:  ES64L-G16RevA.03 25-Dec-2016

 ------------------
 #p CCSD(T)/CEP-31G
 ------------------

 ------------
 H2O_H2O_1243
 ------------
 Symbolic Z-matrix:
 Charge =  0 Multiplicity = 1

                         Standard orientation:
 ---------------------------------------------------------------------
 Center     Atomic      Atomic             Coordinates (Angstroms)
 Number     Number       Type             X           Y           Z
 ---------------------------------------------------------------------
      1          8           0        0.052876   -1.416979    0.000000
      2          1           0       -0.748478   -1.985607    0.000000
      3          1           0        0.850656   -1.990609    0.000000
      4          8           0        0.052876    1.487162    0.000000
      5          1           0       -0.165803    2.445121    0.000000
      6          1           0       -0.782387    0.969628    0.000000
 ---------------------------------------------------------------------

 SCF Done:  E(RHF) =  -33.6487293450     A.U. after   11 cycles
 E2 =    -0.2294139584D+00 EUMP2 =    -0.33878143303336D+02
 CCSD(T)
 CCSD(T)= -0.33895318512D+02

 The electronic state is 1-A'.
 Alpha  occ. eigenvalues --   -1.35237  -1.32602  -0.70884  -0.68235  -0.54919
 Alpha  occ. eigenvalues --   -0.52059  -0.49798  -0.47142
 Alpha virt. eigenvalues --    0.19643   0.24527   0.30659   0.33320   0.77898
 Alpha virt. eigenvalues --    0.78451   0.86012   0.86311   0.90341   1.14403
 Alpha virt. eigenvalues --    1.17588   1.21241   1.22404   1.27890   2.58934

 Mulliken charges:
               1
     1  O   -0.739399
     2  H    0.358274
     3  H    0.380918
     4  O   -0.722368
     5  H    0.344417
     6  H    0.378158
 Sum of Mulliken charges =   0.00000

 Dipole moment (field-independent basis, Debye):
    X=             -2.3391    Y=             -1.7695    Z=              0.0000  Tot=              2.9330
 Quadrupole moment (field-independent basis, Debye-Ang):
   XX=             -9.8453   YY=             -0.3274   ZZ=            -14.9925
   XY=             -3.1997   XZ=              0.0000   YZ=              0.0000

 8\MP4DQ=-33.8895056\MP4SDQ=-33.8916229\CCSD=-33.8926659\CCSD(T)=-33.89
 Normal termination of Gaussian 16 at Sun Dec 10 06:47:59 2023.
