 Gaussian 16, Revision A.03,
 Gaussian 16:  ES64L-G16RevA.03 25-Dec-2016

 ------------------
 #p CCSD(T)/CEP-31G
 ------------------

 -----------
 H2O_H2O_991
 -----------
 Symbolic Z-matrix:
 Charge =  0 Multiplicity = 1

                         Standard orientation:
 ---------------------------------------------------------------------
 Center     Atomic      Atomic             Coordinates (Angstroms)
 Number     Number       Type             X           Y           Z
 ---------------------------------------------------------------------
      1          8           0        0.049553   -1.291291    0.000000
      2          1           0       -0.751856   -1.859840    0.000000
      3          1           0        0.847277   -1.865000    0.000000
      4          8           0        0.049553    1.348085    0.000000
      5          1           0       -0.042120    2.326401    0.000000
      6          1           0       -0.846155    0.944090    0.000000
 ---------------------------------------------------------------------

 SCF Done:  E(RHF) =  -33.6436803919     A.U. after   11 cycles
 E2 =    -0.2298795529D+00 EUMP2 =    -0.33873559944813D+02
 CCSD(T)
 CCSD(T)= -0.33890843431D+02

 The electronic state is 1-A'.
 Alpha  occ. eigenvalues --   -1.34705  -1.32235  -0.70352  -0.67982  -0.54651
 Alpha  occ. eigenvalues --   -0.50999  -0.49282  -0.46681
 Alpha virt. eigenvalues --    0.19954   0.24975   0.31108   0.33253   0.78248
 Alpha virt. eigenvalues --    0.82107   0.86663   0.87586   0.92969   1.16440
 Alpha virt. eigenvalues --    1.18705   1.22033   1.22705   1.29119   2.62129

 Mulliken charges:
               1
     1  O   -0.737443
     2  H    0.353822
     3  H    0.379905
     4  O   -0.706938
     5  H    0.340805
     6  H    0.369849
 Sum of Mulliken charges =  -0.00000

 Dipole moment (field-independent basis, Debye):
    X=             -2.1499    Y=             -1.4282    Z=              0.0000  Tot=              2.5810
 Quadrupole moment (field-independent basis, Debye-Ang):
   XX=             -9.6523   YY=             -0.9055   ZZ=            -14.9925
   XY=             -2.5119   XZ=              0.0000   YZ=              0.0000

 \MP4DQ=-33.8849537\MP4SDQ=-33.8870983\CCSD=-33.8881512\CCSD(T)=-33.890
 Normal termination of Gaussian 16 at Sun Dec 10 06:43:17 2023.
