 Gaussian 16, Revision A.03,
 Gaussian 16:  ES64L-G16RevA.03 25-Dec-2016

 ------------------
 #p CCSD(T)/CEP-31G
 ------------------

 -----------
 H2O_H2O_778
 -----------
 Symbolic Z-matrix:
 Charge =  0 Multiplicity = 1

                         Standard orientation:
 ---------------------------------------------------------------------
 Center     Atomic      Atomic             Coordinates (Angstroms)
 Number     Number       Type             X           Y           Z
 ---------------------------------------------------------------------
      1          8           0        0.011143   -1.214589    0.000000
      2          1           0       -0.788878   -1.785090    0.000000
      3          1           0        0.810263   -1.786352    0.000000
      4          8           0        0.011143    1.216766    0.000000
      5          1           0        0.684493    1.932383    0.000000
      6          1           0       -0.884168    1.621642    0.000000
 ---------------------------------------------------------------------

 SCF Done:  E(RHF) =  -33.6279335457     A.U. after   11 cycles
 E2 =    -0.2302145643D+00 EUMP2 =    -0.33858148110035D+02
 CCSD(T)
 CCSD(T)= -0.33875564354D+02

 The electronic state is 1-A'.
 Alpha  occ. eigenvalues --   -1.32752  -1.31872  -0.68246  -0.67577  -0.55123
 Alpha  occ. eigenvalues --   -0.47500  -0.47075  -0.45820
 Alpha virt. eigenvalues --    0.21488   0.24397   0.32711   0.32995   0.79020
 Alpha virt. eigenvalues --    0.79537   0.89160   0.91253   1.04036   1.10704
 Alpha virt. eigenvalues --    1.19762   1.21923   1.24159   1.25671   2.54509

 Mulliken charges:
               1
     1  O   -0.700808
     2  H    0.346172
     3  H    0.353934
     4  O   -0.697852
     5  H    0.349196
     6  H    0.349358
 Sum of Mulliken charges =  -0.00000

 Dipole moment (field-independent basis, Debye):
    X=             -0.4702    Y=             -0.0520    Z=              0.0000  Tot=              0.4731
 Quadrupole moment (field-independent basis, Debye-Ang):
   XX=             -8.3309   YY=             -0.4357   ZZ=            -14.9988
   XY=             -0.3382   XZ=              0.0000   YZ=              0.0000

 MP4DQ=-33.8696159\MP4SDQ=-33.8717333\CCSD=-33.8728231\CCSD(T)=-33.8755
 Normal termination of Gaussian 16 at Sun Dec 10 06:39:17 2023.
