 Gaussian 16, Revision A.03,
 Gaussian 16:  ES64L-G16RevA.03 25-Dec-2016

 ------------------
 #p CCSD(T)/CEP-31G
 ------------------

 ------------
 H2O_H2O_4090
 ------------
 Symbolic Z-matrix:
 Charge =  0 Multiplicity = 1

                         Standard orientation:
 ---------------------------------------------------------------------
 Center     Atomic      Atomic             Coordinates (Angstroms)
 Number     Number       Type             X           Y           Z
 ---------------------------------------------------------------------
      1          8           0        0.047523   -2.943332    0.000000
      2          1           0       -0.752834   -3.513363    0.000000
      3          1           0        0.846307   -3.515565    0.000000
      4          8           0        0.047523    2.993967    0.000000
      5          1           0        0.018214    3.976132    0.000000
      6          1           0       -0.872052    2.647718    0.000000
 ---------------------------------------------------------------------

 SCF Done:  E(RHF) =  -33.6511871137     A.U. after   11 cycles
 E2 =    -0.2284218374D+00 EUMP2 =    -0.33879608951158D+02
 CCSD(T)
 CCSD(T)= -0.33896626525D+02

 The electronic state is 1-A'.
 Alpha  occ. eigenvalues --   -1.35303  -1.34871  -0.70934  -0.70491  -0.55005
 Alpha  occ. eigenvalues --   -0.54569  -0.49866  -0.49434
 Alpha virt. eigenvalues --    0.20434   0.20877   0.30671   0.31100   0.80687
 Alpha virt. eigenvalues --    0.81113   0.83767   0.84200   0.86858   0.87353
 Alpha virt. eigenvalues --    1.17573   1.18001   1.22036   1.22469   2.57604

 Mulliken charges:
               1
     1  O   -0.739005
     2  H    0.368060
     3  H    0.370945
     4  O   -0.738561
     5  H    0.366757
     6  H    0.371804
 Sum of Mulliken charges =   0.00000

 Dipole moment (field-independent basis, Debye):
    X=             -2.1919    Y=             -1.1868    Z=              0.0000  Tot=              2.4926
 Quadrupole moment (field-independent basis, Debye-Ang):
   XX=             -9.5040   YY=             13.7521   ZZ=            -14.9878
   XY=             -5.8181   XZ=              0.0000   YZ=              0.0000

 MP4DQ=-33.8909777\MP4SDQ=-33.893007\CCSD=-33.8940632\CCSD(T)=-33.89662
 Normal termination of Gaussian 16 at Sun Dec 10 06:53:46 2023.
