 Gaussian 16, Revision A.03,
 Gaussian 16:  ES64L-G16RevA.03 25-Dec-2016

 ------------------
 #p CCSD(T)/CEP-31G
 ------------------

 ------------
 H2O_H2O_4680
 ------------
 Symbolic Z-matrix:
 Charge =  0 Multiplicity = 1

                         Standard orientation:
 ---------------------------------------------------------------------
 Center     Atomic      Atomic             Coordinates (Angstroms)
 Number     Number       Type             X           Y           Z
 ---------------------------------------------------------------------
      1          8           0        0.018360   -3.286651    0.000000
      2          1           0       -0.781485   -3.857399    0.000000
      3          1           0        0.817656   -3.858167    0.000000
      4          8           0        0.018360    3.292696    0.000000
      5          1           0        0.592297    4.090256    0.000000
      6          1           0       -0.922226    3.576956    0.000000
 ---------------------------------------------------------------------

 SCF Done:  E(RHF) =  -33.6508101217     A.U. after   11 cycles
 E2 =    -0.2284301702D+00 EUMP2 =    -0.33879240291956D+02
 CCSD(T)
 CCSD(T)= -0.33896268838D+02

 The electronic state is 1-A'.
 Alpha  occ. eigenvalues --   -1.35077  -1.35035  -0.70705  -0.70662  -0.54758
 Alpha  occ. eigenvalues --   -0.54716  -0.49634  -0.49592
 Alpha virt. eigenvalues --    0.20640   0.20683   0.30873   0.30914   0.80920
 Alpha virt. eigenvalues --    0.80961   0.84039   0.84080   0.87115   0.87164
 Alpha virt. eigenvalues --    1.17783   1.17824   1.22249   1.22290   2.57824

 Mulliken charges:
               1
     1  O   -0.737628
     2  H    0.368385
     3  H    0.369244
     4  O   -0.737571
     5  H    0.368166
     6  H    0.369405
 Sum of Mulliken charges =   0.00000

 Dipole moment (field-independent basis, Debye):
    X=             -0.8478    Y=             -0.1412    Z=              0.0000  Tot=              0.8595
 Quadrupole moment (field-independent basis, Debye-Ang):
   XX=             -8.2550   YY=             22.1791   ZZ=            -14.9870
   XY=             -2.2521   XZ=              0.0000   YZ=              0.0000

 \MP4DQ=-33.8906171\MP4SDQ=-33.8926473\CCSD=-33.8937046\CCSD(T)=-33.896
 Normal termination of Gaussian 16 at Sun Dec 10 07:05:55 2023.
