 Gaussian 16, Revision A.03,
 Gaussian 16:  ES64L-G16RevA.03 25-Dec-2016

 ------------------
 #p CCSD(T)/CEP-31G
 ------------------

 -----------
 H2O_H2O_955
 -----------
 Symbolic Z-matrix:
 Charge =  0 Multiplicity = 1

                         Standard orientation:
 ---------------------------------------------------------------------
 Center     Atomic      Atomic             Coordinates (Angstroms)
 Number     Number       Type             X           Y           Z
 ---------------------------------------------------------------------
      1          8           0        0.018362   -1.305575    0.000000
      2          1           0       -0.781898   -1.875740    0.000000
      3          1           0        0.817243   -1.877672    0.000000
      4          8           0        0.018362    1.311592    0.000000
      5          1           0        0.592879    2.108735    0.000000
      6          1           0       -0.922016    1.596536    0.000000
 ---------------------------------------------------------------------

 SCF Done:  E(RHF) =  -33.6346769557     A.U. after   11 cycles
 E2 =    -0.2297768852D+00 EUMP2 =    -0.33864453840860D+02
 CCSD(T)
 CCSD(T)= -0.33881883485D+02

 The electronic state is 1-A'.
 Alpha  occ. eigenvalues --   -1.32972  -1.32385  -0.68532  -0.68040  -0.54404
 Alpha  occ. eigenvalues --   -0.48859  -0.47646  -0.46480
 Alpha virt. eigenvalues --    0.21308   0.23914   0.32465   0.32769   0.79380
 Alpha virt. eigenvalues --    0.80206   0.85516   0.88160   1.01644   1.11526
 Alpha virt. eigenvalues --    1.19492   1.21617   1.24222   1.24951   2.56889

 Mulliken charges:
               1
     1  O   -0.705451
     2  H    0.347007
     3  H    0.357377
     4  O   -0.700002
     5  H    0.348735
     6  H    0.352334
 Sum of Mulliken charges =   0.00000

 Dipole moment (field-independent basis, Debye):
    X=             -0.7946    Y=             -0.1469    Z=              0.0000  Tot=              0.8081
 Quadrupole moment (field-independent basis, Debye-Ang):
   XX=             -8.4292   YY=              0.7409   ZZ=            -14.9912
   XY=             -0.6527   XZ=              0.0000   YZ=              0.0000

 4DQ=-33.8759928\MP4SDQ=-33.8780997\CCSD=-33.8791918\CCSD(T)=-33.881883
 Normal termination of Gaussian 16 at Sun Dec 10 06:42:37 2023.
