 Gaussian 16, Revision A.03,
 Gaussian 16:  ES64L-G16RevA.03 25-Dec-2016

 ------------------
 #p CCSD(T)/CEP-31G
 ------------------

 ------------
 H2O_H2O_2096
 ------------
 Symbolic Z-matrix:
 Charge =  0 Multiplicity = 1

                         Standard orientation:
 ---------------------------------------------------------------------
 Center     Atomic      Atomic             Coordinates (Angstroms)
 Number     Number       Type             X           Y           Z
 ---------------------------------------------------------------------
      1          8           0        0.056132   -1.857379    0.000000
      2          1           0       -0.744883   -2.426484    0.000000
      3          1           0        0.854253   -2.430535    0.000000
      4          8           0        0.056132    1.949037    0.000000
      5          1           0       -0.345766    2.845688    0.000000
      6          1           0       -0.661717    1.278068    0.000000
 ---------------------------------------------------------------------

 SCF Done:  E(RHF) =  -33.6524315820     A.U. after   11 cycles
 E2 =    -0.2286115470D+00 EUMP2 =    -0.33881043128984D+02
 CCSD(T)
 CCSD(T)= -0.33898042031D+02

 The electronic state is 1-A'.
 Alpha  occ. eigenvalues --   -1.35739  -1.33693  -0.71378  -0.69255  -0.55510
 Alpha  occ. eigenvalues --   -0.53415  -0.50318  -0.48277
 Alpha virt. eigenvalues --    0.19472   0.22728   0.30214   0.32532   0.78871
 Alpha virt. eigenvalues --    0.79978   0.82503   0.85808   0.86467   0.95017
 Alpha virt. eigenvalues --    1.17160   1.19728   1.21563   1.25374   2.56055

 Mulliken charges:
               1
     1  O   -0.742943
     2  H    0.366271
     3  H    0.377484
     4  O   -0.740835
     5  H    0.357643
     6  H    0.382380
 Sum of Mulliken charges =  -0.00000

 Dipole moment (field-independent basis, Debye):
    X=             -2.5576    Y=             -2.2351    Z=              0.0000  Tot=              3.3966
 Quadrupole moment (field-independent basis, Debye-Ang):
   XX=            -10.0684   YY=              1.5769   ZZ=            -14.9916
   XY=             -4.9028   XZ=              0.0000   YZ=              0.0000

 4\MP4DQ=-33.8923701\MP4SDQ=-33.8944194\CCSD=-33.8954607\CCSD(T)=-33.89
 Normal termination of Gaussian 16 at Sun Dec 10 07:05:07 2023.
