 Gaussian 16, Revision A.03,
 Gaussian 16:  ES64L-G16RevA.03 25-Dec-2016

 ------------------
 #p CCSD(T)/CEP-31G
 ------------------

 ------------
 H2O_H2O_4595
 ------------
 Symbolic Z-matrix:
 Charge =  0 Multiplicity = 1

                         Standard orientation:
 ---------------------------------------------------------------------
 Center     Atomic      Atomic             Coordinates (Angstroms)
 Number     Number       Type             X           Y           Z
 ---------------------------------------------------------------------
      1          8           0        0.055229   -3.190860    0.000000
      2          1           0       -0.745180   -3.760817    0.000000
      3          1           0        0.853960   -3.763166    0.000000
      4          8           0        0.055229    3.275360    0.000000
      5          1           0       -0.288146    4.196012    0.000000
      6          1           0       -0.704302    2.651968    0.000000
 ---------------------------------------------------------------------

 SCF Done:  E(RHF) =  -33.6517542742     A.U. after   11 cycles
 E2 =    -0.2283865393D+00 EUMP2 =    -0.33880140813462D+02
 CCSD(T)
 CCSD(T)= -0.33897141920D+02

 The electronic state is 1-A'.
 Alpha  occ. eigenvalues --   -1.35565  -1.34966  -0.71198  -0.70588  -0.55298
 Alpha  occ. eigenvalues --   -0.54692  -0.50136  -0.49537
 Alpha virt. eigenvalues --    0.20204   0.20819   0.30444   0.31051   0.80416
 Alpha virt. eigenvalues --    0.81006   0.83443   0.84047   0.86554   0.87203
 Alpha virt. eigenvalues --    1.17335   1.17931   1.21794   1.22399   2.57353

 Mulliken charges:
               1
     1  O   -0.741011
     2  H    0.369235
     3  H    0.371776
     4  O   -0.740767
     5  H    0.367674
     6  H    0.373093
 Sum of Mulliken charges =  -0.00000

 Dipole moment (field-independent basis, Debye):
    X=             -2.5494    Y=             -1.9755    Z=              0.0000  Tot=              3.2252
 Quadrupole moment (field-independent basis, Debye-Ang):
   XX=            -10.0206   YY=             11.2449   ZZ=            -14.9887
   XY=             -8.0354   XZ=              0.0000   YZ=              0.0000

 \MP4DQ=-33.8914975\MP4SDQ=-33.8935253\CCSD=-33.8945806\CCSD(T)=-33.897
 Normal termination of Gaussian 16 at Sun Dec 10 07:04:21 2023.
