 Gaussian 16, Revision A.03,
 Gaussian 16:  ES64L-G16RevA.03 25-Dec-2016

 ------------------
 #p CCSD(T)/CEP-31G
 ------------------

 ------------
 H2O_H2O_4224
 ------------
 Symbolic Z-matrix:
 Charge =  0 Multiplicity = 1

                         Standard orientation:
 ---------------------------------------------------------------------
 Center     Atomic      Atomic             Coordinates (Angstroms)
 Number     Number       Type             X           Y           Z
 ---------------------------------------------------------------------
      1          8           0        0.057206   -2.975379    0.000000
      2          1           0       -0.743290   -3.545213    0.000000
      3          1           0        0.855850   -3.547806    0.000000
      4          8           0        0.057206    3.089419    0.000000
      5          1           0       -0.512629    3.889916    0.000000
      6          1           0       -0.515222    2.290776    0.000000
 ---------------------------------------------------------------------

 SCF Done:  E(RHF) =  -33.6521882419     A.U. after   11 cycles
 E2 =    -0.2283656858D+00 EUMP2 =    -0.33880553927632D+02
 CCSD(T)
 CCSD(T)= -0.33897542328D+02

 The electronic state is 1-A'.
 Alpha  occ. eigenvalues --   -1.35765  -1.34851  -0.71400  -0.70470  -0.55523
 Alpha  occ. eigenvalues --   -0.54593  -0.50343  -0.49428
 Alpha virt. eigenvalues --    0.20027   0.20972   0.30271   0.31213   0.80209
 Alpha virt. eigenvalues --    0.81108   0.83190   0.84129   0.86321   0.87295
 Alpha virt. eigenvalues --    1.17154   1.18064   1.21608   1.22542   2.57160

 Mulliken charges:
               1
     1  O   -0.742558
     2  H    0.369786
     3  H    0.372772
     4  O   -0.742441
     5  H    0.367353
     6  H    0.375087
 Sum of Mulliken charges =  -0.00000

 Dipole moment (field-independent basis, Debye):
    X=             -2.6381    Y=             -2.6717    Z=              0.0000  Tot=              3.7547
 Quadrupole moment (field-independent basis, Debye-Ang):
   XX=            -10.1657   YY=              5.7490   ZZ=            -14.9895
   XY=             -8.3429   XZ=              0.0000   YZ=              0.0000

 1\MP4DQ=-33.8919012\MP4SDQ=-33.8939279\CCSD=-33.8949822\CCSD(T)=-33.89
 Normal termination of Gaussian 16 at Sun Dec 10 06:56:08 2023.
