 Gaussian 16, Revision A.03,
 Gaussian 16:  ES64L-G16RevA.03 25-Dec-2016

 ------------------
 #p CCSD(T)/CEP-31G
 ------------------

 -----------
 H2O_H2O_157
 -----------
 Symbolic Z-matrix:
 Charge =  0 Multiplicity = 1

                         Standard orientation:
 ---------------------------------------------------------------------
 Center     Atomic      Atomic             Coordinates (Angstroms)
 Number     Number       Type             X           Y           Z
 ---------------------------------------------------------------------
      1          8           0        0.025275   -0.877042    0.000000
      2          1           0       -0.775700   -1.446203    0.000000
      3          1           0        0.823437   -1.450142    0.000000
      4          8           0        0.025275    0.888698    0.000000
      5          1           0        0.491914    1.753425    0.000000
      6          1           0       -0.944050    1.049677    0.000000
 ---------------------------------------------------------------------

 SCF Done:  E(RHF) =  -33.5367971664     A.U. after   11 cycles
 E2 =    -0.2355975494D+00 EUMP2 =    -0.33772394715834D+02
 CCSD(T)
 CCSD(T)= -0.33789184807D+02

 The electronic state is 1-A'.
 Alpha  occ. eigenvalues --   -1.35547  -1.29397  -0.70246  -0.66895  -0.61551
 Alpha  occ. eigenvalues --   -0.50349  -0.43006  -0.36181
 Alpha virt. eigenvalues --    0.20996   0.27758   0.31931   0.33580   0.81735
 Alpha virt. eigenvalues --    0.81900   0.89614   0.91651   1.02218   1.19724
 Alpha virt. eigenvalues --    1.22565   1.23477   1.27379   1.34764   2.50670

 Mulliken charges:
               1
     1  O   -0.716079
     2  H    0.336083
     3  H    0.371999
     4  O   -0.680172
     5  H    0.346319
     6  H    0.341848
 Sum of Mulliken charges =   0.00000

 Dipole moment (field-independent basis, Debye):
    X=             -0.9313    Y=             -0.3033    Z=              0.0000  Tot=              0.9795
 Quadrupole moment (field-independent basis, Debye-Ang):
   XX=             -8.7830   YY=             -6.2881   ZZ=            -15.0142
   XY=             -0.5820   XZ=              0.0000   YZ=              0.0000

 MP4DQ=-33.7825791\MP4SDQ=-33.7851481\CCSD=-33.7859123\CCSD(T)=-33.7891
 Normal termination of Gaussian 16 at Sun Dec 10 06:27:41 2023.
