 Gaussian 16, Revision A.03,
 Gaussian 16:  ES64L-G16RevA.03 25-Dec-2016

 ------------------
 #p CCSD(T)/CEP-31G
 ------------------

 ------------
 H2O_H2O_2544
 ------------
 Symbolic Z-matrix:
 Charge =  0 Multiplicity = 1

                         Standard orientation:
 ---------------------------------------------------------------------
 Center     Atomic      Atomic             Coordinates (Angstroms)
 Number     Number       Type             X           Y           Z
 ---------------------------------------------------------------------
      1          8           0        0.054166   -2.104517    0.000000
      2          1           0       -0.746643   -2.673911    0.000000
      3          1           0        0.852495   -2.677385    0.000000
      4          8           0        0.054166    2.181792    0.000000
      5          1           0       -0.227599    3.123129    0.000000
      6          1           0       -0.744914    1.609972    0.000000
 ---------------------------------------------------------------------

 SCF Done:  E(RHF) =  -33.6514992267     A.U. after   11 cycles
 E2 =    -0.2285024616D+00 EUMP2 =    -0.33880001688284D+02
 CCSD(T)
 CCSD(T)= -0.33897012391D+02

 The electronic state is 1-A'.
 Alpha  occ. eigenvalues --   -1.35462  -1.34143  -0.71096  -0.69727  -0.55181
 Alpha  occ. eigenvalues --   -0.53838  -0.50028  -0.48713
 Alpha virt. eigenvalues --    0.20029   0.21865   0.30490   0.31883   0.80485
 Alpha virt. eigenvalues --    0.81473   0.81855   0.85513   0.86627   0.90166
 Alpha virt. eigenvalues --    1.17424   1.18871   1.21824   1.23523   2.57387

 Mulliken charges:
               1
     1  O   -0.740103
     2  H    0.366180
     3  H    0.374109
     4  O   -0.738255
     5  H    0.361173
     6  H    0.376897
 Sum of Mulliken charges =  -0.00000

 Dipole moment (field-independent basis, Debye):
    X=             -2.4806    Y=             -1.8515    Z=              0.0000  Tot=              3.0954
 Quadrupole moment (field-independent basis, Debye-Ang):
   XX=             -9.9355   YY=              4.4987   ZZ=            -14.9894
   XY=             -5.0669   XZ=              0.0000   YZ=              0.0000

 \MP4DQ=-33.8913587\MP4SDQ=-33.8933931\CCSD=-33.8944434\CCSD(T)=-33.897
 Normal termination of Gaussian 16 at Sun Dec 10 06:25:33 2023.
