 Gaussian 16, Revision A.03,
 Gaussian 16:  ES64L-G16RevA.03 25-Dec-2016

 ------------------
 #p CCSD(T)/CEP-31G
 ------------------

 ------------
 H2O_H2O_4343
 ------------
 Symbolic Z-matrix:
 Charge =  0 Multiplicity = 1

                         Standard orientation:
 ---------------------------------------------------------------------
 Center     Atomic      Atomic             Coordinates (Angstroms)
 Number     Number       Type             X           Y           Z
 ---------------------------------------------------------------------
      1          8           0        0.052817   -3.065580    0.000000
      2          1           0       -0.747590   -3.635540    0.000000
      3          1           0        0.851551   -3.637883    0.000000
      4          8           0        0.052817    3.135939    0.000000
      5          1           0       -0.167454    4.093534    0.000000
      6          1           0       -0.781584    2.617017    0.000000
 ---------------------------------------------------------------------

 SCF Done:  E(RHF) =  -33.6515480339     A.U. after   11 cycles
 E2 =    -0.2284003885D+00 EUMP2 =    -0.33879948422369D+02
 CCSD(T)
 CCSD(T)= -0.33896955504D+02

 The electronic state is 1-A'.
 Alpha  occ. eigenvalues --   -1.35465  -1.34919  -0.71097  -0.70539  -0.55187
 Alpha  occ. eigenvalues --   -0.54635  -0.50033  -0.49487
 Alpha virt. eigenvalues --    0.20293   0.20853   0.30531   0.31081   0.80519
 Alpha virt. eigenvalues --    0.81058   0.83565   0.84114   0.86669   0.87274
 Alpha virt. eigenvalues --    1.17426   1.17969   1.21886   1.22437   2.57449

 Mulliken charges:
               1
     1  O   -0.740281
     2  H    0.368749
     3  H    0.371533
     4  O   -0.739932
     5  H    0.367233
     6  H    0.372698
 Sum of Mulliken charges =  -0.00000

 Dipole moment (field-independent basis, Debye):
    X=             -2.4372    Y=             -1.6469    Z=              0.0000  Tot=              2.9415
 Quadrupole moment (field-independent basis, Debye-Ang):
   XX=             -9.8498   YY=             12.2774   ZZ=            -14.9883
   XY=             -7.1222   XZ=              0.0000   YZ=              0.0000

 MP4DQ=-33.8913095\MP4SDQ=-33.8933379\CCSD=-33.8943935\CCSD(T)=-33.8969
 Normal termination of Gaussian 16 at Sun Dec 10 06:58:13 2023.
