 Gaussian 16, Revision A.03,
 Gaussian 16:  ES64L-G16RevA.03 25-Dec-2016

 ------------------
 #p CCSD(T)/CEP-31G
 ------------------

 ------------
 H2O_H2O_2594
 ------------
 Symbolic Z-matrix:
 Charge =  0 Multiplicity = 1

                         Standard orientation:
 ---------------------------------------------------------------------
 Center     Atomic      Atomic             Coordinates (Angstroms)
 Number     Number       Type             X           Y           Z
 ---------------------------------------------------------------------
      1          8           0        0.054165   -2.131108    0.000000
      2          1           0       -0.746629   -2.700523    0.000000
      3          1           0        0.852509   -2.703954    0.000000
      4          8           0        0.054165    2.208385    0.000000
      5          1           0       -0.227625    3.149714    0.000000
      6          1           0       -0.744900    1.636544    0.000000
 ---------------------------------------------------------------------

 SCF Done:  E(RHF) =  -33.6515026312     A.U. after   11 cycles
 E2 =    -0.2284931680D+00 EUMP2 =    -0.33879995799291D+02
 CCSD(T)
 CCSD(T)= -0.33897005983D+02

 The electronic state is 1-A'.
 Alpha  occ. eigenvalues --   -1.35462  -1.34178  -0.71096  -0.69765  -0.55182
 Alpha  occ. eigenvalues --   -0.53875  -0.50029  -0.48748
 Alpha virt. eigenvalues --    0.20056   0.21805   0.30495   0.31844   0.80494
 Alpha virt. eigenvalues --    0.81734   0.81810   0.85459   0.86628   0.89792
 Alpha virt. eigenvalues --    1.17425   1.18814   1.21830   1.23444   2.57414

 Mulliken charges:
               1
     1  O   -0.740130
     2  H    0.366311
     3  H    0.373977
     4  O   -0.738372
     5  H    0.361494
     6  H    0.376719
 Sum of Mulliken charges =  -0.00000

 Dipole moment (field-independent basis, Debye):
    X=             -2.4817    Y=             -1.8490    Z=              0.0000  Tot=              3.0948
 Quadrupole moment (field-independent basis, Debye-Ang):
   XX=             -9.9358   YY=              4.6904   ZZ=            -14.9893
   XY=             -5.1317   XZ=              0.0000   YZ=              0.0000

 MP4DQ=-33.8913534\MP4SDQ=-33.893387\CCSD=-33.8944377\CCSD(T)=-33.89700
 Normal termination of Gaussian 16 at Sun Dec 10 06:26:28 2023.
