 Gaussian 16, Revision A.03,
 Gaussian 16:  ES64L-G16RevA.03 25-Dec-2016

 ------------------
 #p CCSD(T)/CEP-31G
 ------------------

 ------------
 H2O_H2O_4538
 ------------
 Symbolic Z-matrix:
 Charge =  0 Multiplicity = 1

                         Standard orientation:
 ---------------------------------------------------------------------
 Center     Atomic      Atomic             Coordinates (Angstroms)
 Number     Number       Type             X           Y           Z
 ---------------------------------------------------------------------
      1          8           0        0.042962   -3.189079    0.000000
      2          1           0       -0.757266   -3.759290    0.000000
      3          1           0        0.841875   -3.761132    0.000000
      4          8           0        0.042962    3.227892    0.000000
      5          1           0        0.141883    4.205502    0.000000
      6          1           0       -0.913890    3.004418    0.000000
 ---------------------------------------------------------------------

 SCF Done:  E(RHF) =  -33.6511608631     A.U. after   11 cycles
 E2 =    -0.2284171159D+00 EUMP2 =    -0.33879577979071D+02
 CCSD(T)
 CCSD(T)= -0.33896596372D+02

 The electronic state is 1-A'.
 Alpha  occ. eigenvalues --   -1.35268  -1.34986  -0.70898  -0.70610  -0.54968
 Alpha  occ. eigenvalues --   -0.54685  -0.49830  -0.49548
 Alpha virt. eigenvalues --    0.20468   0.20756   0.30704   0.30983   0.80723
 Alpha virt. eigenvalues --    0.81001   0.83808   0.84087   0.86896   0.87217
 Alpha virt. eigenvalues --    1.17607   1.17887   1.22070   1.22352   2.57639

 Mulliken charges:
               1
     1  O   -0.738892
     2  H    0.368388
     3  H    0.370504
     4  O   -0.738611
     5  H    0.367541
     6  H    0.371069
 Sum of Mulliken charges =  -0.00000

 Dipole moment (field-independent basis, Debye):
    X=             -1.9833    Y=             -0.9074    Z=              0.0000  Tot=              2.1810
 Quadrupole moment (field-independent basis, Debye-Ang):
   XX=             -9.2355   YY=             17.2951   ZZ=            -14.9876
   XY=             -5.5661   XZ=              0.0000   YZ=              0.0000

 MP4DQ=-33.8909474\MP4SDQ=-33.8929767\CCSD=-33.8940332\CCSD(T)=-33.8965
 Normal termination of Gaussian 16 at Sun Dec 10 07:03:20 2023.
