 Gaussian 16, Revision A.03,
 Gaussian 16:  ES64L-G16RevA.03 25-Dec-2016

 ------------------
 #p CCSD(T)/CEP-31G
 ------------------

 ------------
 H2O_H2O_3782
 ------------
 Symbolic Z-matrix:
 Charge =  0 Multiplicity = 1

                         Standard orientation:
 ---------------------------------------------------------------------
 Center     Atomic      Atomic             Coordinates (Angstroms)
 Number     Number       Type             X           Y           Z
 ---------------------------------------------------------------------
      1          8           0        0.025265   -2.804904    0.000000
      2          1           0       -0.774748   -3.375418    0.000000
      3          1           0        0.824394   -3.376655    0.000000
      4          8           0        0.025265    2.816645    0.000000
      5          1           0        0.490443    3.682160    0.000000
      6          1           0       -0.944331    2.975986    0.000000
 ---------------------------------------------------------------------

 SCF Done:  E(RHF) =  -33.6503128673     A.U. after   11 cycles
 E2 =    -0.2284638534D+00 EUMP2 =    -0.33878776720720D+02
 CCSD(T)
 CCSD(T)= -0.33895819539D+02

 The electronic state is 1-A'.
 Alpha  occ. eigenvalues --   -1.34933  -1.34821  -0.70560  -0.70444  -0.54585
 Alpha  occ. eigenvalues --   -0.54473  -0.49483  -0.49371
 Alpha virt. eigenvalues --    0.20756   0.20871   0.30988   0.31096   0.81071
 Alpha virt. eigenvalues --    0.81181   0.84188   0.84405   0.87292   0.87432
 Alpha virt. eigenvalues --    1.17906   1.18017   1.22376   1.22487   2.57958

 Mulliken charges:
               1
     1  O   -0.735911
     2  H    0.367042
     3  H    0.368869
     4  O   -0.735693
     5  H    0.366554
     6  H    0.369138
 Sum of Mulliken charges =  -0.00000

 Dipole moment (field-independent basis, Debye):
    X=             -1.1645    Y=             -0.2757    Z=              0.0000  Tot=              1.1967
 Quadrupole moment (field-independent basis, Debye-Ang):
   XX=             -8.4578   YY=             16.6162   ZZ=            -14.9865
   XY=             -2.5954   XZ=              0.0000   YZ=              0.0000

 \MP4DQ=-33.8901638\MP4SDQ=-33.8921955\CCSD=-33.8932534\CCSD(T)=-33.895
 Normal termination of Gaussian 16 at Sun Dec 10 06:48:04 2023.
