 Gaussian 16, Revision A.03,
 Gaussian 16:  ES64L-G16RevA.03 25-Dec-2016

 ------------------
 #p CCSD(T)/CEP-31G
 ------------------

 ------------
 H2O_H2O_4857
 ------------
 Symbolic Z-matrix:
 Charge =  0 Multiplicity = 1

                         Standard orientation:
 ---------------------------------------------------------------------
 Center     Atomic      Atomic             Coordinates (Angstroms)
 Number     Number       Type             X           Y           Z
 ---------------------------------------------------------------------
      1          8           0        0.025264   -3.376625    0.000000
      2          1           0       -0.774674   -3.947243    0.000000
      3          1           0        0.824468   -3.948271    0.000000
      4          8           0        0.025264    3.388373    0.000000
      5          1           0        0.490329    4.253948    0.000000
      6          1           0       -0.944353    3.547587    0.000000
 ---------------------------------------------------------------------

 SCF Done:  E(RHF) =  -33.6509554773     A.U. after   11 cycles
 E2 =    -0.2284226863D+00 EUMP2 =    -0.33879378163603D+02
 CCSD(T)
 CCSD(T)= -0.33896402553D+02

 The electronic state is 1-A'.
 Alpha  occ. eigenvalues --   -1.35140  -1.35064  -0.70769  -0.70691  -0.54829
 Alpha  occ. eigenvalues --   -0.54752  -0.49699  -0.49623
 Alpha virt. eigenvalues --    0.20585   0.20663   0.30818   0.30894   0.80854
 Alpha virt. eigenvalues --    0.80930   0.83959   0.84034   0.87041   0.87129
 Alpha virt. eigenvalues --    1.17726   1.17802   1.22190   1.22267   2.57763

 Mulliken charges:
               1
     1  O   -0.738144
     2  H    0.368527
     3  H    0.369617
     4  O   -0.738051
     5  H    0.368214
     6  H    0.369837
 Sum of Mulliken charges =  -0.00000

 Dipole moment (field-independent basis, Debye):
    X=             -1.1669    Y=             -0.2743    Z=              0.0000  Tot=              1.1987
 Quadrupole moment (field-independent basis, Debye-Ang):
   XX=             -8.4496   YY=             22.4196   ZZ=            -14.9872
   XY=             -3.2527   XZ=              0.0000   YZ=              0.0000

 \MP4DQ=-33.8907519\MP4SDQ=-33.8927818\CCSD=-33.8938389\CCSD(T)=-33.896
 Normal termination of Gaussian 16 at Sun Dec 10 07:09:12 2023.
