 Gaussian 16, Revision A.03,
 Gaussian 16:  ES64L-G16RevA.03 25-Dec-2016

 ------------------
 #p CCSD(T)/CEP-31G
 ------------------

 ------------
 H2O_H2O_2923
 ------------
 Symbolic Z-matrix:
 Charge =  0 Multiplicity = 1

                         Standard orientation:
 ---------------------------------------------------------------------
 Center     Atomic      Atomic             Coordinates (Angstroms)
 Number     Number       Type             X           Y           Z
 ---------------------------------------------------------------------
      1          8           0        0.057103   -2.288076    0.000000
      2          1           0       -0.743663   -2.857532    0.000000
      3          1           0        0.855475   -2.860882    0.000000
      4          8           0        0.057103    2.394593    0.000000
      5          1           0       -0.458761    3.230889    0.000000
      6          1           0       -0.566694    1.635392    0.000000
 ---------------------------------------------------------------------

 SCF Done:  E(RHF) =  -33.6525638240     A.U. after   11 cycles
 E2 =    -0.2284040500D+00 EUMP2 =    -0.33880967874053D+02
 CCSD(T)
 CCSD(T)= -0.33897945726D+02

 The electronic state is 1-A'.
 Alpha  occ. eigenvalues --   -1.35822  -1.34322  -0.71459  -0.69917  -0.55604
 Alpha  occ. eigenvalues --   -0.54065  -0.50404  -0.48904
 Alpha virt. eigenvalues --    0.19835   0.21662   0.30216   0.31792   0.80152
 Alpha virt. eigenvalues --    0.81616   0.82715   0.84956   0.86200   0.88099
 Alpha virt. eigenvalues --    1.17111   1.18673   1.21537   1.23368   2.57115

 Mulliken charges:
               1
     1  O   -0.743784
     2  H    0.368835
     3  H    0.375081
     4  O   -0.743175
     5  H    0.363641
     6  H    0.379402
 Sum of Mulliken charges =   0.00000

 Dipole moment (field-independent basis, Debye):
    X=             -2.6222    Y=             -2.5339    Z=              0.0000  Tot=              3.6465
 Quadrupole moment (field-independent basis, Debye-Ang):
   XX=            -10.1497   YY=              2.8490   ZZ=            -14.9908
   XY=             -6.3866   XZ=              0.0000   YZ=              0.0000

 \MP4DQ=-33.8923034\MP4SDQ=-33.8943326\CCSD=-33.8953827\CCSD(T)=-33.897
 Normal termination of Gaussian 16 at Sun Dec 10 06:32:36 2023.
