 Gaussian 16, Revision A.03,
 Gaussian 16:  ES64L-G16RevA.03 25-Dec-2016

 ------------------
 #p CCSD(T)/CEP-31G
 ------------------

 ------------
 H2O_H2O_3227
 ------------
 Symbolic Z-matrix:
 Charge =  0 Multiplicity = 1

                         Standard orientation:
 ---------------------------------------------------------------------
 Center     Atomic      Atomic             Coordinates (Angstroms)
 Number     Number       Type             X           Y           Z
 ---------------------------------------------------------------------
      1          8           0        0.007455   -2.518243    0.000000
      2          1           0       -0.792262   -3.089171    0.000000
      3          1           0        0.806880   -3.089578    0.000000
      4          8           0        0.007455    2.519216    0.000000
      5          1           0        0.725809    3.189643    0.000000
      6          1           0       -0.859706    2.981317    0.000000
 ---------------------------------------------------------------------

 SCF Done:  E(RHF) =  -33.6494432963     A.U. after   11 cycles
 E2 =    -0.2285116834D+00 EUMP2 =    -0.33877954979686D+02
 CCSD(T)
 CCSD(T)= -0.33895022897D+02

 The electronic state is 1-A'.
 Alpha  occ. eigenvalues --   -1.34659  -1.34647  -0.70283  -0.70271  -0.54276
 Alpha  occ. eigenvalues --   -0.54230  -0.49196  -0.49184
 Alpha virt. eigenvalues --    0.20949   0.21031   0.31208   0.31227   0.81334
 Alpha virt. eigenvalues --    0.81391   0.84037   0.85230   0.87569   0.87698
 Alpha virt. eigenvalues --    1.18144   1.18155   1.22617   1.22639   2.58214

 Mulliken charges:
               1
     1  O   -0.732897
     2  H    0.366083
     3  H    0.366814
     4  O   -0.732864
     5  H    0.365957
     6  H    0.366907
 Sum of Mulliken charges =  -0.00000

 Dipole moment (field-independent basis, Debye):
    X=             -0.3430    Y=             -0.0230    Z=              0.0000  Tot=              0.3438
 Quadrupole moment (field-independent basis, Debye-Ang):
   XX=             -8.0925   YY=             14.5598   ZZ=            -14.9856
   XY=             -0.6422   XZ=              0.0000   YZ=              0.0000

 4DQ=-33.88936\MP4SDQ=-33.8913942\CCSD=-33.8924534\CCSD(T)=-33.8950229\
 Normal termination of Gaussian 16 at Sun Dec 10 06:37:57 2023.
