 Gaussian 16, Revision A.03,
 Gaussian 16:  ES64L-G16RevA.03 25-Dec-2016

 ------------------
 #p CCSD(T)/CEP-31G
 ------------------

 -----------
 H2O_H2O_408
 -----------
 Symbolic Z-matrix:
 Charge =  0 Multiplicity = 1

                         Standard orientation:
 ---------------------------------------------------------------------
 Center     Atomic      Atomic             Coordinates (Angstroms)
 Number     Number       Type             X           Y           Z
 ---------------------------------------------------------------------
      1          8           0        0.028575   -1.008095    0.000000
      2          1           0       -0.772376   -1.577290    0.000000
      3          1           0        0.826761   -1.581161    0.000000
      4          8           0        0.028575    1.023261    0.000000
      5          1           0        0.437623    1.916673    0.000000
      6          1           0       -0.949208    1.120457    0.000000
 ---------------------------------------------------------------------

 SCF Done:  E(RHF) =  -33.5997002507     A.U. after   11 cycles
 E2 =    -0.2321347103D+00 EUMP2 =    -0.33831834960947D+02
 CCSD(T)
 CCSD(T)= -0.33849066229D+02

 The electronic state is 1-A'.
 Alpha  occ. eigenvalues --   -1.33599  -1.30639  -0.68911  -0.66868  -0.57947
 Alpha  occ. eigenvalues --   -0.48504  -0.44384  -0.42650
 Alpha virt. eigenvalues --    0.21083   0.26237   0.32379   0.33305   0.80405
 Alpha virt. eigenvalues --    0.81117   0.90109   0.97465   1.00480   1.17554
 Alpha virt. eigenvalues --    1.19754   1.23623   1.25849   1.29600   2.49970

 Mulliken charges:
               1
     1  O   -0.721388
     2  H    0.341457
     3  H    0.370013
     4  O   -0.683770
     5  H    0.349582
     6  H    0.344106
 Sum of Mulliken charges =   0.00000

 Dipole moment (field-independent basis, Debye):
    X=             -1.1224    Y=             -0.3603    Z=              0.0000  Tot=              1.1788
 Quadrupole moment (field-independent basis, Debye-Ang):
   XX=             -8.8000   YY=             -3.6787   ZZ=            -15.0122
   XY=             -0.7522   XZ=              0.0000   YZ=              0.0000

 4DQ=-33.8428681\MP4SDQ=-33.8451373\CCSD=-33.8461352\CCSD(T)=-33.849066
 Normal termination of Gaussian 16 at Sun Dec 10 06:32:24 2023.
