 Gaussian 16, Revision A.03,
 Gaussian 16:  ES64L-G16RevA.03 25-Dec-2016

 ------------------
 #p CCSD(T)/CEP-31G
 ------------------

 -----------
 H2O_H2O_221
 -----------
 Symbolic Z-matrix:
 Charge =  0 Multiplicity = 1

                         Standard orientation:
 ---------------------------------------------------------------------
 Center     Atomic      Atomic             Coordinates (Angstroms)
 Number     Number       Type             X           Y           Z
 ---------------------------------------------------------------------
      1          8           0        0.056260   -0.860350    0.000000
      2          1           0       -0.746340   -1.427218    0.000000
      3          1           0        0.852780   -1.435729    0.000000
      4          8           0        0.056260    0.951694    0.000000
      5          1           0       -0.343137    1.849462    0.000000
      6          1           0       -0.663458    0.282729    0.000000
 ---------------------------------------------------------------------

 SCF Done:  E(RHF) =  -33.5364194221     A.U. after   11 cycles
 E2 =    -0.2340864116D+00 EUMP2 =    -0.33770505833693D+02
 CCSD(T)
 CCSD(T)= -0.33786697696D+02

 The electronic state is 1-A'.
 Alpha  occ. eigenvalues --   -1.40603  -1.28720  -0.77181  -0.71525  -0.53803
 Alpha  occ. eigenvalues --   -0.50720  -0.45181  -0.43132
 Alpha virt. eigenvalues --    0.18991   0.28475   0.29836   0.36242   0.78598
 Alpha virt. eigenvalues --    0.83877   0.90129   0.94413   0.98442   1.16984
 Alpha virt. eigenvalues --    1.19336   1.24335   1.31984   1.35349   2.75311

 Mulliken charges:
               1
     1  O   -0.796799
     2  H    0.361670
     3  H    0.437659
     4  O   -0.664892
     5  H    0.292300
     6  H    0.370062
 Sum of Mulliken charges =  -0.00000

 Dipole moment (field-independent basis, Debye):
    X=             -2.0869    Y=             -2.5586    Z=              0.0000  Tot=              3.3017
 Quadrupole moment (field-independent basis, Debye-Ang):
   XX=            -10.0472   YY=             -7.3105   ZZ=            -14.9447
   XY=             -2.2218   XZ=              0.0000   YZ=              0.0000

 \MP4DQ=-33.7800866\MP4SDQ=-33.7826472\CCSD=-33.7833385\CCSD(T)=-33.786
 Normal termination of Gaussian 16 at Sun Dec 10 06:28:53 2023.
