 Gaussian 16, Revision A.03,
 Gaussian 16:  ES64L-G16RevA.03 25-Dec-2016

 ------------------
 #p CCSD(T)/CEP-31G
 ------------------

 ------------
 H2O_H2O_4334
 ------------
 Symbolic Z-matrix:
 Charge =  0 Multiplicity = 1

                         Standard orientation:
 ---------------------------------------------------------------------
 Center     Atomic      Atomic             Coordinates (Angstroms)
 Number     Number       Type             X           Y           Z
 ---------------------------------------------------------------------
      1          8           0        0.031739   -3.093366    0.000000
      2          1           0       -0.768335   -3.663794    0.000000
      3          1           0        0.830807   -3.665202    0.000000
      4          8           0        0.031739    3.112561    0.000000
      5          1           0        0.380063    4.031352    0.000000
      6          1           0       -0.950357    3.144087    0.000000
 ---------------------------------------------------------------------

 SCF Done:  E(RHF) =  -33.6508066814     A.U. after   11 cycles
 E2 =    -0.2284347074D+00 EUMP2 =    -0.33879241388815D+02
 CCSD(T)
 CCSD(T)= -0.33896269995D+02

 The electronic state is 1-A'.
 Alpha  occ. eigenvalues --   -1.35106  -1.34956  -0.70734  -0.70580  -0.54786
 Alpha  occ. eigenvalues --   -0.54636  -0.49662  -0.49513
 Alpha virt. eigenvalues --    0.20611   0.20763   0.30845   0.30991   0.80891
 Alpha virt. eigenvalues --    0.81039   0.84011   0.84158   0.87086   0.87261
 Alpha virt. eigenvalues --    1.17754   1.17903   1.22220   1.22369   2.57795

 Mulliken charges:
               1
     1  O   -0.737633
     2  H    0.367948
     3  H    0.369685
     4  O   -0.737425
     5  H    0.367404
     6  H    0.370021
 Sum of Mulliken charges =  -0.00000

 Dipole moment (field-independent basis, Debye):
    X=             -1.4647    Y=             -0.4492    Z=              0.0000  Tot=              1.5320
 Quadrupole moment (field-independent basis, Debye-Ang):
   XX=             -8.6920   YY=             18.7215   ZZ=            -14.9871
   XY=             -3.7578   XZ=              0.0000   YZ=              0.0000

 \MP4DQ=-33.8906182\MP4SDQ=-33.8926485\CCSD=-33.8937057\CCSD(T)=-33.896
 Normal termination of Gaussian 16 at Sun Dec 10 06:58:04 2023.
