 Gaussian 16, Revision A.03,
 Gaussian 16:  ES64L-G16RevA.03 25-Dec-2016

 ------------------
 #p CCSD(T)/CEP-31G
 ------------------

 -----------
 H2O_H2O_305
 -----------
 Symbolic Z-matrix:
 Charge =  0 Multiplicity = 1

                         Standard orientation:
 ---------------------------------------------------------------------
 Center     Atomic      Atomic             Coordinates (Angstroms)
 Number     Number       Type             X           Y           Z
 ---------------------------------------------------------------------
      1          8           0        0.018363   -0.959889    0.000000
      2          1           0       -0.782144   -1.529708    0.000000
      3          1           0        0.816996   -1.532333    0.000000
      4          8           0        0.018363    0.965891    0.000000
      5          1           0        0.593226    1.762785    0.000000
      6          1           0       -0.921892    1.251243    0.000000
 ---------------------------------------------------------------------

 SCF Done:  E(RHF) =  -33.5783273884     A.U. after   11 cycles
 E2 =    -0.2332526732D+00 EUMP2 =    -0.33811580061609D+02
 CCSD(T)
 CCSD(T)= -0.33828632568D+02

 The electronic state is 1-A'.
 Alpha  occ. eigenvalues --   -1.33802  -1.30089  -0.68802  -0.66334  -0.59857
 Alpha  occ. eigenvalues --   -0.48757  -0.43684  -0.39686
 Alpha virt. eigenvalues --    0.21337   0.26640   0.32520   0.33489   0.79735
 Alpha virt. eigenvalues --    0.81165   0.90131   0.93834   1.04112   1.20071
 Alpha virt. eigenvalues --    1.21386   1.23039   1.27329   1.29203   2.48589

 Mulliken charges:
               1
     1  O   -0.708127
     2  H    0.340678
     3  H    0.362961
     4  O   -0.690712
     5  H    0.351422
     6  H    0.343779
 Sum of Mulliken charges =  -0.00000

 Dipole moment (field-independent basis, Debye):
    X=             -0.6998    Y=             -0.1450    Z=              0.0000  Tot=              0.7147
 Quadrupole moment (field-independent basis, Debye-Ang):
   XX=             -8.5600   YY=             -4.5872   ZZ=            -15.0256
   XY=             -0.4109   XZ=              0.0000   YZ=              0.0000

 MP4DQ=-33.8223058\MP4SDQ=-33.8246546\CCSD=-33.8255878\CCSD(T)=-33.8286
 Normal termination of Gaussian 16 at Sun Dec 10 06:30:28 2023.
