 Gaussian 16, Revision A.03,
 Gaussian 16:  ES64L-G16RevA.03 25-Dec-2016

 ------------------
 #p CCSD(T)/CEP-31G
 ------------------

 ------------
 H2O_H2O_1724
 ------------
 Symbolic Z-matrix:
 Charge =  0 Multiplicity = 1

                         Standard orientation:
 ---------------------------------------------------------------------
 Center     Atomic      Atomic             Coordinates (Angstroms)
 Number     Number       Type             X           Y           Z
 ---------------------------------------------------------------------
      1          8           0        0.057278   -1.645863    0.000000
      2          1           0       -0.743939   -2.214684    0.000000
      3          1           0        0.855197   -2.219301    0.000000
      4          8           0        0.057278    1.759759    0.000000
      5          1           0       -0.511543    2.560977    0.000000
      6          1           0       -0.516160    0.961840    0.000000
 ---------------------------------------------------------------------

 SCF Done:  E(RHF) =  -33.6547998368     A.U. after   11 cycles
 E2 =    -0.2287955097D+00 EUMP2 =    -0.33883595346466D+02
 CCSD(T)
 CCSD(T)= -0.33900562923D+02

 The electronic state is 1-A'.
 Alpha  occ. eigenvalues --   -1.36349  -1.33071  -0.71995  -0.68652  -0.56270
 Alpha  occ. eigenvalues --   -0.52860  -0.50960  -0.47680
 Alpha virt. eigenvalues --    0.18914   0.23998   0.29747   0.34094   0.77918
 Alpha virt. eigenvalues --    0.78875   0.83588   0.86051   0.87784   1.00395
 Alpha virt. eigenvalues --    1.16566   1.20249   1.21312   1.29027   2.53221

 Mulliken charges:
               1
     1  O   -0.752050
     2  H    0.368982
     3  H    0.384788
     4  O   -0.749875
     5  H    0.353557
     6  H    0.394598
 Sum of Mulliken charges =  -0.00000

 Dipole moment (field-independent basis, Debye):
    X=             -2.5919    Y=             -2.8401    Z=              0.0000  Tot=              3.8450
 Quadrupole moment (field-independent basis, Debye-Ang):
   XX=            -10.1418   YY=             -1.5298   ZZ=            -14.9967
   XY=             -4.8889   XZ=              0.0000   YZ=              0.0000

 3\MP4DQ=-33.894846\MP4SDQ=-33.8969198\CCSD=-33.8979503\CCSD(T)=-33.900
 Normal termination of Gaussian 16 at Sun Dec 10 06:56:55 2023.
