 Gaussian 16, Revision A.03,
 Gaussian 16:  ES64L-G16RevA.03 25-Dec-2016

 ------------------
 #p CCSD(T)/CEP-31G
 ------------------

 ------------
 H2O_H2O_1536
 ------------
 Symbolic Z-matrix:
 Charge =  0 Multiplicity = 1

                         Standard orientation:
 ---------------------------------------------------------------------
 Center     Atomic      Atomic             Coordinates (Angstroms)
 Number     Number       Type             X           Y           Z
 ---------------------------------------------------------------------
      1          8           0        0.037686   -1.599335    0.000000
      2          1           0       -0.763031   -2.168860    0.000000
      3          1           0        0.836108   -2.172072    0.000000
      4          8           0        0.037686    1.627530    0.000000
      5          1           0        0.264183    2.583670    0.000000
      6          1           0       -0.940233    1.531700    0.000000
 ---------------------------------------------------------------------

 SCF Done:  E(RHF) =  -33.6456811499     A.U. after   11 cycles
 E2 =    -0.2290691556D+00 EUMP2 =    -0.33874750305430D+02
 CCSD(T)
 CCSD(T)= -0.33891980386D+02

 The electronic state is 1-A'.
 Alpha  occ. eigenvalues --   -1.34183  -1.33341  -0.69809  -0.68919  -0.53999
 Alpha  occ. eigenvalues --   -0.52297  -0.48699  -0.47814
 Alpha virt. eigenvalues --    0.20564   0.22909   0.31518   0.32283   0.75678
 Alpha virt. eigenvalues --    0.80021   0.84467   0.84622   0.91300   1.08571
 Alpha virt. eigenvalues --    1.18456   1.20212   1.23058   1.23954   2.58831

 Mulliken charges:
               1
     1  O   -0.722511
     2  H    0.355282
     3  H    0.367315
     4  O   -0.716689
     5  H    0.351073
     6  H    0.365529
 Sum of Mulliken charges =   0.00000

 Dipole moment (field-independent basis, Debye):
    X=             -1.6931    Y=             -0.7009    Z=              0.0000  Tot=              1.8325
 Quadrupole moment (field-independent basis, Debye-Ang):
   XX=             -9.0120   YY=              3.3803   ZZ=            -14.9856
   XY=             -2.0708   XZ=              0.0000   YZ=              0.0000

 \MP4DQ=-33.8862214\MP4SDQ=-33.8883064\CCSD=-33.8893637\CCSD(T)=-33.891
 Normal termination of Gaussian 16 at Sun Dec 10 06:53:27 2023.
