 Gaussian 16, Revision A.03,
 Gaussian 16:  ES64L-G16RevA.03 25-Dec-2016

 ------------------
 #p CCSD(T)/CEP-31G
 ------------------

 ------------
 H2O_H2O_3933
 ------------
 Symbolic Z-matrix:
 Charge =  0 Multiplicity = 1

                         Standard orientation:
 ---------------------------------------------------------------------
 Center     Atomic      Atomic             Coordinates (Angstroms)
 Number     Number       Type             X           Y           Z
 ---------------------------------------------------------------------
      1          8           0        0.028563   -2.882772    0.000000
      2          1           0       -0.771493   -3.453223    0.000000
      3          1           0        0.827648   -3.454584    0.000000
      4          8           0        0.028563    2.898026    0.000000
      5          1           0        0.436208    3.792081    0.000000
      6          1           0       -0.949371    2.993687    0.000000
 ---------------------------------------------------------------------

 SCF Done:  E(RHF) =  -33.6504964015     A.U. after   11 cycles
 E2 =    -0.2284537323D+00 EUMP2 =    -0.33878950133791D+02
 CCSD(T)
 CCSD(T)= -0.33895987665D+02

 The electronic state is 1-A'.
 Alpha  occ. eigenvalues --   -1.34998  -1.34860  -0.70625  -0.70484  -0.54660
 Alpha  occ. eigenvalues --   -0.54522  -0.49550  -0.49413
 Alpha virt. eigenvalues --    0.20702   0.20842   0.30934   0.31068   0.81003
 Alpha virt. eigenvalues --    0.81139   0.84137   0.84308   0.87215   0.87382
 Alpha virt. eigenvalues --    1.17849   1.17985   1.22318   1.22454   2.57897

 Mulliken charges:
               1
     1  O   -0.736552
     2  H    0.367322
     3  H    0.369230
     4  O   -0.736312
     5  H    0.366772
     6  H    0.369540
 Sum of Mulliken charges =  -0.00000

 Dipole moment (field-independent basis, Debye):
    X=             -1.3170    Y=             -0.3579    Z=              0.0000  Tot=              1.3648
 Quadrupole moment (field-independent basis, Debye-Ang):
   XX=             -8.5708   YY=             17.0559   ZZ=            -14.9867
   XY=             -3.0694   XZ=              0.0000   YZ=              0.0000

 \MP4DQ=-33.8903334\MP4SDQ=-33.8923646\CCSD=-33.8934222\CCSD(T)=-33.895
 Normal termination of Gaussian 16 at Sun Dec 10 06:50:52 2023.
