 Gaussian 16, Revision A.03,
 Gaussian 16:  ES64L-G16RevA.03 25-Dec-2016

 ------------------
 #p CCSD(T)/CEP-31G
 ------------------

 ------------
 H2O_H2O_3609
 ------------
 Symbolic Z-matrix:
 Charge =  0 Multiplicity = 1

                         Standard orientation:
 ---------------------------------------------------------------------
 Center     Atomic      Atomic             Coordinates (Angstroms)
 Number     Number       Type             X           Y           Z
 ---------------------------------------------------------------------
      1          8           0        0.031740   -2.707789    0.000000
      2          1           0       -0.768405   -3.278117    0.000000
      3          1           0        0.830737   -3.279725    0.000000
      4          8           0        0.031740    2.726976    0.000000
      5          1           0        0.380179    3.645723    0.000000
      6          1           0       -0.950352    2.758624    0.000000
 ---------------------------------------------------------------------

 SCF Done:  E(RHF) =  -33.6503160531     A.U. after   11 cycles
 E2 =    -0.2284685762D+00 EUMP2 =    -0.33878784629317D+02
 CCSD(T)
 CCSD(T)= -0.33895827420D+02

 The electronic state is 1-A'.
 Alpha  occ. eigenvalues --   -1.34957  -1.34760  -0.70584  -0.70381  -0.54609
 Alpha  occ. eigenvalues --   -0.54412  -0.49507  -0.49311
 Alpha virt. eigenvalues --    0.20731   0.20934   0.30965   0.31155   0.81046
 Alpha virt. eigenvalues --    0.81240   0.84124   0.84499   0.87266   0.87515
 Alpha virt. eigenvalues --    1.17882   1.18076   1.22353   1.22548   2.57934

 Mulliken charges:
               1
     1  O   -0.735943
     2  H    0.366716
     3  H    0.369227
     4  O   -0.735556
     5  H    0.365954
     6  H    0.369602
 Sum of Mulliken charges =   0.00000

 Dipole moment (field-independent basis, Debye):
    X=             -1.4621    Y=             -0.4513    Z=              0.0000  Tot=              1.5302
 Quadrupole moment (field-independent basis, Debye-Ang):
   XX=             -8.6974   YY=             14.9332   ZZ=            -14.9866
   XY=             -3.2021   XZ=              0.0000   YZ=              0.0000

 MP4DQ=-33.8901716\MP4SDQ=-33.8922034\CCSD=-33.8932611\CCSD(T)=-33.8958
 Normal termination of Gaussian 16 at Sun Dec 10 06:44:52 2023.
