 Gaussian 16, Revision A.03,
 Gaussian 16:  ES64L-G16RevA.03 25-Dec-2016

 ------------------
 #p CCSD(T)/CEP-31G
 ------------------

 ------------
 H2O_H2O_2604
 ------------
 Symbolic Z-matrix:
 Charge =  0 Multiplicity = 1

                         Standard orientation:
 ---------------------------------------------------------------------
 Center     Atomic      Atomic             Coordinates (Angstroms)
 Number     Number       Type             X           Y           Z
 ---------------------------------------------------------------------
      1          8           0        0.014783   -2.184269    0.000000
      2          1           0       -0.785120   -2.754935    0.000000
      3          1           0        0.814022   -2.755866    0.000000
      4          8           0        0.014783    2.188144    0.000000
      5          1           0        0.639732    2.946395    0.000000
      6          1           0       -0.905163    2.533406    0.000000
 ---------------------------------------------------------------------

 SCF Done:  E(RHF) =  -33.6483567613     A.U. after   11 cycles
 E2 =    -0.2285950897D+00 EUMP2 =    -0.33876951850916D+02
 CCSD(T)
 CCSD(T)= -0.33894051742D+02

 The electronic state is 1-A'.
 Alpha  occ. eigenvalues --   -1.34413  -1.34351  -0.70036  -0.69970  -0.54022
 Alpha  occ. eigenvalues --   -0.53806  -0.48937  -0.48870
 Alpha virt. eigenvalues --    0.21023   0.21378   0.31385   0.31472   0.81442
 Alpha virt. eigenvalues --    0.81847   0.82177   0.87097   0.88035   0.88921
 Alpha virt. eigenvalues --    1.18346   1.18406   1.22813   1.22924   2.58353

 Mulliken charges:
               1
     1  O   -0.729218
     2  H    0.363548
     3  H    0.365675
     4  O   -0.728975
     5  H    0.363151
     6  H    0.365819
 Sum of Mulliken charges =  -0.00000

 Dipole moment (field-independent basis, Debye):
    X=             -0.6776    Y=             -0.0926    Z=              0.0000  Tot=              0.6839
 Quadrupole moment (field-independent basis, Debye-Ang):
   XX=             -8.2143   YY=             10.7727   ZZ=            -14.9848
   XY=             -1.0687   XZ=              0.0000   YZ=              0.0000

 \MP4DQ=-33.8883776\MP4SDQ=-33.8904166\CCSD=-33.8914762\CCSD(T)=-33.894
 Normal termination of Gaussian 16 at Sun Dec 10 06:26:39 2023.
