 Gaussian 16, Revision A.03,
 Gaussian 16:  ES64L-G16RevA.03 25-Dec-2016

 ------------------
 #p CCSD(T)/CEP-31G
 ------------------

 -----------
 H2O_H2O_165
 -----------
 Symbolic Z-matrix:
 Charge =  0 Multiplicity = 1

                         Standard orientation:
 ---------------------------------------------------------------------
 Center     Atomic      Atomic             Coordinates (Angstroms)
 Number     Number       Type             X           Y           Z
 ---------------------------------------------------------------------
      1          8           0        0.047605   -0.856037    0.000000
      2          1           0       -0.754607   -1.423453    0.000000
      3          1           0        0.844518   -1.430872    0.000000
      4          8           0        0.047605    0.906361    0.000000
      5          1           0        0.021501    1.888616    0.000000
      6          1           0       -0.873094    0.563113    0.000000
 ---------------------------------------------------------------------

 SCF Done:  E(RHF) =  -33.5389617770     A.U. after   11 cycles
 E2 =    -0.2350690977D+00 EUMP2 =    -0.33774030874740D+02
 CCSD(T)
 CCSD(T)= -0.33791015445D+02

 The electronic state is 1-A'.
 Alpha  occ. eigenvalues --   -1.37632  -1.29365  -0.73398  -0.69272  -0.56469
 Alpha  occ. eigenvalues --   -0.51789  -0.43471  -0.40345
 Alpha virt. eigenvalues --    0.19970   0.28645   0.30777   0.33623   0.80555
 Alpha virt. eigenvalues --    0.84530   0.89515   0.95602   0.97450   1.18887
 Alpha virt. eigenvalues --    1.20978   1.25952   1.27885   1.36111   2.58900

 Mulliken charges:
               1
     1  O   -0.770584
     2  H    0.344731
     3  H    0.400248
     4  O   -0.642002
     5  H    0.315691
     6  H    0.351915
 Sum of Mulliken charges =   0.00000

 Dipole moment (field-independent basis, Debye):
    X=             -1.7509    Y=             -1.2846    Z=              0.0000  Tot=              2.1716
 Quadrupole moment (field-independent basis, Debye-Ang):
   XX=             -9.6112   YY=             -6.6985   ZZ=            -14.9623
   XY=             -1.3982   XZ=              0.0000   YZ=              0.0000

 MP4DQ=-33.7844076\MP4SDQ=-33.7869862\CCSD=-33.7877379\CCSD(T)=-33.7910
 Normal termination of Gaussian 16 at Sun Dec 10 06:27:50 2023.
