 Gaussian 16, Revision A.03,
 Gaussian 16:  ES64L-G16RevA.03 25-Dec-2016

 ------------------
 #p CCSD(T)/CEP-31G
 ------------------

 ------------
 H2O_H2O_1338
 ------------
 Symbolic Z-matrix:
 Charge =  0 Multiplicity = 1

                         Standard orientation:
 ---------------------------------------------------------------------
 Center     Atomic      Atomic             Coordinates (Angstroms)
 Number     Number       Type             X           Y           Z
 ---------------------------------------------------------------------
      1          8           0        0.042988   -1.487262    0.000000
      2          1           0       -0.757982   -2.056430    0.000000
      3          1           0        0.841155   -2.060354    0.000000
      4          8           0        0.042988    1.525963    0.000000
      5          1           0        0.143180    2.503443    0.000000
      6          1           0       -0.914155    1.303733    0.000000
 ---------------------------------------------------------------------

 SCF Done:  E(RHF) =  -33.6453915137     A.U. after   11 cycles
 E2 =    -0.2292765534D+00 EUMP2 =    -0.33874668067099D+02
 CCSD(T)
 CCSD(T)= -0.33891931619D+02

 The electronic state is 1-A'.
 Alpha  occ. eigenvalues --   -1.34314  -1.33003  -0.69944  -0.68576  -0.54213
 Alpha  occ. eigenvalues --   -0.51889  -0.48842  -0.47471
 Alpha virt. eigenvalues --    0.20330   0.23531   0.31399   0.32556   0.76892
 Alpha virt. eigenvalues --    0.79355   0.84187   0.85608   0.91768   1.13036
 Alpha virt. eigenvalues --    1.18306   1.21731   1.22952   1.24951   2.60301

 Mulliken charges:
               1
     1  O   -0.724816
     2  H    0.354079
     3  H    0.370342
     4  O   -0.713980
     5  H    0.347650
     6  H    0.366725
 Sum of Mulliken charges =   0.00000

 Dipole moment (field-independent basis, Debye):
    X=             -1.9131    Y=             -0.9663    Z=              0.0000  Tot=              2.1433
 Quadrupole moment (field-independent basis, Debye-Ang):
   XX=             -9.2805   YY=              1.7891   ZZ=            -14.9872
   XY=             -2.2992   XZ=              0.0000   YZ=              0.0000

 \MP4DQ=-33.8861373\MP4SDQ=-33.8882396\CCSD=-33.8892985\CCSD(T)=-33.891
 Normal termination of Gaussian 16 at Sun Dec 10 06:49:46 2023.
