 Gaussian 16, Revision A.03,
 Gaussian 16:  ES64L-G16RevA.03 25-Dec-2016

 ------------------
 #p CCSD(T)/CEP-31G
 ------------------

 -----------
 H2O_H2O_905
 -----------
 Symbolic Z-matrix:
 Charge =  0 Multiplicity = 1

                         Standard orientation:
 ---------------------------------------------------------------------
 Center     Atomic      Atomic             Coordinates (Angstroms)
 Number     Number       Type             X           Y           Z
 ---------------------------------------------------------------------
      1          8           0        0.018362   -1.278984    0.000000
      2          1           0       -0.781912   -1.849129    0.000000
      3          1           0        0.817228   -1.851101    0.000000
      4          8           0        0.018362    1.285000    0.000000
      5          1           0        0.592899    2.082128    0.000000
      6          1           0       -0.922009    1.569968    0.000000
 ---------------------------------------------------------------------

 SCF Done:  E(RHF) =  -33.6332785975     A.U. after   11 cycles
 E2 =    -0.2298853539D+00 EUMP2 =    -0.33863163951328D+02
 CCSD(T)
 CCSD(T)= -0.33880594960D+02

 The electronic state is 1-A'.
 Alpha  occ. eigenvalues --   -1.32927  -1.32261  -0.68475  -0.67927  -0.54572
 Alpha  occ. eigenvalues --   -0.48453  -0.47620  -0.46322
 Alpha virt. eigenvalues --    0.21326   0.24060   0.32517   0.32819   0.79371
 Alpha virt. eigenvalues --    0.79967   0.86946   0.88449   1.02242   1.11472
 Alpha virt. eigenvalues --    1.19548   1.21847   1.24222   1.25191   2.56285

 Mulliken charges:
               1
     1  O   -0.705081
     2  H    0.346433
     3  H    0.357379
     4  O   -0.698987
     5  H    0.348662
     6  H    0.351594
 Sum of Mulliken charges =  -0.00000

 Dipole moment (field-independent basis, Debye):
    X=             -0.7897    Y=             -0.1462    Z=              0.0000  Tot=              0.8031
 Quadrupole moment (field-independent basis, Debye-Ang):
   XX=             -8.4364   YY=              0.3927   ZZ=            -14.9929
   XY=             -0.6316   XZ=              0.0000   YZ=              0.0000

 P4DQ=-33.8746892\MP4SDQ=-33.8767996\CCSD=-33.877892\CCSD(T)=-33.880595
 Normal termination of Gaussian 16 at Sun Dec 10 06:41:41 2023.
