 Gaussian 16, Revision A.03,
 Gaussian 16:  ES64L-G16RevA.03 25-Dec-2016

 ------------------
 #p CCSD(T)/CEP-31G
 ------------------

 ------------
 H2O_H2O_2220
 ------------
 Symbolic Z-matrix:
 Charge =  0 Multiplicity = 1

                         Standard orientation:
 ---------------------------------------------------------------------
 Center     Atomic      Atomic             Coordinates (Angstroms)
 Number     Number       Type             X           Y           Z
 ---------------------------------------------------------------------
      1          8           0        0.055269   -1.927803    0.000000
      2          1           0       -0.745676   -2.497005    0.000000
      3          1           0        0.853461   -2.500860    0.000000
      4          8           0        0.055269    2.012199    0.000000
      5          1           0       -0.287239    2.933173    0.000000
      6          1           0       -0.704849    1.389522    0.000000
 ---------------------------------------------------------------------

 SCF Done:  E(RHF) =  -33.6519067604     A.U. after   11 cycles
 E2 =    -0.2285758633D+00 EUMP2 =    -0.33880482623673D+02
 CCSD(T)
 CCSD(T)= -0.33897489082D+02

 The electronic state is 1-A'.
 Alpha  occ. eigenvalues --   -1.35590  -1.33850  -0.71227  -0.69418  -0.55330
 Alpha  occ. eigenvalues --   -0.53553  -0.50162  -0.48426
 Alpha virt. eigenvalues --    0.19690   0.22408   0.30346   0.32265   0.79483
 Alpha virt. eigenvalues --    0.80222   0.82268   0.85761   0.86511   0.93495
 Alpha virt. eigenvalues --    1.17300   1.19432   1.21678   1.24513   2.56706

 Mulliken charges:
               1
     1  O   -0.741288
     2  H    0.365857
     3  H    0.375970
     4  O   -0.739040
     5  H    0.358733
     6  H    0.379768
 Sum of Mulliken charges =   0.00000

 Dipole moment (field-independent basis, Debye):
    X=             -2.5224    Y=             -2.0456    Z=              0.0000  Tot=              3.2476
 Quadrupole moment (field-independent basis, Debye-Ang):
   XX=            -10.0092   YY=              2.6457   ZZ=            -14.9905
   XY=             -4.8656   XZ=              0.0000   YZ=              0.0000

 \MP4DQ=-33.8918247\MP4SDQ=-33.893868\CCSD=-33.8949127\CCSD(T)=-33.8974
 Normal termination of Gaussian 16 at Sun Dec 10 07:07:21 2023.
