 Gaussian 16, Revision A.03,
 Gaussian 16:  ES64L-G16RevA.03 25-Dec-2016

 ------------------
 #p CCSD(T)/CEP-31G
 ------------------

 ------------
 H2O_H2O_2570
 ------------
 Symbolic Z-matrix:
 Charge =  0 Multiplicity = 1

                         Standard orientation:
 ---------------------------------------------------------------------
 Center     Atomic      Atomic             Coordinates (Angstroms)
 Number     Number       Type             X           Y           Z
 ---------------------------------------------------------------------
      1          8           0        0.055260   -2.113933    0.000000
      2          1           0       -0.745567   -2.683303    0.000000
      3          1           0        0.853571   -2.686825    0.000000
      4          8           0        0.055260    2.198352    0.000000
      5          1           0       -0.287439    3.119256    0.000000
      6          1           0       -0.704728    1.575519    0.000000
 ---------------------------------------------------------------------

 SCF Done:  E(RHF) =  -33.6518335963     A.U. after   11 cycles
 E2 =    -0.2284852614D+00 EUMP2 =    -0.33880318857683D+02
 CCSD(T)
 CCSD(T)= -0.33897319810D+02

 The electronic state is 1-A'.
 Alpha  occ. eigenvalues --   -1.35567  -1.34142  -0.71202  -0.69726  -0.55305
 Alpha  occ. eigenvalues --   -0.53851  -0.50138  -0.48716
 Alpha virt. eigenvalues --    0.19934   0.21893   0.30404   0.31916   0.80386
 Alpha virt. eigenvalues --    0.81655   0.81840   0.85461   0.86488   0.89830
 Alpha virt. eigenvalues --    1.17333   1.18898   1.21731   1.23621   2.57282

 Mulliken charges:
               1
     1  O   -0.741228
     2  H    0.366776
     3  H    0.374665
     4  O   -0.739612
     5  H    0.361415
     6  H    0.377984
 Sum of Mulliken charges =  -0.00000

 Dipole moment (field-independent basis, Debye):
    X=             -2.5315    Y=             -2.0224    Z=              0.0000  Tot=              3.2401
 Quadrupole moment (field-independent basis, Debye-Ang):
   XX=            -10.0123   YY=              3.9299   ZZ=            -14.9899
   XY=             -5.3275   XZ=              0.0000   YZ=              0.0000

 9\MP4DQ=-33.8916683\MP4SDQ=-33.8937022\CCSD=-33.8947516\CCSD(T)=-33.89
 Normal termination of Gaussian 16 at Sun Dec 10 06:26:02 2023.
