 Gaussian 16, Revision A.03,
 Gaussian 16:  ES64L-G16RevA.03 25-Dec-2016

 ------------------
 #p CCSD(T)/CEP-31G
 ------------------

 ------------
 H2O_H2O_3623
 ------------
 Symbolic Z-matrix:
 Charge =  0 Multiplicity = 1

                         Standard orientation:
 ---------------------------------------------------------------------
 Center     Atomic      Atomic             Coordinates (Angstroms)
 Number     Number       Type             X           Y           Z
 ---------------------------------------------------------------------
      1          8           0        0.057087   -2.660345    0.000000
      2          1           0       -0.743515   -3.230030    0.000000
      3          1           0        0.855624   -3.232921    0.000000
      4          8           0        0.057087    2.766894    0.000000
      5          1           0       -0.459017    3.603042    0.000000
      6          1           0       -0.566491    2.007514    0.000000
 ---------------------------------------------------------------------

 SCF Done:  E(RHF) =  -33.6522219662     A.U. after   11 cycles
 E2 =    -0.2283768306D+00 EUMP2 =    -0.33880598796805D+02
 CCSD(T)
 CCSD(T)= -0.33897586165D+02

 The electronic state is 1-A'.
 Alpha  occ. eigenvalues --   -1.35748  -1.34661  -0.71383  -0.70273  -0.55510
 Alpha  occ. eigenvalues --   -0.54400  -0.50326  -0.49239
 Alpha virt. eigenvalues --    0.20033   0.21182   0.30288   0.31410   0.80228
 Alpha virt. eigenvalues --    0.81292   0.83178   0.84338   0.86336   0.87522
 Alpha virt. eigenvalues --    1.17172   1.18255   1.21624   1.22749   2.57169

 Mulliken charges:
               1
     1  O   -0.742680
     2  H    0.369276
     3  H    0.373411
     4  O   -0.742365
     5  H    0.366024
     6  H    0.376335
 Sum of Mulliken charges =  -0.00000

 Dipole moment (field-independent basis, Debye):
    X=             -2.6292    Y=             -2.5085    Z=              0.0000  Tot=              3.6339
 Quadrupole moment (field-independent basis, Debye-Ang):
   XX=            -10.1538   YY=              4.9947   ZZ=            -14.9898
   XY=             -7.3541   XZ=              0.0000   YZ=              0.0000

 P4DQ=-33.891945\MP4SDQ=-33.8939718\CCSD=-33.8950254\CCSD(T)=-33.897586
 Normal termination of Gaussian 16 at Sun Dec 10 06:45:08 2023.
