 Gaussian 16, Revision A.03,
 Gaussian 16:  ES64L-G16RevA.03 25-Dec-2016

 ------------------
 #p CCSD(T)/CEP-31G
 ------------------

 ------------
 H2O_H2O_3356
 ------------
 Symbolic Z-matrix:
 Charge =  0 Multiplicity = 1

                         Standard orientation:
 ---------------------------------------------------------------------
 Center     Atomic      Atomic             Coordinates (Angstroms)
 Number     Number       Type             X           Y           Z
 ---------------------------------------------------------------------
      1          8           0        0.021859   -2.580546    0.000000
      2          1           0       -0.778127   -3.151095    0.000000
      3          1           0        0.821014   -3.152259    0.000000
      4          8           0        0.021859    2.589209    0.000000
      5          1           0        0.542611    3.422470    0.000000
      6          1           0       -0.935249    2.811580    0.000000
 ---------------------------------------------------------------------

 SCF Done:  E(RHF) =  -33.6498116673     A.U. after   11 cycles
 E2 =    -0.2284947654D+00 EUMP2 =    -0.33878306432704D+02
 CCSD(T)
 CCSD(T)= -0.33895363780D+02

 The electronic state is 1-A'.
 Alpha  occ. eigenvalues --   -1.34784  -1.34686  -0.70409  -0.70307  -0.54408
 Alpha  occ. eigenvalues --   -0.54306  -0.49326  -0.49228
 Alpha virt. eigenvalues --    0.20870   0.20988   0.31108   0.31203   0.81224
 Alpha virt. eigenvalues --    0.81327   0.84109   0.84883   0.87467   0.87623
 Alpha virt. eigenvalues --    1.18034   1.18131   1.22509   1.22607   2.58098

 Mulliken charges:
               1
     1  O   -0.734184
     2  H    0.366096
     3  H    0.368088
     4  O   -0.733939
     5  H    0.365617
     6  H    0.368322
 Sum of Mulliken charges =  -0.00000

 Dipole moment (field-independent basis, Debye):
    X=             -1.0061    Y=             -0.2043    Z=              0.0000  Tot=              1.0267
 Quadrupole moment (field-independent basis, Debye-Ang):
   XX=             -8.3604   YY=             14.5885   ZZ=            -14.9860
   XY=             -2.0012   XZ=              0.0000   YZ=              0.0000

 4DQ=-33.8897039\MP4SDQ=-33.891737\CCSD=-33.8927956\CCSD(T)=-33.8953638
 Normal termination of Gaussian 16 at Sun Dec 10 06:40:16 2023.
