 Gaussian 16, Revision A.03,
 Gaussian 16:  ES64L-G16RevA.03 25-Dec-2016

 ------------------
 #p CCSD(T)/CEP-31G
 ------------------

 -----------
 H2O_H2O_802
 -----------
 Symbolic Z-matrix:
 Charge =  0 Multiplicity = 1

                         Standard orientation:
 ---------------------------------------------------------------------
 Center     Atomic      Atomic             Coordinates (Angstroms)
 Number     Number       Type             X           Y           Z
 ---------------------------------------------------------------------
      1          8           0        0.007455   -1.228541    0.000000
      2          1           0       -0.792414   -1.799256    0.000000
      3          1           0        0.806728   -1.800091    0.000000
      4          8           0        0.007455    1.229511    0.000000
      5          1           0        0.725988    1.899747    0.000000
      6          1           0       -0.859583    1.691844    0.000000
 ---------------------------------------------------------------------

 SCF Done:  E(RHF) =  -33.6287240170     A.U. after   11 cycles
 E2 =    -0.2301394479D+00 EUMP2 =    -0.33858863464866D+02
 CCSD(T)
 CCSD(T)= -0.33876284018D+02

 The electronic state is 1-A'.
 Alpha  occ. eigenvalues --   -1.32738  -1.31929  -0.68239  -0.67627  -0.54991
 Alpha  occ. eigenvalues --   -0.47474  -0.47269  -0.45890
 Alpha virt. eigenvalues --    0.21519   0.24295   0.32706   0.32987   0.78988
 Alpha virt. eigenvalues --    0.79535   0.89050   0.90529   1.04791   1.09755
 Alpha virt. eigenvalues --    1.19743   1.21637   1.24197   1.25535   2.54899

 Mulliken charges:
               1
     1  O   -0.699770
     2  H    0.347202
     3  H    0.352275
     4  O   -0.698513
     5  H    0.349291
     6  H    0.349516
 Sum of Mulliken charges =   0.00000

 Dipole moment (field-independent basis, Debye):
    X=             -0.3158    Y=             -0.0232    Z=              0.0000  Tot=              0.3166
 Quadrupole moment (field-independent basis, Debye-Ang):
   XX=             -8.2867   YY=             -0.2254   ZZ=            -14.9978
   XY=             -0.2278   XZ=              0.0000   YZ=              0.0000

 -33.8703457\MP4SDQ=-33.872458\CCSD=-33.8735498\CCSD(T)=-33.876284\RMSD
 Normal termination of Gaussian 16 at Sun Dec 10 06:39:44 2023.
