 Gaussian 16, Revision A.03,
 Gaussian 16:  ES64L-G16RevA.03 25-Dec-2016

 ------------------
 #p CCSD(T)/CEP-31G
 ------------------

 ------------
 H2O_H2O_4594
 ------------
 Symbolic Z-matrix:
 Charge =  0 Multiplicity = 1

                         Standard orientation:
 ---------------------------------------------------------------------
 Center     Atomic      Atomic             Coordinates (Angstroms)
 Number     Number       Type             X           Y           Z
 ---------------------------------------------------------------------
      1          8           0        0.054138   -3.194741    0.000000
      2          1           0       -0.746254   -3.764721    0.000000
      3          1           0        0.852886   -3.767023    0.000000
      4          8           0        0.054138    3.272094    0.000000
      5          1           0       -0.228316    4.213225    0.000000
      6          1           0       -0.744523    2.699690    0.000000
 ---------------------------------------------------------------------

 SCF Done:  E(RHF) =  -33.6516650826     A.U. after   11 cycles
 E2 =    -0.2283914998D+00 EUMP2 =    -0.33880056582432D+02
 CCSD(T)
 CCSD(T)= -0.33897060296D+02

 The electronic state is 1-A'.
 Alpha  occ. eigenvalues --   -1.35520  -1.34971  -0.71153  -0.70593  -0.55248
 Alpha  occ. eigenvalues --   -0.54693  -0.50090  -0.49541
 Alpha virt. eigenvalues --    0.20244   0.20807   0.30483   0.31038   0.80462
 Alpha virt. eigenvalues --    0.81003   0.83498   0.84051   0.86606   0.87205
 Alpha virt. eigenvalues --    1.17376   1.17922   1.21835   1.22390   2.57396

 Mulliken charges:
               1
     1  O   -0.740693
     2  H    0.369089
     3  H    0.371604
     4  O   -0.740425
     5  H    0.367640
     6  H    0.372785
 Sum of Mulliken charges =  -0.00000

 Dipole moment (field-independent basis, Debye):
    X=             -2.4991    Y=             -1.8084    Z=              0.0000  Tot=              3.0847
 Quadrupole moment (field-independent basis, Debye-Ang):
   XX=             -9.9425   YY=             12.2727   ZZ=            -14.9885
   XY=             -7.7520   XZ=              0.0000   YZ=              0.0000

 \MP4DQ=-33.8914152\MP4SDQ=-33.8934432\CCSD=-33.8944987\CCSD(T)=-33.897
 Normal termination of Gaussian 16 at Sun Dec 10 07:04:20 2023.
