 Gaussian 16, Revision A.03,
 Gaussian 16:  ES64L-G16RevA.03 25-Dec-2016

 ------------------
 #p CCSD(T)/CEP-31G
 ------------------

 ------------
 H2O_H2O_4958
 ------------
 Symbolic Z-matrix:
 Charge =  0 Multiplicity = 1

                         Standard orientation:
 ---------------------------------------------------------------------
 Center     Atomic      Atomic             Coordinates (Angstroms)
 Number     Number       Type             X           Y           Z
 ---------------------------------------------------------------------
      1          8           0        0.028562   -3.427900    0.000000
      2          1           0       -0.771417   -3.998460    0.000000
      3          1           0        0.827724   -3.999604    0.000000
      4          8           0        0.028562    3.443163    0.000000
      5          1           0        0.436086    4.337271    0.000000
      6          1           0       -0.949385    3.538692    0.000000
 ---------------------------------------------------------------------

 SCF Done:  E(RHF) =  -33.6510327839     A.U. after   11 cycles
 E2 =    -0.2284186620D+00 EUMP2 =    -0.33879451445881D+02
 CCSD(T)
 CCSD(T)= -0.33896473623D+02

 The electronic state is 1-A'.
 Alpha  occ. eigenvalues --   -1.35176  -1.35079  -0.70805  -0.70706  -0.54868
 Alpha  occ. eigenvalues --   -0.54772  -0.49735  -0.49639
 Alpha virt. eigenvalues --    0.20554   0.20652   0.30788   0.30883   0.80818
 Alpha virt. eigenvalues --    0.80913   0.83915   0.84009   0.87000   0.87111
 Alpha virt. eigenvalues --    1.17694   1.17790   1.22158   1.22254   2.57729

 Mulliken charges:
               1
     1  O   -0.738418
     2  H    0.368620
     3  H    0.369798
     4  O   -0.738311
     5  H    0.368262
     6  H    0.370049
 Sum of Mulliken charges =   0.00000

 Dipole moment (field-independent basis, Debye):
    X=             -1.3193    Y=             -0.3562    Z=              0.0000  Tot=              1.3666
 Quadrupole moment (field-independent basis, Debye-Ang):
   XX=             -8.5645   YY=             22.4961   ZZ=            -14.9873
   XY=             -3.7791   XZ=              0.0000   YZ=              0.0000

 \MP4DQ=-33.8908236\MP4SDQ=-33.8928533\CCSD=-33.8939102\CCSD(T)=-33.896
 Normal termination of Gaussian 16 at Sun Dec 10 07:11:04 2023.
