 Gaussian 16, Revision A.03,
 Gaussian 16:  ES64L-G16RevA.03 25-Dec-2016

 ------------------
 #p CCSD(T)/CEP-31G
 ------------------

 -----------
 H2O_H2O_224
 -----------
 Symbolic Z-matrix:
 Charge =  0 Multiplicity = 1

                         Standard orientation:
 ---------------------------------------------------------------------
 Center     Atomic      Atomic             Coordinates (Angstroms)
 Number     Number       Type             X           Y           Z
 ---------------------------------------------------------------------
      1          8           0        0.057423   -0.848261    0.000000
      2          1           0       -0.745239   -1.415041    0.000000
      3          1           0        0.853879   -1.423728    0.000000
      4          8           0        0.057423    0.961865    0.000000
      5          1           0       -0.509358    1.764528    0.000000
      6          1           0       -0.518044    0.165408    0.000000
 ---------------------------------------------------------------------

 SCF Done:  E(RHF) =  -33.5146625805     A.U. after   11 cycles
 E2 =    -0.2331702530D+00 EUMP2 =    -0.33747832833521D+02
 CCSD(T)
 CCSD(T)= -0.33763032237D+02

 The electronic state is 1-A'.
 Alpha  occ. eigenvalues --   -1.44018  -1.27528  -0.80756  -0.73746  -0.56211
 Alpha  occ. eigenvalues --   -0.48386  -0.45195  -0.41811
 Alpha virt. eigenvalues --    0.18192   0.26545   0.30816   0.39724   0.77192
 Alpha virt. eigenvalues --    0.84396   0.90973   0.92489   0.97553   1.14763
 Alpha virt. eigenvalues --    1.17311   1.25064   1.33474   1.38065   2.93036

 Mulliken charges:
               1
     1  O   -0.777552
     2  H    0.374349
     3  H    0.469536
     4  O   -0.707716
     5  H    0.281379
     6  H    0.360004
 Sum of Mulliken charges =   0.00000

 Dipole moment (field-independent basis, Debye):
    X=             -2.1094    Y=             -3.5384    Z=              0.0000  Tot=              4.1195
 Quadrupole moment (field-independent basis, Debye-Ang):
   XX=            -10.0759   YY=             -8.1649   ZZ=            -14.9112
   XY=             -2.6207   XZ=              0.0000   YZ=              0.0000

 \MP4DQ=-33.7563598\MP4SDQ=-33.7589664\CCSD=-33.7595492\CCSD(T)=-33.763
 Normal termination of Gaussian 16 at Sun Dec 10 06:28:56 2023.
