 Gaussian 16, Revision A.03,
 Gaussian 16:  ES64L-G16RevA.03 25-Dec-2016

 ------------------
 #p CCSD(T)/CEP-31G
 ------------------

 ------------
 H2O_H2O_2602
 ------------
 Symbolic Z-matrix:
 Charge =  0 Multiplicity = 1

                         Standard orientation:
 ---------------------------------------------------------------------
 Center     Atomic      Atomic             Coordinates (Angstroms)
 Number     Number       Type             X           Y           Z
 ---------------------------------------------------------------------
      1          8           0        0.007455   -2.185845    0.000000
      2          1           0       -0.792284   -2.756743    0.000000
      3          1           0        0.806858   -2.757212    0.000000
      4          8           0        0.007455    2.186818    0.000000
      5          1           0        0.725835    2.857218    0.000000
      6          1           0       -0.859688    2.648953    0.000000
 ---------------------------------------------------------------------

 SCF Done:  E(RHF) =  -33.6482362895     A.U. after   11 cycles
 E2 =    -0.2285976530D+00 EUMP2 =    -0.33876833942518D+02
 CCSD(T)
 CCSD(T)= -0.33893937204D+02

 The electronic state is 1-A'.
 Alpha  occ. eigenvalues --   -1.34372  -1.34356  -0.69994  -0.69977  -0.53995
 Alpha  occ. eigenvalues --   -0.53781  -0.48898  -0.48869
 Alpha virt. eigenvalues --    0.21046   0.21381   0.31400   0.31483   0.81465
 Alpha virt. eigenvalues --    0.81864   0.82201   0.87395   0.88109   0.88624
 Alpha virt. eigenvalues --    1.18382   1.18397   1.22825   1.22940   2.58368

 Mulliken charges:
               1
     1  O   -0.728794
     2  H    0.363861
     3  H    0.364934
     4  O   -0.728731
     5  H    0.363701
     6  H    0.365029
 Sum of Mulliken charges =   0.00000

 Dipole moment (field-independent basis, Debye):
    X=             -0.3418    Y=             -0.0233    Z=              0.0000  Tot=              0.3425
 Quadrupole moment (field-independent basis, Debye-Ang):
   XX=             -8.1115   YY=             10.9755   ZZ=            -14.9847
   XY=             -0.5322   XZ=              0.0000   YZ=              0.0000

 4DQ=-33.8882621\MP4SDQ=-33.8903014\CCSD=-33.8913613\CCSD(T)=-33.893937
 Normal termination of Gaussian 16 at Sun Dec 10 06:26:37 2023.
