 Gaussian 16, Revision A.03,
 Gaussian 16:  ES64L-G16RevA.03 25-Dec-2016

 ------------------
 #p CCSD(T)/CEP-31G
 ------------------

 -----------
 H2O_H2O_560
 -----------
 Symbolic Z-matrix:
 Charge =  0 Multiplicity = 1

                         Standard orientation:
 ---------------------------------------------------------------------
 Center     Atomic      Atomic             Coordinates (Angstroms)
 Number     Number       Type             X           Y           Z
 ---------------------------------------------------------------------
      1          8           0        0.034800   -1.083390    0.000000
      2          1           0       -0.766329   -1.652334    0.000000
      3          1           0        0.832807   -1.656705    0.000000
      4          8           0        0.034800    1.106804    0.000000
      5          1           0        0.324028    2.045874    0.000000
      6          1           0       -0.947314    1.075849    0.000000
 ---------------------------------------------------------------------

 SCF Done:  E(RHF) =  -33.6190014998     A.U. after   11 cycles
 E2 =    -0.2311417583D+00 EUMP2 =    -0.33850143258182D+02
 CCSD(T)
 CCSD(T)= -0.33867498642D+02

 The electronic state is 1-A'.
 Alpha  occ. eigenvalues --   -1.33490  -1.31287  -0.68986  -0.67316  -0.56290
 Alpha  occ. eigenvalues --   -0.48310  -0.45711  -0.45220
 Alpha virt. eigenvalues --    0.20854   0.25695   0.32223   0.33133   0.79542
 Alpha virt. eigenvalues --    0.81908   0.89811   0.96290   1.00186   1.14057
 Alpha virt. eigenvalues --    1.19429   1.23030   1.24699   1.29982   2.52439

 Mulliken charges:
               1
     1  O   -0.727147
     2  H    0.344036
     3  H    0.372198
     4  O   -0.683805
     5  H    0.346280
     6  H    0.348438
 Sum of Mulliken charges =  -0.00000

 Dipole moment (field-independent basis, Debye):
    X=             -1.4186    Y=             -0.5607    Z=              0.0000  Tot=              1.5254
 Quadrupole moment (field-independent basis, Debye-Ang):
   XX=             -8.9913   YY=             -2.5497   ZZ=            -15.0022
   XY=             -1.1013   XZ=              0.0000   YZ=              0.0000

 P4DQ=-33.8614229\MP4SDQ=-33.8636263\CCSD=-33.864673\CCSD(T)=-33.867498
 Normal termination of Gaussian 16 at Sun Dec 10 06:35:13 2023.
