 Gaussian 16, Revision A.03,
 Gaussian 16:  ES64L-G16RevA.03 25-Dec-2016

 ------------------
 #p CCSD(T)/CEP-31G
 ------------------

 ------------
 H2O_H2O_2011
 ------------
 Symbolic Z-matrix:
 Charge =  0 Multiplicity = 1

                         Standard orientation:
 ---------------------------------------------------------------------
 Center     Atomic      Atomic             Coordinates (Angstroms)
 Number     Number       Type             X           Y           Z
 ---------------------------------------------------------------------
      1          8           0        0.037682   -1.851947    0.000000
      2          1           0       -0.762880   -2.421689    0.000000
      3          1           0        0.836260   -2.424467    0.000000
      4          8           0        0.037682    1.880162    0.000000
      5          1           0        0.263919    2.836365    0.000000
      6          1           0       -0.940210    1.784067    0.000000
 ---------------------------------------------------------------------

 SCF Done:  E(RHF) =  -33.6479631439     A.U. after   11 cycles
 E2 =    -0.2287595266D+00 EUMP2 =    -0.33876722670462D+02
 CCSD(T)
 CCSD(T)= -0.33893845796D+02

 The electronic state is 1-A'.
 Alpha  occ. eigenvalues --   -1.34498  -1.33862  -0.70124  -0.69453  -0.54113
 Alpha  occ. eigenvalues --   -0.53255  -0.49019  -0.48381
 Alpha virt. eigenvalues --    0.20629   0.22113   0.31291   0.31905   0.77408
 Alpha virt. eigenvalues --    0.80881   0.82810   0.85883   0.88744   0.97840
 Alpha virt. eigenvalues --    1.18243   1.19016   1.22730   1.23437   2.57953

 Mulliken charges:
               1
     1  O   -0.728138
     2  H    0.360047
     3  H    0.368284
     4  O   -0.725368
     5  H    0.357018
     6  H    0.368158
 Sum of Mulliken charges =   0.00000

 Dipole moment (field-independent basis, Debye):
    X=             -1.7137    Y=             -0.6878    Z=              0.0000  Tot=              1.8466
 Quadrupole moment (field-independent basis, Debye-Ang):
   XX=             -8.9888   YY=              5.8972   ZZ=            -14.9856
   XY=             -2.4804   XZ=              0.0000   YZ=              0.0000

 MP4DQ=-33.8881492\MP4SDQ=-33.8902034\CCSD=-33.8912569\CCSD(T)=-33.8938
 Normal termination of Gaussian 16 at Sun Dec 10 07:03:36 2023.
