 Gaussian 16, Revision A.03,
 Gaussian 16:  ES64L-G16RevA.03 25-Dec-2016

 ------------------
 #p CCSD(T)/CEP-31G
 ------------------

 ------------
 H2O_H2O_4210
 ------------
 Symbolic Z-matrix:
 Charge =  0 Multiplicity = 1

                         Standard orientation:
 ---------------------------------------------------------------------
 Center     Atomic      Atomic             Coordinates (Angstroms)
 Number     Number       Type             X           Y           Z
 ---------------------------------------------------------------------
      1          8           0        0.034780   -3.024529    0.000000
      2          1           0       -0.765354   -3.594873    0.000000
      3          1           0        0.833788   -3.596449    0.000000
      4          8           0        0.034780    3.048065    0.000000
      5          1           0        0.322366    3.987639    0.000000
      6          1           0       -0.947279    3.015395    0.000000
 ---------------------------------------------------------------------

 SCF Done:  E(RHF) =  -33.6508060650     A.U. after   11 cycles
 E2 =    -0.2284365948D+00 EUMP2 =    -0.33879242659782D+02
 CCSD(T)
 CCSD(T)= -0.33896271275D+02

 The electronic state is 1-A'.
 Alpha  occ. eigenvalues --   -1.35116  -1.34924  -0.70744  -0.70547  -0.54796
 Alpha  occ. eigenvalues --   -0.54603  -0.49673  -0.49481
 Alpha virt. eigenvalues --    0.20601   0.20796   0.30835   0.31023   0.80881
 Alpha virt. eigenvalues --    0.81070   0.84000   0.84191   0.87075   0.87301
 Alpha virt. eigenvalues --    1.17744   1.17934   1.22210   1.22401   2.57785

 Mulliken charges:
               1
     1  O   -0.737638
     2  H    0.367810
     3  H    0.369828
     4  O   -0.737370
     5  H    0.367142
     6  H    0.370228
 Sum of Mulliken charges =  -0.00000

 Dipole moment (field-independent basis, Debye):
    X=             -1.6046    Y=             -0.5512    Z=              0.0000  Tot=              1.6967
 Quadrupole moment (field-independent basis, Debye-Ang):
   XX=             -8.8237   YY=             17.5689   ZZ=            -14.9871
   XY=             -4.0610   XZ=              0.0000   YZ=              0.0000

 MP4DQ=-33.8906195\MP4SDQ=-33.8926498\CCSD=-33.8937069\CCSD(T)=-33.8962
 Normal termination of Gaussian 16 at Sun Dec 10 06:55:53 2023.
