 Gaussian 16, Revision A.03,
 Gaussian 16:  ES64L-G16RevA.03 25-Dec-2016

 ------------------
 #p CCSD(T)/CEP-31G
 ------------------

 ------------
 H2O_H2O_1278
 ------------
 Symbolic Z-matrix:
 Charge =  0 Multiplicity = 1

                         Standard orientation:
 ---------------------------------------------------------------------
 Center     Atomic      Atomic             Coordinates (Angstroms)
 Number     Number       Type             X           Y           Z
 ---------------------------------------------------------------------
      1          8           0        0.011143   -1.480506    0.000000
      2          1           0       -0.788798   -2.051120    0.000000
      3          1           0        0.810344   -2.052155    0.000000
      4          8           0        0.011143    1.482687    0.000000
      5          1           0        0.684391    2.198397    0.000000
      6          1           0       -0.884225    1.887435    0.000000
 ---------------------------------------------------------------------

 SCF Done:  E(RHF) =  -33.6401586192     A.U. after   11 cycles
 E2 =    -0.2292718772D+00 EUMP2 =    -0.33869430496408D+02
 CCSD(T)
 CCSD(T)= -0.33886801449D+02

 The electronic state is 1-A'.
 Alpha  occ. eigenvalues --   -1.33252  -1.33032  -0.68850  -0.68657  -0.53758
 Alpha  occ. eigenvalues --   -0.50733  -0.47844  -0.47282
 Alpha virt. eigenvalues --    0.21269   0.23074   0.32141   0.32496   0.78880
 Alpha virt. eigenvalues --    0.79887   0.82179   0.86239   0.97897   1.08583
 Alpha virt. eigenvalues --    1.19242   1.19863   1.23903   1.24230   2.59482

 Mulliken charges:
               1
     1  O   -0.708133
     2  H    0.351746
     3  H    0.356294
     4  O   -0.707162
     5  H    0.351869
     6  H    0.355387
 Sum of Mulliken charges =  -0.00000

 Dipole moment (field-independent basis, Debye):
    X=             -0.4963    Y=             -0.0543    Z=              0.0000  Tot=              0.4992
 Quadrupole moment (field-independent basis, Debye-Ang):
   XX=             -8.2603   YY=              3.0192   ZZ=            -14.9850
   XY=             -0.4665   XZ=              0.0000   YZ=              0.0000

 \MP4DQ=-33.8809873\MP4SDQ=-33.8830772\CCSD=-33.884158\CCSD(T)=-33.8868
 Normal termination of Gaussian 16 at Sun Dec 10 06:48:39 2023.
