 Gaussian 16, Revision A.03,
 Gaussian 16:  ES64L-G16RevA.03 25-Dec-2016

 ------------------
 #p CCSD(T)/CEP-31G
 ------------------

 ------------
 H2O_H2O_4895
 ------------
 Symbolic Z-matrix:
 Charge =  0 Multiplicity = 1

                         Standard orientation:
 ---------------------------------------------------------------------
 Center     Atomic      Atomic             Coordinates (Angstroms)
 Number     Number       Type             X           Y           Z
 ---------------------------------------------------------------------
      1          8           0        0.055226   -3.350406    0.000000
      2          1           0       -0.745143   -3.920419    0.000000
      3          1           0        0.853997   -3.922657    0.000000
      4          8           0        0.055226    3.434914    0.000000
      5          1           0       -0.288212    4.355543    0.000000
      6          1           0       -0.704262    2.811471    0.000000
 ---------------------------------------------------------------------

 SCF Done:  E(RHF) =  -33.6517595062     A.U. after   11 cycles
 E2 =    -0.2283837561D+00 EUMP2 =    -0.33880143262276D+02
 CCSD(T)
 CCSD(T)= -0.33897144289D+02

 The electronic state is 1-A'.
 Alpha  occ. eigenvalues --   -1.35569  -1.35028  -0.71201  -0.70651  -0.55302
 Alpha  occ. eigenvalues --   -0.54755  -0.50140  -0.49599
 Alpha virt. eigenvalues --    0.20201   0.20755   0.30441   0.30989   0.80412
 Alpha virt. eigenvalues --    0.80946   0.83440   0.83985   0.86550   0.87133
 Alpha virt. eigenvalues --    1.17332   1.17870   1.21790   1.22337   2.57349

 Mulliken charges:
               1
     1  O   -0.741026
     2  H    0.369404
     3  H    0.371622
     4  O   -0.740832
     5  H    0.368053
     6  H    0.372779
 Sum of Mulliken charges =  -0.00000

 Dipole moment (field-independent basis, Debye):
    X=             -2.5503    Y=             -1.9730    Z=              0.0000  Tot=              3.2244
 Quadrupole moment (field-independent basis, Debye-Ang):
   XX=            -10.0211   YY=             12.3193   ZZ=            -14.9886
   XY=             -8.4395   XZ=              0.0000   YZ=              0.0000

 6\MP4DQ=-33.8915\MP4SDQ=-33.8935277\CCSD=-33.8945831\CCSD(T)=-33.89714
 Normal termination of Gaussian 16 at Sun Dec 10 07:09:54 2023.
