 Gaussian 16, Revision A.03,
 Gaussian 16:  ES64L-G16RevA.03 25-Dec-2016

 ------------------
 #p CCSD(T)/CEP-31G
 ------------------

 ----------
 H2O_H2O_17
 ----------
 Symbolic Z-matrix:
 Charge =  0 Multiplicity = 1

                         Standard orientation:
 ---------------------------------------------------------------------
 Center     Atomic      Atomic             Coordinates (Angstroms)
 Number     Number       Type             X           Y           Z
 ---------------------------------------------------------------------
      1          8           0        0.051398   -0.769299    0.000000
      2          1           0       -0.751306   -1.336020    0.000000
      3          1           0        0.847812   -1.344825    0.000000
      4          8           0        0.051398    0.832439    0.000000
      5          1           0       -0.101852    1.803017    0.000000
      6          1           0       -0.817021    0.372705    0.000000
 ---------------------------------------------------------------------

 SCF Done:  E(RHF) =  -33.4446924830     A.U. after   12 cycles
 E2 =    -0.2383986028D+00 EUMP2 =    -0.33683091085732D+02
 CCSD(T)
 CCSD(T)= -0.33699656221D+02

 The electronic state is 1-A'.
 Alpha  occ. eigenvalues --   -1.42516  -1.28322  -0.77767  -0.72136  -0.55059
 Alpha  occ. eigenvalues --   -0.54879  -0.42803  -0.36494
 Alpha virt. eigenvalues --    0.19423   0.29191   0.30643   0.33770   0.80310
 Alpha virt. eigenvalues --    0.82585   0.88783   0.95475   0.96035   1.18877
 Alpha virt. eigenvalues --    1.21408   1.26327   1.28118   1.41376   2.69221

 Mulliken charges:
               1
     1  O   -0.762536
     2  H    0.336315
     3  H    0.412778
     4  O   -0.620580
     5  H    0.277793
     6  H    0.356231
 Sum of Mulliken charges =  -0.00000

 Dipole moment (field-independent basis, Debye):
    X=             -1.7701    Y=             -1.7112    Z=              0.0000  Tot=              2.4620
 Quadrupole moment (field-independent basis, Debye-Ang):
   XX=             -9.8358   YY=             -8.8455   ZZ=            -14.8846
   XY=             -1.4245   XZ=              0.0000   YZ=              0.0000

 DQ=-33.6925628\MP4SDQ=-33.6954703\CCSD=-33.6959153\CCSD(T)=-33.6996562
 Normal termination of Gaussian 16 at Sun Dec 10 06:25:02 2023.
