 Gaussian 16, Revision A.03,
 Gaussian 16:  ES64L-G16RevA.03 25-Dec-2016

 ------------------
 #p CCSD(T)/CEP-31G
 ------------------

 ------------
 H2O_H2O_3572
 ------------
 Symbolic Z-matrix:
 Charge =  0 Multiplicity = 1

                         Standard orientation:
 ---------------------------------------------------------------------
 Center     Atomic      Atomic             Coordinates (Angstroms)
 Number     Number       Type             X           Y           Z
 ---------------------------------------------------------------------
      1          8           0        0.056715   -2.637792    0.000000
      2          1           0       -0.743891   -3.207473    0.000000
      3          1           0        0.855248   -3.210373    0.000000
      4          8           0        0.056715    2.736903    0.000000
      5          1           0       -0.403593    3.605018    0.000000
      6          1           0       -0.615198    2.019938    0.000000
 ---------------------------------------------------------------------

 SCF Done:  E(RHF) =  -33.6520740654     A.U. after   11 cycles
 E2 =    -0.2283868383D+00 EUMP2 =    -0.33880460903750D+02
 CCSD(T)
 CCSD(T)= -0.33897452605D+02

 The electronic state is 1-A'.
 Alpha  occ. eigenvalues --   -1.35686  -1.34651  -0.71320  -0.70262  -0.55439
 Alpha  occ. eigenvalues --   -0.54384  -0.50262  -0.49227
 Alpha virt. eigenvalues --    0.20087   0.21182   0.30341   0.31404   0.80292
 Alpha virt. eigenvalues --    0.81305   0.83250   0.84365   0.86409   0.87551
 Alpha virt. eigenvalues --    1.17228   1.18259   1.21681   1.22750   2.57228

 Mulliken charges:
               1
     1  O   -0.742162
     2  H    0.368942
     3  H    0.373226
     4  O   -0.741729
     5  H    0.365800
     6  H    0.375922
 Sum of Mulliken charges =  -0.00000

 Dipole moment (field-independent basis, Debye):
    X=             -2.6119    Y=             -2.3344    Z=              0.0000  Tot=              3.5030
 Quadrupole moment (field-independent basis, Debye-Ang):
   XX=            -10.1255   YY=              5.7745   ZZ=            -14.9895
   XY=             -7.1023   XZ=              0.0000   YZ=              0.0000

 DQ=-33.8918103\MP4SDQ=-33.8938375\CCSD=-33.8948914\CCSD(T)=-33.8974526
 Normal termination of Gaussian 16 at Sun Dec 10 06:44:12 2023.
