 Gaussian 16, Revision A.03,
 Gaussian 16:  ES64L-G16RevA.03 25-Dec-2016

 ------------------
 #p CCSD(T)/CEP-31G
 ------------------

 -----------
 H2O_H2O_342
 -----------
 Symbolic Z-matrix:
 Charge =  0 Multiplicity = 1

                         Standard orientation:
 ---------------------------------------------------------------------
 Center     Atomic      Atomic             Coordinates (Angstroms)
 Number     Number       Type             X           Y           Z
 ---------------------------------------------------------------------
      1          8           0        0.051367   -0.942093    0.000000
      2          1           0       -0.750782   -1.509598    0.000000
      3          1           0        0.848343   -1.516840    0.000000
      4          8           0        0.051367    1.005334    0.000000
      5          1           0       -0.102831    1.975761    0.000000
      6          1           0       -0.816602    0.544752    0.000000
 ---------------------------------------------------------------------

 SCF Done:  E(RHF) =  -33.5903876453     A.U. after   11 cycles
 E2 =    -0.2328917524D+00 EUMP2 =    -0.33823279397730D+02
 CCSD(T)
 CCSD(T)= -0.33840339346D+02

 The electronic state is 1-A'.
 Alpha  occ. eigenvalues --   -1.36386  -1.30147  -0.72340  -0.68861  -0.54650
 Alpha  occ. eigenvalues --   -0.50813  -0.45524  -0.44356
 Alpha virt. eigenvalues --    0.19779   0.27947   0.30584   0.34118   0.79276
 Alpha virt. eigenvalues --    0.84717   0.89908   0.96058   0.99257   1.16220
 Alpha virt. eigenvalues --    1.19759   1.24899   1.27307   1.32847   2.60328

 Mulliken charges:
               1
     1  O   -0.778736
     2  H    0.352749
     3  H    0.403206
     4  O   -0.658611
     5  H    0.320463
     6  H    0.360928
 Sum of Mulliken charges =   0.00000

 Dipole moment (field-independent basis, Debye):
    X=             -1.9915    Y=             -1.6040    Z=              0.0000  Tot=              2.5572
 Quadrupole moment (field-independent basis, Debye-Ang):
   XX=             -9.7856   YY=             -5.3319   ZZ=            -14.9854
   XY=             -1.8702   XZ=              0.0000   YZ=              0.0000

 MP4DQ=-33.8340073\MP4SDQ=-33.8363908\CCSD=-33.8372842\CCSD(T)=-33.8403
 Normal termination of Gaussian 16 at Sun Dec 10 06:31:10 2023.
