 Gaussian 16, Revision A.03,
 Gaussian 16:  ES64L-G16RevA.03 25-Dec-2016

 ------------------
 #p CCSD(T)/CEP-31G
 ------------------

 ------------
 H2O_H2O_1918
 ------------
 Symbolic Z-matrix:
 Charge =  0 Multiplicity = 1

                         Standard orientation:
 ---------------------------------------------------------------------
 Center     Atomic      Atomic             Coordinates (Angstroms)
 Number     Number       Type             X           Y           Z
 ---------------------------------------------------------------------
      1          8           0        0.052854   -1.775934    0.000000
      2          1           0       -0.748147   -2.345059    0.000000
      3          1           0        0.850990   -2.349070    0.000000
      4          8           0        0.052854    1.846183    0.000000
      5          1           0       -0.166418    2.804006    0.000000
      6          1           0       -0.782088    1.328131    0.000000
 ---------------------------------------------------------------------

 SCF Done:  E(RHF) =  -33.6508097493     A.U. after   11 cycles
 E2 =    -0.2287402607D+00 EUMP2 =    -0.33879550009960D+02
 CCSD(T)
 CCSD(T)= -0.33896602350D+02

 The electronic state is 1-A'.
 Alpha  occ. eigenvalues --   -1.35320  -1.33597  -0.70956  -0.69155  -0.55006
 Alpha  occ. eigenvalues --   -0.53236  -0.49877  -0.48162
 Alpha virt. eigenvalues --    0.19763   0.22785   0.30546   0.32425   0.76841
 Alpha virt. eigenvalues --    0.80105   0.82948   0.85930   0.87154   0.99406
 Alpha virt. eigenvalues --    1.17506   1.19912   1.21924   1.24793   2.56466

 Mulliken charges:
               1
     1  O   -0.737688
     2  H    0.363027
     3  H    0.375363
     4  O   -0.733658
     5  H    0.355349
     6  H    0.377607
 Sum of Mulliken charges =   0.00000

 Dipole moment (field-independent basis, Debye):
    X=             -2.3990    Y=             -1.7216    Z=              0.0000  Tot=              2.9528
 Quadrupole moment (field-independent basis, Debye-Ang):
   XX=             -9.8431   YY=              2.5909   ZZ=            -14.9896
   XY=             -4.0412   XZ=              0.0000   YZ=              0.0000

 MP4DQ=-33.8909122\MP4SDQ=-33.8929699\CCSD=-33.8940131\CCSD(T)=-33.8966
 Normal termination of Gaussian 16 at Sun Dec 10 07:00:46 2023.
