 Gaussian 16, Revision A.03,
 Gaussian 16:  ES64L-G16RevA.03 25-Dec-2016

 ------------------
 #p CCSD(T)/CEP-31G
 ------------------

 ------------
 H2O_H2O_3965
 ------------
 Symbolic Z-matrix:
 Charge =  0 Multiplicity = 1

                         Standard orientation:
 ---------------------------------------------------------------------
 Center     Atomic      Atomic             Coordinates (Angstroms)
 Number     Number       Type             X           Y           Z
 ---------------------------------------------------------------------
      1          8           0        0.047524   -2.876854    0.000000
      2          1           0       -0.752851   -3.446860    0.000000
      3          1           0        0.846289   -3.449112    0.000000
      4          8           0        0.047524    2.927486    0.000000
      5          1           0        0.018246    3.909651    0.000000
      6          1           0       -0.872062    2.581266    0.000000
 ---------------------------------------------------------------------

 SCF Done:  E(RHF) =  -33.6511442590     A.U. after   11 cycles
 E2 =    -0.2284259356D+00 EUMP2 =    -0.33879570194552D+02
 CCSD(T)
 CCSD(T)= -0.33896589011D+02

 The electronic state is 1-A'.
 Alpha  occ. eigenvalues --   -1.35290  -1.34837  -0.70920  -0.70455  -0.54989
 Alpha  occ. eigenvalues --   -0.54532  -0.49852  -0.49399
 Alpha virt. eigenvalues --    0.20445   0.20909   0.30682   0.31131   0.80702
 Alpha virt. eigenvalues --    0.81147   0.83783   0.84240   0.86875   0.87396
 Alpha virt. eigenvalues --    1.17585   1.18034   1.22048   1.22502   2.57617

 Mulliken charges:
               1
     1  O   -0.738859
     2  H    0.367893
     3  H    0.370967
     4  O   -0.738365
     5  H    0.366504
     6  H    0.371861
 Sum of Mulliken charges =  -0.00000

 Dipole moment (field-independent basis, Debye):
    X=             -2.1913    Y=             -1.1878    Z=              0.0000  Tot=              2.4925
 Quadrupole moment (field-independent basis, Debye-Ang):
   XX=             -9.5040   YY=             13.1971   ZZ=            -14.9878
   XY=             -5.6741   XZ=              0.0000   YZ=              0.0000

 \MP4DQ=-33.8909398\MP4SDQ=-33.8929693\CCSD=-33.8940255\CCSD(T)=-33.896
 Normal termination of Gaussian 16 at Sun Dec 10 06:51:27 2023.
