 Gaussian 16, Revision A.03,
 Gaussian 16:  ES64L-G16RevA.03 25-Dec-2016

 ------------------
 #p CCSD(T)/CEP-31G
 ------------------

 ------------
 H2O_H2O_4515
 ------------
 Symbolic Z-matrix:
 Charge =  0 Multiplicity = 1

                         Standard orientation:
 ---------------------------------------------------------------------
 Center     Atomic      Atomic             Coordinates (Angstroms)
 Number     Number       Type             X           Y           Z
 ---------------------------------------------------------------------
      1          8           0        0.047520   -3.169358    0.000000
      2          1           0       -0.752781   -3.739466    0.000000
      3          1           0        0.846360   -3.741513    0.000000
      4          8           0        0.047520    3.220002    0.000000
      5          1           0        0.018116    4.202164    0.000000
      6          1           0       -0.872021    2.873664    0.000000
 ---------------------------------------------------------------------

 SCF Done:  E(RHF) =  -33.6513092865     A.U. after   11 cycles
 E2 =    -0.2284104066D+00 EUMP2 =    -0.33879719693123D+02
 CCSD(T)
 CCSD(T)= -0.33896733767D+02

 The electronic state is 1-A'.
 Alpha  occ. eigenvalues --   -1.35344  -1.34973  -0.70975  -0.70595  -0.55052
 Alpha  occ. eigenvalues --   -0.54679  -0.49908  -0.49538
 Alpha virt. eigenvalues --    0.20401   0.20780   0.30638   0.31007   0.80644
 Alpha virt. eigenvalues --    0.81010   0.83715   0.84084   0.86809   0.87226
 Alpha virt. eigenvalues --    1.17537   1.17906   1.21999   1.22371   2.57566

 Mulliken charges:
               1
     1  O   -0.739424
     2  H    0.368538
     3  H    0.370886
     4  O   -0.739110
     5  H    0.367479
     6  H    0.371631
 Sum of Mulliken charges =  -0.00000

 Dipole moment (field-independent basis, Debye):
    X=             -2.1935    Y=             -1.1842    Z=              0.0000  Tot=              2.4928
 Quadrupole moment (field-independent basis, Debye-Ang):
   XX=             -9.5038   YY=             15.6358   ZZ=            -14.9879
   XY=             -6.3087   XZ=              0.0000   YZ=              0.0000

 7\MP4DQ=-33.8910859\MP4SDQ=-33.8931149\CCSD=-33.8941711\CCSD(T)=-33.89
 Normal termination of Gaussian 16 at Sun Dec 10 07:02:31 2023.
