 Gaussian 16, Revision A.03,
 Gaussian 16:  ES64L-G16RevA.03 25-Dec-2016

 ------------------
 #p CCSD(T)/CEP-31G
 ------------------

 -----------
 H2O_H2O_821
 -----------
 Symbolic Z-matrix:
 Charge =  0 Multiplicity = 1

                         Standard orientation:
 ---------------------------------------------------------------------
 Center     Atomic      Atomic             Coordinates (Angstroms)
 Number     Number       Type             X           Y           Z
 ---------------------------------------------------------------------
      1          8           0        0.056196   -1.179370    0.000000
      2          1           0       -0.745616   -1.747350    0.000000
      3          1           0        0.853513   -1.753645    0.000000
      4          8           0        0.056196    1.270870    0.000000
      5          1           0       -0.344444    2.168084    0.000000
      6          1           0       -0.662593    0.600909    0.000000
 ---------------------------------------------------------------------

 SCF Done:  E(RHF) =  -33.6439279092     A.U. after   11 cycles
 E2 =    -0.2303151895D+00 EUMP2 =    -0.33874243098687D+02
 CCSD(T)
 CCSD(T)= -0.33891209393D+02

 The electronic state is 1-A'.
 Alpha  occ. eigenvalues --   -1.36330  -1.31300  -0.72023  -0.68156  -0.54854
 Alpha  occ. eigenvalues --   -0.51044  -0.50910  -0.45822
 Alpha virt. eigenvalues --    0.19173   0.26613   0.29876   0.35470   0.77096
 Alpha virt. eigenvalues --    0.82921   0.88534   0.89848   0.96722   1.13487
 Alpha virt. eigenvalues --    1.19582   1.19829   1.24360   1.30718   2.69702

 Mulliken charges:
               1
     1  O   -0.767802
     2  H    0.363024
     3  H    0.402857
     4  O   -0.715384
     5  H    0.331597
     6  H    0.385709
 Sum of Mulliken charges =  -0.00000

 Dipole moment (field-independent basis, Debye):
    X=             -2.3865    Y=             -2.3892    Z=              0.0000  Tot=              3.3769
 Quadrupole moment (field-independent basis, Debye-Ang):
   XX=            -10.0515   YY=             -3.4682   ZZ=            -15.0028
   XY=             -3.1729   XZ=              0.0000   YZ=              0.0000

 MP4DQ=-33.8852305\MP4SDQ=-33.8874246\CCSD=-33.8884123\CCSD(T)=-33.8912
 Normal termination of Gaussian 16 at Sun Dec 10 06:40:06 2023.
