 Gaussian 16, Revision A.03,
 Gaussian 16:  ES64L-G16RevA.03 25-Dec-2016

 ------------------
 #p CCSD(T)/CEP-31G
 ------------------

 ----------
 H2O_H2O_87
 ----------
 Symbolic Z-matrix:
 Charge =  0 Multiplicity = 1

                         Standard orientation:
 ---------------------------------------------------------------------
 Center     Atomic      Atomic             Coordinates (Angstroms)
 Number     Number       Type             X           Y           Z
 ---------------------------------------------------------------------
      1          8           0        0.040454   -0.825493    0.000000
      2          1           0       -0.761468   -1.393319    0.000000
      3          1           0        0.837660   -1.399921    0.000000
      4          8           0        0.040454    0.858615    0.000000
      5          1           0        0.205985    1.827174    0.000000
      6          1           0       -0.929439    0.701087    0.000000
 ---------------------------------------------------------------------

 SCF Done:  E(RHF) =  -33.5080898608     A.U. after   12 cycles
 E2 =    -0.2368019456D+00 EUMP2 =    -0.33744891806379D+02
 CCSD(T)
 CCSD(T)= -0.33761687751D+02

 The electronic state is 1-A'.
 Alpha  occ. eigenvalues --   -1.37990  -1.29018  -0.73111  -0.69050  -0.59217
 Alpha  occ. eigenvalues --   -0.52200  -0.42955  -0.36182
 Alpha virt. eigenvalues --    0.20257   0.28645   0.31175   0.33485   0.81357
 Alpha virt. eigenvalues --    0.84677   0.89134   0.93377   0.97854   1.20010
 Alpha virt. eigenvalues --    1.21054   1.25771   1.26418   1.38309   2.56540

 Mulliken charges:
               1
     1  O   -0.744353
     2  H    0.335731
     3  H    0.390392
     4  O   -0.649766
     5  H    0.322539
     6  H    0.345458
 Sum of Mulliken charges =  -0.00000

 Dipole moment (field-independent basis, Debye):
    X=             -1.4584    Y=             -0.8763    Z=              0.0000  Tot=              1.7014
 Quadrupole moment (field-independent basis, Debye-Ang):
   XX=             -9.3098   YY=             -7.3742   ZZ=            -14.9616
   XY=             -1.0413   XZ=              0.0000   YZ=              0.0000

 4DQ=-33.7549091\MP4SDQ=-33.7576207\CCSD=-33.7582586\CCSD(T)=-33.761687
 Normal termination of Gaussian 16 at Sun Dec 10 06:26:21 2023.
