 Gaussian 16, Revision A.03,
 Gaussian 16:  ES64L-G16RevA.03 25-Dec-2016

 ------------------
 #p CCSD(T)/CEP-31G
 ------------------

 ------------
 H2O_H2O_4600
 ------------
 Symbolic Z-matrix:
 Charge =  0 Multiplicity = 1

                         Standard orientation:
 ---------------------------------------------------------------------
 Center     Atomic      Atomic             Coordinates (Angstroms)
 Number     Number       Type             X           Y           Z
 ---------------------------------------------------------------------
      1          8           0        0.000000   -0.000000    3.250046
      2          1           0        0.000000    0.799571    3.821178
      3          1           0       -0.000000   -0.799571    3.821178
      4          8           0        0.000000   -0.000000   -3.250046
      5          1           0       -0.000000   -0.799571   -3.821178
      6          1           0        0.000000    0.799571   -3.821178
 ---------------------------------------------------------------------

 SCF Done:  E(RHF) =  -33.6506962202     A.U. after   10 cycles
 E2 =    -0.2284352696D+00 EUMP2 =    -0.33879131489820D+02
 CCSD(T)
 CCSD(T)= -0.33896163293D+02

 The electronic state is 1-AG.
 Alpha  occ. eigenvalues --   -1.35024  -1.35024  -0.70652  -0.70652  -0.54699
 Alpha  occ. eigenvalues --   -0.54698  -0.49579  -0.49579
 Alpha virt. eigenvalues --    0.20686   0.20687   0.30918   0.30918   0.80975
 Alpha virt. eigenvalues --    0.80975   0.84101   0.84109   0.87176   0.87177
 Alpha virt. eigenvalues --    1.17831   1.17831   1.22297   1.22297   2.57874

 Mulliken charges:
               1
     1  O   -0.737223
     2  H    0.368611
     3  H    0.368611
     4  O   -0.737223
     5  H    0.368611
     6  H    0.368611
 Sum of Mulliken charges =  -0.00000

 Dipole moment (field-independent basis, Debye):
    X=             -0.0000    Y=              0.0000    Z=              0.0000  Tot=              0.0000
 Quadrupole moment (field-independent basis, Debye-Ang):
   XX=            -14.9868   YY=             -8.0368   ZZ=             22.4860
   XY=              0.0000   XZ=              0.0000   YZ=             -0.0000

 33.8905106\MP4SDQ=-33.8925412\CCSD=-33.8935987\CCSD(T)=-33.8961633\RMS
 Normal termination of Gaussian 16 at Sun Dec 10 07:04:27 2023.
