 Gaussian 16, Revision A.03,
 Gaussian 16:  ES64L-G16RevA.03 25-Dec-2016

 ------------------
 #p CCSD(T)/CEP-31G
 ------------------

 ------------
 H2O_H2O_1222
 ------------
 Symbolic Z-matrix:
 Charge =  0 Multiplicity = 1

                         Standard orientation:
 ---------------------------------------------------------------------
 Center     Atomic      Atomic             Coordinates (Angstroms)
 Number     Number       Type             X           Y           Z
 ---------------------------------------------------------------------
      1          8           0        0.056793   -1.388070    0.000000
      2          1           0       -0.744710   -1.956487    0.000000
      3          1           0        0.854422   -1.961910    0.000000
      4          8           0        0.056793    1.487002    0.000000
      5          1           0       -0.402145    2.355842    0.000000
      6          1           0       -0.616250    0.771097    0.000000
 ---------------------------------------------------------------------

 SCF Done:  E(RHF) =  -33.6526899632     A.U. after   11 cycles
 E2 =    -0.2293924378D+00 EUMP2 =    -0.33882082401015D+02
 CCSD(T)
 CCSD(T)= -0.33899101973D+02

 The electronic state is 1-A'.
 Alpha  occ. eigenvalues --   -1.36232  -1.32238  -0.71887  -0.68065  -0.55891
 Alpha  occ. eigenvalues --   -0.52022  -0.50834  -0.46831
 Alpha virt. eigenvalues --    0.19079   0.25329   0.29882   0.34917   0.77628
 Alpha virt. eigenvalues --    0.77679   0.86105   0.87024   0.92080   1.12246
 Alpha virt. eigenvalues --    1.17078   1.20082   1.22178   1.29737   2.56111

 Mulliken charges:
               1
     1  O   -0.755807
     2  H    0.364971
     3  H    0.392123
     4  O   -0.737708
     5  H    0.343263
     6  H    0.393158
 Sum of Mulliken charges =   0.00000

 Dipole moment (field-independent basis, Debye):
    X=             -2.5105    Y=             -2.5322    Z=              0.0000  Tot=              3.5658
 Quadrupole moment (field-independent basis, Debye-Ang):
   XX=            -10.0958   YY=             -2.1606   ZZ=            -14.9995
   XY=             -3.8987   XZ=              0.0000   YZ=              0.0000

 4DQ=-33.8932796\MP4SDQ=-33.8954018\CCSD=-33.8964224\CCSD(T)=-33.899102
 Normal termination of Gaussian 16 at Sun Dec 10 06:47:36 2023.
