 Gaussian 16, Revision A.03,
 Gaussian 16:  ES64L-G16RevA.03 25-Dec-2016

 ------------------
 #p CCSD(T)/CEP-31G
 ------------------

 ------------
 H2O_H2O_2363
 ------------
 Symbolic Z-matrix:
 Charge =  0 Multiplicity = 1

                         Standard orientation:
 ---------------------------------------------------------------------
 Center     Atomic      Atomic             Coordinates (Angstroms)
 Number     Number       Type             X           Y           Z
 ---------------------------------------------------------------------
      1          8           0        0.042975   -2.032364    0.000000
      2          1           0       -0.757624   -2.602055    0.000000
      3          1           0        0.841516   -2.604936    0.000000
      4          8           0        0.042975    2.071121    0.000000
      5          1           0        0.142530    3.048667    0.000000
      6          1           0       -0.914022    1.848269    0.000000
 ---------------------------------------------------------------------

 SCF Done:  E(RHF) =  -33.6494418351     A.U. after   11 cycles
 E2 =    -0.2286110255D+00 EUMP2 =    -0.33878052860528D+02
 CCSD(T)
 CCSD(T)= -0.33895124088D+02

 The electronic state is 1-A'.
 Alpha  occ. eigenvalues --   -1.34835  -1.34117  -0.70463  -0.69711  -0.54449
 Alpha  occ. eigenvalues --   -0.53691  -0.49372  -0.48659
 Alpha virt. eigenvalues --    0.20557   0.21757   0.31024   0.31742   0.80217
 Alpha virt. eigenvalues --    0.81001   0.82057   0.85990   0.87572   0.92374
 Alpha virt. eigenvalues --    1.17968   1.18738   1.22414   1.23217   2.57947

 Mulliken charges:
               1
     1  O   -0.733066
     2  H    0.362955
     3  H    0.370219
     4  O   -0.730843
     5  H    0.359950
     6  H    0.370786
 Sum of Mulliken charges =   0.00000

 Dipole moment (field-independent basis, Debye):
    X=             -1.9639    Y=             -0.9317    Z=              0.0000  Tot=              2.1737
 Quadrupole moment (field-independent basis, Debye-Ang):
   XX=             -9.2473   YY=              6.9299   ZZ=            -14.9866
   XY=             -3.3199   XZ=              0.0000   YZ=              0.0000

 MP4DQ=-33.8894535\MP4SDQ=-33.8914938\CCSD=-33.8925479\CCSD(T)=-33.8951
 Normal termination of Gaussian 16 at Sun Dec 10 07:09:55 2023.
