 Gaussian 16, Revision A.03,
 Gaussian 16:  ES64L-G16RevA.03 25-Dec-2016

 ------------------
 #p CCSD(T)/CEP-31G
 ------------------

 ------------
 H2O_H2O_2759
 ------------
 Symbolic Z-matrix:
 Charge =  0 Multiplicity = 1

                         Standard orientation:
 ---------------------------------------------------------------------
 Center     Atomic      Atomic             Coordinates (Angstroms)
 Number     Number       Type             X           Y           Z
 ---------------------------------------------------------------------
      1          8           0        0.031742   -2.255735    0.000000
      2          1           0       -0.768517   -2.825903    0.000000
      3          1           0        0.830624   -2.827831    0.000000
      4          8           0        0.031742    2.274909    0.000000
      5          1           0        0.380365    3.193586    0.000000
      6          1           0       -0.950343    2.306754    0.000000
 ---------------------------------------------------------------------

 SCF Done:  E(RHF) =  -33.6492684842     A.U. after   11 cycles
 E2 =    -0.2285523099D+00 EUMP2 =    -0.33877820794149D+02
 CCSD(T)
 CCSD(T)= -0.33894894472D+02

 The electronic state is 1-A'.
 Alpha  occ. eigenvalues --   -1.34693  -1.34407  -0.70318  -0.70019  -0.54294
 Alpha  occ. eigenvalues --   -0.53982  -0.49228  -0.48943
 Alpha virt. eigenvalues --    0.20862   0.21302   0.31171   0.31442   0.81273
 Alpha virt. eigenvalues --    0.81653   0.82779   0.86023   0.87613   0.88764
 Alpha virt. eigenvalues --    1.18103   1.18386   1.22584   1.22869   2.58178

 Mulliken charges:
               1
     1  O   -0.732388
     2  H    0.364135
     3  H    0.368265
     4  O   -0.731499
     5  H    0.362910
     6  H    0.368577
 Sum of Mulliken charges =   0.00000

 Dipole moment (field-independent basis, Debye):
    X=             -1.4561    Y=             -0.4562    Z=              0.0000  Tot=              1.5259
 Quadrupole moment (field-independent basis, Debye-Ang):
   XX=             -8.7095   YY=             10.4578   ZZ=            -14.9858
   XY=             -2.5577   XZ=              0.0000   YZ=              0.0000

 P4DQ=-33.8892286\MP4SDQ=-33.8912645\CCSD=-33.8923226\CCSD(T)=-33.89489
 Normal termination of Gaussian 16 at Sun Dec 10 06:29:34 2023.
