 Gaussian 16, Revision A.03,
 Gaussian 16:  ES64L-G16RevA.03 25-Dec-2016

 ------------------
 #p CCSD(T)/CEP-31G
 ------------------

 -----------
 H2O_H2O_511
 -----------
 Symbolic Z-matrix:
 Charge =  0 Multiplicity = 1

                         Standard orientation:
 ---------------------------------------------------------------------
 Center     Atomic      Atomic             Coordinates (Angstroms)
 Number     Number       Type             X           Y           Z
 ---------------------------------------------------------------------
      1          8           0        0.037700   -1.054243    0.000000
      2          1           0       -0.763600   -1.622946    0.000000
      3          1           0        0.835535   -1.627799    0.000000
      4          8           0        0.037700    1.082361    0.000000
      5          1           0        0.265178    2.038269    0.000000
      6          1           0       -0.940316    0.987534    0.000000
 ---------------------------------------------------------------------

 SCF Done:  E(RHF) =  -33.6152845682     A.U. after   11 cycles
 E2 =    -0.2314354762D+00 EUMP2 =    -0.33846720044362D+02
 CCSD(T)
 CCSD(T)= -0.33864052548D+02

 The electronic state is 1-A'.
 Alpha  occ. eigenvalues --   -1.33766  -1.31111  -0.69275  -0.67343  -0.56474
 Alpha  occ. eigenvalues --   -0.48587  -0.45356  -0.45050
 Alpha virt. eigenvalues --    0.20716   0.26035   0.32057   0.33207   0.79599
 Alpha virt. eigenvalues --    0.82723   0.89888   0.96939   0.99807   1.14606
 Alpha virt. eigenvalues --    1.19320   1.23198   1.24826   1.30734   2.52531

 Mulliken charges:
               1
     1  O   -0.734388
     2  H    0.344513
     3  H    0.376063
     4  O   -0.679434
     5  H    0.344547
     6  H    0.348699
 Sum of Mulliken charges =   0.00000

 Dipole moment (field-independent basis, Debye):
    X=             -1.5227    Y=             -0.6757    Z=              0.0000  Tot=              1.6659
 Quadrupole moment (field-independent basis, Debye-Ang):
   XX=             -9.1157   YY=             -3.0377   ZZ=            -15.0017
   XY=             -1.2012   XZ=              0.0000   YZ=              0.0000

 4DQ=-33.8579373\MP4SDQ=-33.8601677\CCSD=-33.8611966\CCSD(T)=-33.864052
 Normal termination of Gaussian 16 at Sun Dec 10 06:34:18 2023.
