 Gaussian 16, Revision A.03,
 Gaussian 16:  ES64L-G16RevA.03 25-Dec-2016

 ------------------
 #p CCSD(T)/CEP-31G
 ------------------

 ----------
 H2O_H2O_97
 ----------
 Symbolic Z-matrix:
 Charge =  0 Multiplicity = 1

                         Standard orientation:
 ---------------------------------------------------------------------
 Center     Atomic      Atomic             Coordinates (Angstroms)
 Number     Number       Type             X           Y           Z
 ---------------------------------------------------------------------
      1          8           0        0.056912   -0.789897    0.000000
      2          1           0       -0.745963   -1.356376    0.000000
      3          1           0        0.853152   -1.365664    0.000000
      4          8           0        0.056912    0.888555    0.000000
      5          1           0       -0.399924    1.758501    0.000000
      6          1           0       -0.617859    0.174278    0.000000
 ---------------------------------------------------------------------

 SCF Done:  E(RHF) =  -33.4511568626     A.U. after   12 cycles
 E2 =    -0.2359495357D+00 EUMP2 =    -0.33687106398325D+02
 CCSD(T)
 CCSD(T)= -0.33702688977D+02

 The electronic state is 1-A'.
 Alpha  occ. eigenvalues --   -1.45034  -1.27606  -0.81253  -0.73729  -0.56416
 Alpha  occ. eigenvalues --   -0.49343  -0.42064  -0.41273
 Alpha virt. eigenvalues --    0.18634   0.27026   0.31250   0.36999   0.78368
 Alpha virt. eigenvalues --    0.83149   0.90183   0.93056   0.97314   1.15319
 Alpha virt. eigenvalues --    1.17786   1.28216   1.32407   1.40928   2.84651

 Mulliken charges:
               1
     1  O   -0.769418
     2  H    0.357781
     3  H    0.456255
     4  O   -0.673496
     5  H    0.268603
     6  H    0.360276
 Sum of Mulliken charges =   0.00000

 Dipole moment (field-independent basis, Debye):
    X=             -1.9998    Y=             -2.9614    Z=              0.0000  Tot=              3.5734
 Quadrupole moment (field-independent basis, Debye-Ang):
   XX=            -10.0822   YY=             -8.7921   ZZ=            -14.8769
   XY=             -2.1178   XZ=              0.0000   YZ=              0.0000

 4DQ=-33.6956828\MP4SDQ=-33.6984936\CCSD=-33.6989761\CCSD(T)=-33.702689
 Normal termination of Gaussian 16 at Sun Dec 10 06:26:33 2023.
