 Gaussian 16, Revision A.03,
 Gaussian 16:  ES64L-G16RevA.03 25-Dec-2016

 ------------------
 #p CCSD(T)/CEP-31G
 ------------------

 ------------
 H2O_H2O_3452
 ------------
 Symbolic Z-matrix:
 Charge =  0 Multiplicity = 1

                         Standard orientation:
 ---------------------------------------------------------------------
 Center     Atomic      Atomic             Coordinates (Angstroms)
 Number     Number       Type             X           Y           Z
 ---------------------------------------------------------------------
      1          8           0        0.007455   -2.637906    0.000000
      2          1           0       -0.792255   -3.208843    0.000000
      3          1           0        0.806887   -3.209232    0.000000
      4          8           0        0.007455    2.638879    0.000000
      5          1           0        0.725801    3.309316    0.000000
      6          1           0       -0.859712    3.100971    0.000000
 ---------------------------------------------------------------------

 SCF Done:  E(RHF) =  -33.6497469298     A.U. after   11 cycles
 E2 =    -0.2284926889D+00 EUMP2 =    -0.33878239618738D+02
 CCSD(T)
 CCSD(T)= -0.33895298721D+02

 The electronic state is 1-A'.
 Alpha  occ. eigenvalues --   -1.34739  -1.34729  -0.70364  -0.70353  -0.54365
 Alpha  occ. eigenvalues --   -0.54340  -0.49280  -0.49270
 Alpha virt. eigenvalues --    0.20903   0.20948   0.31147   0.31160   0.81264
 Alpha virt. eigenvalues --    0.81292   0.84211   0.84815   0.87502   0.87561
 Alpha virt. eigenvalues --    1.18076   1.18086   1.22550   1.22564   2.58137

 Mulliken charges:
               1
     1  O   -0.733937
     2  H    0.366646
     3  H    0.367290
     4  O   -0.733910
     5  H    0.366530
     6  H    0.367380
 Sum of Mulliken charges =  -0.00000

 Dipole moment (field-independent basis, Debye):
    X=             -0.3433    Y=             -0.0229    Z=              0.0000  Tot=              0.3440
 Quadrupole moment (field-independent basis, Debye-Ang):
   XX=             -8.0878   YY=             15.8438   ZZ=            -14.9859
   XY=             -0.6822   XZ=              0.0000   YZ=              0.0000

 P4DQ=-33.8896384\MP4SDQ=-33.8916716\CCSD=-33.8927305\CCSD(T)=-33.89529
 Normal termination of Gaussian 16 at Sun Dec 10 06:42:01 2023.
