 Gaussian 16, Revision A.03,
 Gaussian 16:  ES64L-G16RevA.03 25-Dec-2016

 ------------------
 #p CCSD(T)/CEP-31G
 ------------------

 ------------
 H2O_H2O_2181
 ------------
 Symbolic Z-matrix:
 Charge =  0 Multiplicity = 1

                         Standard orientation:
 ---------------------------------------------------------------------
 Center     Atomic      Atomic             Coordinates (Angstroms)
 Number     Number       Type             X           Y           Z
 ---------------------------------------------------------------------
      1          8           0        0.021860   -1.955643    0.000000
      2          1           0       -0.778258   -2.526007    0.000000
      3          1           0        0.820883   -2.527542    0.000000
      4          8           0        0.021860    1.964296    0.000000
      5          1           0        0.542805    2.797436    0.000000
      6          1           0       -0.935196    2.186890    0.000000
 ---------------------------------------------------------------------

 SCF Done:  E(RHF) =  -33.6473428084     A.U. after   11 cycles
 E2 =    -0.2287072594D+00 EUMP2 =    -0.33876050067889D+02
 CCSD(T)
 CCSD(T)= -0.33893183467D+02

 The electronic state is 1-A'.
 Alpha  occ. eigenvalues --   -1.34238  -1.34063  -0.69860  -0.69675  -0.53879
 Alpha  occ. eigenvalues --   -0.53353  -0.48753  -0.48565
 Alpha virt. eigenvalues --    0.20977   0.21770   0.31513   0.31698   0.79212
 Alpha virt. eigenvalues --    0.81273   0.82498   0.86590   0.89099   0.93739
 Alpha virt. eigenvalues --    1.18481   1.18662   1.22969   1.23202   2.58237

 Mulliken charges:
               1
     1  O   -0.725876
     2  H    0.360853
     3  H    0.365066
     4  O   -0.725045
     5  H    0.359889
     6  H    0.365113
 Sum of Mulliken charges =  -0.00000

 Dipole moment (field-independent basis, Debye):
    X=             -0.9977    Y=             -0.2097    Z=              0.0000  Tot=              1.0195
 Quadrupole moment (field-independent basis, Debye-Ang):
   XX=             -8.3955   YY=              8.0540   ZZ=            -14.9844
   XY=             -1.3972   XZ=              0.0000   YZ=              0.0000

 \MP4DQ=-33.8874918\MP4SDQ=-33.8895403\CCSD=-33.8905984\CCSD(T)=-33.893
 Normal termination of Gaussian 16 at Sun Dec 10 07:06:39 2023.
