 Gaussian 16, Revision A.03,
 Gaussian 16:  ES64L-G16RevA.03 25-Dec-2016

 ------------------
 #p CCSD(T)/CEP-31G
 ------------------

 -----------
 H2O_H2O_477
 -----------
 Symbolic Z-matrix:
 Charge =  0 Multiplicity = 1

                         Standard orientation:
 ---------------------------------------------------------------------
 Center     Atomic      Atomic             Coordinates (Angstroms)
 Number     Number       Type             X           Y           Z
 ---------------------------------------------------------------------
      1          8           0        0.007455   -1.055695    0.000000
      2          1           0       -0.792463   -1.626341    0.000000
      3          1           0        0.806679   -1.627313    0.000000
      4          8           0        0.007455    1.056663    0.000000
      5          1           0        0.726045    1.726838    0.000000
      6          1           0       -0.859543    1.519071    0.000000
 ---------------------------------------------------------------------

 SCF Done:  E(RHF) =  -33.6052300910     A.U. after   11 cycles
 E2 =    -0.2316532051D+00 EUMP2 =    -0.33836883296131D+02
 CCSD(T)
 CCSD(T)= -0.33854128863D+02

 The electronic state is 1-A'.
 Alpha  occ. eigenvalues --   -1.32905  -1.30796  -0.68152  -0.66657  -0.57644
 Alpha  occ. eigenvalues --   -0.47814  -0.44486  -0.42851
 Alpha virt. eigenvalues --    0.21569   0.25594   0.32884   0.33345   0.78283
 Alpha virt. eigenvalues --    0.80433   0.90188   0.97447   1.01797   1.18952
 Alpha virt. eigenvalues --    1.20223   1.22967   1.23728   1.27159   2.49593

 Mulliken charges:
               1
     1  O   -0.698951
     2  H    0.345413
     3  H    0.352924
     4  O   -0.696658
     5  H    0.349980
     6  H    0.347292
 Sum of Mulliken charges =  -0.00000

 Dipole moment (field-independent basis, Debye):
    X=             -0.2957    Y=             -0.0226    Z=              0.0000  Tot=              0.2966
 Quadrupole moment (field-independent basis, Debye-Ang):
   XX=             -8.3479   YY=             -2.8853   ZZ=            -15.0195
   XY=             -0.1751   XZ=              0.0000   YZ=              0.0000

 4DQ=-33.8480017\MP4SDQ=-33.8502063\CCSD=-33.8512369\CCSD(T)=-33.854128
 Normal termination of Gaussian 16 at Sun Dec 10 06:33:41 2023.
