 Gaussian 16, Revision A.03,
 Gaussian 16:  ES64L-G16RevA.03 25-Dec-2016

 ------------------
 #p CCSD(T)/CEP-31G
 ------------------

 ------------
 H2O_H2O_4542
 ------------
 Symbolic Z-matrix:
 Charge =  0 Multiplicity = 1

                         Standard orientation:
 ---------------------------------------------------------------------
 Center     Atomic      Atomic             Coordinates (Angstroms)
 Number     Number       Type             X           Y           Z
 ---------------------------------------------------------------------
      1          8           0        0.051267   -3.175637    0.000000
      2          1           0       -0.749088   -3.745670    0.000000
      3          1           0        0.850052   -3.747868    0.000000
      4          8           0        0.051267    3.239202    0.000000
      5          1           0       -0.105991    4.209138    0.000000
      6          1           0       -0.815245    2.775884    0.000000
 ---------------------------------------------------------------------

 SCF Done:  E(RHF) =  -33.6514837148     A.U. after   11 cycles
 E2 =    -0.2284014986D+00 EUMP2 =    -0.33879885213424D+02
 CCSD(T)
 CCSD(T)= -0.33896894209D+02

 The electronic state is 1-A'.
 Alpha  occ. eigenvalues --   -1.35430  -1.34970  -0.71062  -0.70592  -0.55148
 Alpha  occ. eigenvalues --   -0.54684  -0.49997  -0.49537
 Alpha virt. eigenvalues --    0.20324   0.20795   0.30562   0.31024   0.80555
 Alpha virt. eigenvalues --    0.81009   0.83609   0.84069   0.86710   0.87220
 Alpha virt. eigenvalues --    1.17459   1.17916   1.21919   1.22382   2.57483

 Mulliken charges:
               1
     1  O   -0.740046
     2  H    0.368786
     3  H    0.371261
     4  O   -0.739739
     5  H    0.367524
     6  H    0.372214
 Sum of Mulliken charges =  -0.00000

 Dipole moment (field-independent basis, Debye):
    X=             -2.3665    Y=             -1.4863    Z=              0.0000  Tot=              2.7945
 Quadrupole moment (field-independent basis, Debye-Ang):
   XX=             -9.7449   YY=             14.0038   ZZ=            -14.9882
   XY=             -7.0506   XZ=              0.0000   YZ=              0.0000

 4DQ=-33.8912477\MP4SDQ=-33.8932762\CCSD=-33.8943321\CCSD(T)=-33.896894
 Normal termination of Gaussian 16 at Sun Dec 10 07:03:24 2023.
