 Gaussian 16, Revision A.03,
 Gaussian 16:  ES64L-G16RevA.03 25-Dec-2016

 ------------------
 #p CCSD(T)/CEP-31G
 ------------------

 ------------
 H2O_H2O_1264
 ------------
 Symbolic Z-matrix:
 Charge =  0 Multiplicity = 1

                         Standard orientation:
 ---------------------------------------------------------------------
 Center     Atomic      Atomic             Coordinates (Angstroms)
 Number     Number       Type             X           Y           Z
 ---------------------------------------------------------------------
      1          8           0        0.045370   -1.444252    0.000000
      2          1           0       -0.755717   -2.013255    0.000000
      3          1           0        0.843419   -2.017508    0.000000
      4          8           0        0.045370    1.488701    0.000000
      5          1           0        0.081621    2.470633    0.000000
      6          1           0       -0.895247    1.204541    0.000000
 ---------------------------------------------------------------------

 SCF Done:  E(RHF) =  -33.6454733404     A.U. after   11 cycles
 E2 =    -0.2293773442D+00 EUMP2 =    -0.33874850684615D+02
 CCSD(T)
 CCSD(T)= -0.33892119013D+02

 The electronic state is 1-A'.
 Alpha  occ. eigenvalues --   -1.34432  -1.32847  -0.70066  -0.68429  -0.54339
 Alpha  occ. eigenvalues --   -0.51756  -0.48969  -0.47319
 Alpha virt. eigenvalues --    0.20203   0.23842   0.31305   0.32695   0.77791
 Alpha virt. eigenvalues --    0.79061   0.84378   0.86002   0.91776   1.14304
 Alpha virt. eigenvalues --    1.18202   1.22108   1.22854   1.25899   2.60815

 Mulliken charges:
               1
     1  O   -0.727216
     2  H    0.354051
     3  H    0.372408
     4  O   -0.713336
     5  H    0.346203
     6  H    0.367891
 Sum of Mulliken charges =   0.00000

 Dipole moment (field-independent basis, Debye):
    X=             -2.0103    Y=             -1.1117    Z=              0.0000  Tot=              2.2972
 Quadrupole moment (field-independent basis, Debye-Ang):
   XX=             -9.4093   YY=              1.1176   ZZ=            -14.9883
   XY=             -2.4253   XZ=              0.0000   YZ=              0.0000

 MP4DQ=-33.886309\MP4SDQ=-33.8884191\CCSD=-33.8894774\CCSD(T)=-33.89211
 Normal termination of Gaussian 16 at Sun Dec 10 06:48:23 2023.
