 Gaussian 16, Revision A.03,
 Gaussian 16:  ES64L-G16RevA.03 25-Dec-2016

 ------------------
 #p CCSD(T)/CEP-31G
 ------------------

 ------------
 H2O_H2O_2254
 ------------
 Symbolic Z-matrix:
 Charge =  0 Multiplicity = 1

                         Standard orientation:
 ---------------------------------------------------------------------
 Center     Atomic      Atomic             Coordinates (Angstroms)
 Number     Number       Type             X           Y           Z
 ---------------------------------------------------------------------
      1          8           0        0.014783   -1.998127    0.000000
      2          1           0       -0.785151   -2.568750    0.000000
      3          1           0        0.813991   -2.569768    0.000000
      4          8           0        0.014783    2.002001    0.000000
      5          1           0        0.639773    2.760218    0.000000
      6          1           0       -0.905144    2.347312    0.000000
 ---------------------------------------------------------------------

 SCF Done:  E(RHF) =  -33.6473399243     A.U. after   11 cycles
 E2 =    -0.2286853766D+00 EUMP2 =    -0.33876025300881D+02
 CCSD(T)
 CCSD(T)= -0.33893157029D+02

 The electronic state is 1-A'.
 Alpha  occ. eigenvalues --   -1.34205  -1.34129  -0.69826  -0.69746  -0.53857
 Alpha  occ. eigenvalues --   -0.53408  -0.48722  -0.48626
 Alpha virt. eigenvalues --    0.21038   0.21681   0.31515   0.31667   0.79890
 Alpha virt. eigenvalues --    0.81364   0.82376   0.86914   0.89116   0.92255
 Alpha virt. eigenvalues --    1.18514   1.18590   1.22955   1.23170   2.58287

 Mulliken charges:
               1
     1  O   -0.725817
     2  H    0.361565
     3  H    0.364268
     4  O   -0.725462
     5  H    0.361074
     6  H    0.364371
 Sum of Mulliken charges =   0.00000

 Dipole moment (field-independent basis, Debye):
    X=             -0.6755    Y=             -0.0936    Z=              0.0000  Tot=              0.6819
 Quadrupole moment (field-independent basis, Debye-Ang):
   XX=             -8.2298   YY=              8.7742   ZZ=            -14.9843
   XY=             -0.9489   XZ=              0.0000   YZ=              0.0000

 MP4DQ=-33.8874681\MP4SDQ=-33.8895145\CCSD=-33.8905737\CCSD(T)=-33.8931
 Normal termination of Gaussian 16 at Sun Dec 10 07:07:58 2023.
