 Gaussian 16, Revision A.03,
 Gaussian 16:  ES64L-G16RevA.03 25-Dec-2016

 ------------------
 #p CCSD(T)/CEP-31G
 ------------------

 -----------
 H2O_H2O_291
 -----------
 Symbolic Z-matrix:
 Charge =  0 Multiplicity = 1

                         Standard orientation:
 ---------------------------------------------------------------------
 Center     Atomic      Atomic             Coordinates (Angstroms)
 Number     Number       Type             X           Y           Z
 ---------------------------------------------------------------------
      1          8           0        0.049589   -0.919071    0.000000
      2          1           0       -0.752541   -1.486604    0.000000
      3          1           0        0.846585   -1.493791    0.000000
      4          8           0        0.049589    0.975739    0.000000
      5          1           0       -0.040843    1.954170    0.000000
      6          1           0       -0.846630    0.572880    0.000000
 ---------------------------------------------------------------------

 SCF Done:  E(RHF) =  -33.5791185056     A.U. after   11 cycles
 E2 =    -0.2333735725D+00 EUMP2 =    -0.33812492078064D+02
 CCSD(T)
 CCSD(T)= -0.33829580962D+02

 The electronic state is 1-A'.
 Alpha  occ. eigenvalues --   -1.36408  -1.29991  -0.72310  -0.68781  -0.55395
 Alpha  occ. eigenvalues --   -0.50834  -0.44130  -0.43975
 Alpha virt. eigenvalues --    0.19918   0.28035   0.30788   0.33846   0.79756
 Alpha virt. eigenvalues --    0.84759   0.89852   0.96175   0.98700   1.17181
 Alpha virt. eigenvalues --    1.20036   1.25482   1.27475   1.33329   2.58598

 Mulliken charges:
               1
     1  O   -0.775435
     2  H    0.349976
     3  H    0.400406
     4  O   -0.653156
     5  H    0.321556
     6  H    0.356652
 Sum of Mulliken charges =  -0.00000

 Dipole moment (field-independent basis, Debye):
    X=             -1.8967    Y=             -1.4262    Z=              0.0000  Tot=              2.3731
 Quadrupole moment (field-independent basis, Debye-Ang):
   XX=             -9.6964   YY=             -5.5860   ZZ=            -14.9818
   XY=             -1.6674   XZ=              0.0000   YZ=              0.0000

 \MP4DQ=-33.8231902\MP4SDQ=-33.8256128\CCSD=-33.8264848\CCSD(T)=-33.829
 Normal termination of Gaussian 16 at Sun Dec 10 06:30:12 2023.
