 Gaussian 16, Revision A.03,
 Gaussian 16:  ES64L-G16RevA.03 25-Dec-2016

 ------------------
 #p CCSD(T)/CEP-31G
 ------------------

 ------------
 H2O_H2O_1718
 ------------
 Symbolic Z-matrix:
 Charge =  0 Multiplicity = 1

                         Standard orientation:
 ---------------------------------------------------------------------
 Center     Atomic      Atomic             Coordinates (Angstroms)
 Number     Number       Type             X           Y           Z
 ---------------------------------------------------------------------
      1          8           0        0.052859   -1.669575    0.000000
      2          1           0       -0.748231   -2.238575    0.000000
      3          1           0        0.850906   -2.242836    0.000000
      4          8           0        0.052859    1.739808    0.000000
      5          1           0       -0.166263    2.697666    0.000000
      6          1           0       -0.782164    1.221887    0.000000
 ---------------------------------------------------------------------

 SCF Done:  E(RHF) =  -33.6505330125     A.U. after   11 cycles
 E2 =    -0.2288753841D+00 EUMP2 =    -0.33879408396620D+02
 CCSD(T)
 CCSD(T)= -0.33896488164D+02

 The electronic state is 1-A'.
 Alpha  occ. eigenvalues --   -1.35302  -1.33352  -0.70940  -0.68906  -0.54987
 Alpha  occ. eigenvalues --   -0.52963  -0.49858  -0.47915
 Alpha virt. eigenvalues --    0.19681   0.23222   0.30558   0.32663   0.75840
 Alpha virt. eigenvalues --    0.79718   0.83628   0.85928   0.87675   1.03862
 Alpha virt. eigenvalues --    1.17487   1.20423   1.22005   1.25518   2.56111

 Mulliken charges:
               1
     1  O   -0.737243
     2  H    0.361760
     3  H    0.376347
     4  O   -0.731632
     5  H    0.352630
     6  H    0.378138
 Sum of Mulliken charges =  -0.00000

 Dipole moment (field-independent basis, Debye):
    X=             -2.3873    Y=             -1.7370    Z=              0.0000  Tot=              2.9524
 Quadrupole moment (field-independent basis, Debye-Ang):
   XX=             -9.8432   YY=              1.7564   ZZ=            -14.9901
   XY=             -3.7915   XZ=              0.0000   YZ=              0.0000

 \MP4DQ=-33.8907732\MP4SDQ=-33.892845\CCSD=-33.8938866\CCSD(T)=-33.8964
 Normal termination of Gaussian 16 at Sun Dec 10 06:56:49 2023.
