 Gaussian 16, Revision A.03,
 Gaussian 16:  ES64L-G16RevA.03 25-Dec-2016

 ------------------
 #p CCSD(T)/CEP-31G
 ------------------

 ------------
 H2O_H2O_2575
 ------------
 Symbolic Z-matrix:
 Charge =  0 Multiplicity = 1

                         Standard orientation:
 ---------------------------------------------------------------------
 Center     Atomic      Atomic             Coordinates (Angstroms)
 Number     Number       Type             X           Y           Z
 ---------------------------------------------------------------------
      1          8           0        0.000000   -0.000000    2.173078
      2          1           0        0.000000    0.799571    2.744210
      3          1           0       -0.000000   -0.799571    2.744210
      4          8           0        0.000000   -0.000000   -2.173078
      5          1           0       -0.000000   -0.799571   -2.744210
      6          1           0        0.000000    0.799571   -2.744210
 ---------------------------------------------------------------------

 SCF Done:  E(RHF) =  -33.6481317318     A.U. after   10 cycles
 E2 =    -0.2286035105D+00 EUMP2 =    -0.33876735242269D+02
 CCSD(T)
 CCSD(T)= -0.33893841544D+02

 The electronic state is 1-AG.
 Alpha  occ. eigenvalues --   -1.34346  -1.34342  -0.69968  -0.69962  -0.53975
 Alpha  occ. eigenvalues --   -0.53748  -0.48875  -0.48848
 Alpha virt. eigenvalues --    0.21055   0.21401   0.31410   0.31503   0.81472
 Alpha virt. eigenvalues --    0.81900   0.82076   0.87519   0.88357   0.88513
 Alpha virt. eigenvalues --    1.18405   1.18407   1.22835   1.22963   2.58372

 Mulliken charges:
               1
     1  O   -0.728435
     2  H    0.364217
     3  H    0.364217
     4  O   -0.728435
     5  H    0.364217
     6  H    0.364217
 Sum of Mulliken charges =  -0.00000

 Dipole moment (field-independent basis, Debye):
    X=             -0.0000    Y=              0.0000    Z=              0.0000  Tot=              0.0000
 Quadrupole moment (field-independent basis, Debye-Ang):
   XX=            -14.9846   YY=             -8.0774   ZZ=             10.8982
   XY=              0.0000   XZ=              0.0000   YZ=             -0.0000

 -33.8881654\MP4SDQ=-33.8902051\CCSD=-33.8912651\CCSD(T)=-33.8938415\RM
 Normal termination of Gaussian 16 at Sun Dec 10 06:26:08 2023.
