 Gaussian 16, Revision A.03,
 Gaussian 16:  ES64L-G16RevA.03 25-Dec-2016

 ------------------
 #p CCSD(T)/CEP-31G
 ------------------

 ----------
 H2O_H2O_72
 ----------
 Symbolic Z-matrix:
 Charge =  0 Multiplicity = 1

                         Standard orientation:
 ---------------------------------------------------------------------
 Center     Atomic      Atomic             Coordinates (Angstroms)
 Number     Number       Type             X           Y           Z
 ---------------------------------------------------------------------
      1          8           0        0.056917   -0.776607    0.000000
      2          1           0       -0.746011   -1.343010    0.000000
      3          1           0        0.853103   -1.352448    0.000000
      4          8           0        0.056917    0.875254    0.000000
      5          1           0       -0.399838    1.745243    0.000000
      6          1           0       -0.617921    0.161041    0.000000
 ---------------------------------------------------------------------

 SCF Done:  E(RHF) =  -33.4306428768     A.U. after   12 cycles
 E2 =    -0.2365137677D+00 EUMP2 =    -0.33667156644510D+02
 CCSD(T)
 CCSD(T)= -0.33682671979D+02

 The electronic state is 1-A'.
 Alpha  occ. eigenvalues --   -1.45950  -1.27458  -0.81925  -0.74135  -0.56914
 Alpha  occ. eigenvalues --   -0.49299  -0.41936  -0.40256
 Alpha virt. eigenvalues --    0.18600   0.26815   0.31500   0.36926   0.78343
 Alpha virt. eigenvalues --    0.82944   0.90119   0.92824   0.97200   1.14723
 Alpha virt. eigenvalues --    1.17765   1.28894   1.32444   1.41992   2.85790

 Mulliken charges:
               1
     1  O   -0.759870
     2  H    0.355024
     3  H    0.457538
     4  O   -0.673637
     5  H    0.263647
     6  H    0.357298
 Sum of Mulliken charges =   0.00000

 Dipole moment (field-independent basis, Debye):
    X=             -1.9749    Y=             -2.9842    Z=              0.0000  Tot=              3.5785
 Quadrupole moment (field-independent basis, Debye-Ang):
   XX=            -10.0878   YY=             -9.0756   ZZ=            -14.8614
   XY=             -2.0684   XZ=              0.0000   YZ=              0.0000

 4DQ=-33.6755656\MP4SDQ=-33.6784401\CCSD=-33.6788758\CCSD(T)=-33.682672
 Normal termination of Gaussian 16 at Sun Dec 10 06:26:04 2023.
