 Gaussian 16, Revision A.03,
 Gaussian 16:  ES64L-G16RevA.03 25-Dec-2016

 ------------------
 #p CCSD(T)/CEP-31G
 ------------------

 -----------
 H2O_H2O_460
 -----------
 Symbolic Z-matrix:
 Charge =  0 Multiplicity = 1

                         Standard orientation:
 ---------------------------------------------------------------------
 Center     Atomic      Atomic             Coordinates (Angstroms)
 Number     Number       Type             X           Y           Z
 ---------------------------------------------------------------------
      1          8           0        0.034802   -1.030211    0.000000
      2          1           0       -0.766406   -1.599044    0.000000
      3          1           0        0.832729   -1.603638    0.000000
      4          8           0        0.034802    1.053616    0.000000
      5          1           0        0.324161    1.992646    0.000000
      6          1           0       -0.947317    1.022798    0.000000
 ---------------------------------------------------------------------

 SCF Done:  E(RHF) =  -33.6086171726     A.U. after   11 cycles
 E2 =    -0.2317439119D+00 EUMP2 =    -0.33840361084440D+02
 CCSD(T)
 CCSD(T)= -0.33857658312D+02

 The electronic state is 1-A'.
 Alpha  occ. eigenvalues --   -1.33722  -1.30902  -0.69166  -0.67177  -0.57058
 Alpha  occ. eigenvalues --   -0.48579  -0.44759  -0.44216
 Alpha virt. eigenvalues --    0.20845   0.26163   0.32171   0.33237   0.79942
 Alpha virt. eigenvalues --    0.82264   0.90003   0.98030   0.99402   1.15671
 Alpha virt. eigenvalues --    1.19472   1.23512   1.25210   1.30441   2.51403

 Mulliken charges:
               1
     1  O   -0.730900
     2  H    0.343154
     3  H    0.374499
     4  O   -0.679569
     5  H    0.346471
     6  H    0.346344
 Sum of Mulliken charges =   0.00000

 Dipole moment (field-independent basis, Debye):
    X=             -1.3882    Y=             -0.5592    Z=              0.0000  Tot=              1.4966
 Quadrupole moment (field-independent basis, Debye-Ang):
   XX=             -9.0084   YY=             -3.3572   ZZ=            -15.0051
   XY=             -1.0280   XZ=              0.0000   YZ=              0.0000

 MP4DQ=-33.8515047\MP4SDQ=-33.8537539\CCSD=-33.8547694\CCSD(T)=-33.8576
 Normal termination of Gaussian 16 at Sun Dec 10 06:33:22 2023.
