 Gaussian 16, Revision A.03,
 Gaussian 16:  ES64L-G16RevA.03 25-Dec-2016

 ------------------
 #p CCSD(T)/CEP-31G
 ------------------

 ------------
 H2O_H2O_2965
 ------------
 Symbolic Z-matrix:
 Charge =  0 Multiplicity = 1

                         Standard orientation:
 ---------------------------------------------------------------------
 Center     Atomic      Atomic             Coordinates (Angstroms)
 Number     Number       Type             X           Y           Z
 ---------------------------------------------------------------------
      1          8           0        0.047532   -2.345034    0.000000
      2          1           0       -0.753023   -2.914786    0.000000
      3          1           0        0.846116   -2.917544    0.000000
      4          8           0        0.047532    2.395635    0.000000
      5          1           0        0.018564    3.377811    0.000000
      6          1           0       -0.872163    2.049706    0.000000
 ---------------------------------------------------------------------

 SCF Done:  E(RHF) =  -33.6506238544     A.U. after   11 cycles
 E2 =    -0.2284858568D+00 EUMP2 =    -0.33879109711148D+02
 CCSD(T)
 CCSD(T)= -0.33896144178D+02

 The electronic state is 1-A'.
 Alpha  occ. eigenvalues --   -1.35148  -1.34457  -0.70778  -0.70061  -0.54818
 Alpha  occ. eigenvalues --   -0.54119  -0.49702  -0.49013
 Alpha virt. eigenvalues --    0.20507   0.21310   0.30789   0.31475   0.80845
 Alpha virt. eigenvalues --    0.81532   0.83223   0.85112   0.87048   0.88260
 Alpha virt. eigenvalues --    1.17705   1.18395   1.22164   1.22877   2.57749

 Mulliken charges:
               1
     1  O   -0.737119
     2  H    0.365871
     3  H    0.371262
     4  O   -0.735832
     5  H    0.363397
     6  H    0.372420
 Sum of Mulliken charges =   0.00000

 Dipole moment (field-independent basis, Debye):
    X=             -2.1832    Y=             -1.1998    Z=              0.0000  Tot=              2.4912
 Quadrupole moment (field-independent basis, Debye-Ang):
   XX=             -9.5053   YY=              8.7335   ZZ=            -14.9876
   XY=             -4.5279   XZ=              0.0000   YZ=              0.0000

 6\MP4DQ=-33.8904896\MP4SDQ=-33.8925215\CCSD=-33.8935771\CCSD(T)=-33.89
 Normal termination of Gaussian 16 at Sun Dec 10 06:33:21 2023.
