 Gaussian 16, Revision A.03,
 Gaussian 16:  ES64L-G16RevA.03 25-Dec-2016

 ------------------
 #p CCSD(T)/CEP-31G
 ------------------

 ------------
 H2O_H2O_1965
 ------------
 Symbolic Z-matrix:
 Charge =  0 Multiplicity = 1

                         Standard orientation:
 ---------------------------------------------------------------------
 Center     Atomic      Atomic             Coordinates (Angstroms)
 Number     Number       Type             X           Y           Z
 ---------------------------------------------------------------------
      1          8           0        0.047544   -1.813222    0.000000
      2          1           0       -0.753295   -2.382575    0.000000
      3          1           0        0.845843   -2.386131    0.000000
      4          8           0        0.047544    1.863777    0.000000
      5          1           0        0.019067    2.845965    0.000000
      6          1           0       -0.872323    1.518305    0.000000
 ---------------------------------------------------------------------

 SCF Done:  E(RHF) =  -33.6493985584     A.U. after   11 cycles
 E2 =    -0.2287498552D+00 EUMP2 =    -0.33878148413613D+02
 CCSD(T)
 CCSD(T)= -0.33895234871D+02

 The electronic state is 1-A'.
 Alpha  occ. eigenvalues --   -1.34922  -1.33735  -0.70553  -0.69306  -0.54553
 Alpha  occ. eigenvalues --   -0.53277  -0.49461  -0.48279
 Alpha virt. eigenvalues --    0.20177   0.22429   0.30898   0.32136   0.76879
 Alpha virt. eigenvalues --    0.80498   0.82854   0.85801   0.87848   0.99012
 Alpha virt. eigenvalues --    1.17864   1.19488   1.22275   1.23885   2.57337

 Mulliken charges:
               1
     1  O   -0.732992
     2  H    0.361331
     3  H    0.372068
     4  O   -0.729053
     5  H    0.355961
     6  H    0.372685
 Sum of Mulliken charges =  -0.00000

 Dipole moment (field-independent basis, Debye):
    X=             -2.1595    Y=             -1.2346    Z=              0.0000  Tot=              2.4874
 Quadrupole moment (field-independent basis, Debye-Ang):
   XX=             -9.5117   YY=              4.1964   ZZ=            -14.9875
   XY=             -3.4001   XZ=              0.0000   YZ=              0.0000

 \MP4DQ=-33.8895434\MP4SDQ=-33.8915986\CCSD=-33.8926468\CCSD(T)=-33.895
 Normal termination of Gaussian 16 at Sun Dec 10 07:02:09 2023.
