 Gaussian 16, Revision A.03,
 Gaussian 16:  ES64L-G16RevA.03 25-Dec-2016

 ------------------
 #p CCSD(T)/CEP-31G
 ------------------

 ------------
 H2O_H2O_3972
 ------------
 Symbolic Z-matrix:
 Charge =  0 Multiplicity = 1

                         Standard orientation:
 ---------------------------------------------------------------------
 Center     Atomic      Atomic             Coordinates (Angstroms)
 Number     Number       Type             X           Y           Z
 ---------------------------------------------------------------------
      1          8           0        0.056708   -2.850518    0.000000
      2          1           0       -0.743822   -3.420306    0.000000
      3          1           0        0.855318   -3.422994    0.000000
      4          8           0        0.056708    2.949645    0.000000
      5          1           0       -0.403715    3.817699    0.000000
      6          1           0       -0.615109    2.232590    0.000000
 ---------------------------------------------------------------------

 SCF Done:  E(RHF) =  -33.6520013435     A.U. after   11 cycles
 E2 =    -0.2283809694D+00 EUMP2 =    -0.33880382312898D+02
 CCSD(T)
 CCSD(T)= -0.33897376118D+02

 The electronic state is 1-A'.
 Alpha  occ. eigenvalues --   -1.35670  -1.34791  -0.71304  -0.70407  -0.55418
 Alpha  occ. eigenvalues --   -0.54524  -0.50245  -0.49365
 Alpha virt. eigenvalues --    0.20110   0.21022   0.30354   0.31254   0.80308
 Alpha virt. eigenvalues --    0.81171   0.83302   0.84206   0.86430   0.87387
 Alpha virt. eigenvalues --    1.17241   1.18115   1.21696   1.22593   2.57250

 Mulliken charges:
               1
     1  O   -0.741899
     2  H    0.369220
     3  H    0.372680
     4  O   -0.741603
     5  H    0.366735
     6  H    0.374867
 Sum of Mulliken charges =   0.00000

 Dipole moment (field-independent basis, Debye):
    X=             -2.6143    Y=             -2.3264    Z=              0.0000  Tot=              3.4995
 Quadrupole moment (field-independent basis, Debye-Ang):
   XX=            -10.1270   YY=              7.0701   ZZ=            -14.9893
   XY=             -7.6533   XZ=              0.0000   YZ=              0.0000

 MP4DQ=-33.8917335\MP4SDQ=-33.8937607\CCSD=-33.8948152\CCSD(T)=-33.8973
 Normal termination of Gaussian 16 at Sun Dec 10 06:51:35 2023.
