 Gaussian 16, Revision A.03,
 Gaussian 16:  ES64L-G16RevA.03 25-Dec-2016

 ------------------
 #p CCSD(T)/CEP-31G
 ------------------

 ------------
 H2O_H2O_2305
 ------------
 Symbolic Z-matrix:
 Charge =  0 Multiplicity = 1

                         Standard orientation:
 ---------------------------------------------------------------------
 Center     Atomic      Atomic             Coordinates (Angstroms)
 Number     Number       Type             X           Y           Z
 ---------------------------------------------------------------------
      1          8           0        0.018361   -2.023545    0.000000
      2          1           0       -0.781655   -2.594054    0.000000
      3          1           0        0.817486   -2.595301    0.000000
      4          8           0        0.018361    2.029579    0.000000
      5          1           0        0.592537    2.826967    0.000000
      6          1           0       -0.922140    2.314121    0.000000
 ---------------------------------------------------------------------

 SCF Done:  E(RHF) =  -33.6476225226     A.U. after   11 cycles
 E2 =    -0.2286678671D+00 EUMP2 =    -0.33876290389695D+02
 CCSD(T)
 CCSD(T)= -0.33893413439D+02

 The electronic state is 1-A'.
 Alpha  occ. eigenvalues --   -1.34274  -1.34160  -0.69895  -0.69775  -0.53904
 Alpha  occ. eigenvalues --   -0.53496  -0.48790  -0.48666
 Alpha virt. eigenvalues --    0.21013   0.21636   0.31482   0.31628   0.80223
 Alpha virt. eigenvalues --    0.81368   0.82267   0.86890   0.88797   0.91829
 Alpha virt. eigenvalues --    1.18457   1.18570   1.22925   1.23116   2.58294

 Mulliken charges:
               1
     1  O   -0.726769
     2  H    0.361777
     3  H    0.365015
     4  O   -0.726255
     5  H    0.361113
     6  H    0.365120
 Sum of Mulliken charges =  -0.00000

 Dipole moment (field-independent basis, Debye):
    X=             -0.8393    Y=             -0.1455    Z=              0.0000  Tot=              0.8518
 Quadrupole moment (field-independent basis, Debye-Ang):
   XX=             -8.3014   YY=              8.9243   ZZ=            -14.9845
   XY=             -1.2116   XZ=              0.0000   YZ=              0.0000

 MP4DQ=-33.8877281\MP4SDQ=-33.8897729\CCSD=-33.8908318\CCSD(T)=-33.8934
 Normal termination of Gaussian 16 at Sun Dec 10 07:08:53 2023.
