 Gaussian 16, Revision A.03,
 Gaussian 16:  ES64L-G16RevA.03 25-Dec-2016

 ------------------
 #p CCSD(T)/CEP-31G
 ------------------

 ------------
 H2O_H2O_3155
 ------------
 Symbolic Z-matrix:
 Charge =  0 Multiplicity = 1

                         Standard orientation:
 ---------------------------------------------------------------------
 Center     Atomic      Atomic             Coordinates (Angstroms)
 Number     Number       Type             X           Y           Z
 ---------------------------------------------------------------------
      1          8           0        0.018360   -2.475604    0.000000
      2          1           0       -0.781575   -3.046226    0.000000
      3          1           0        0.817567   -3.047245    0.000000
      4          8           0        0.018360    2.481642    0.000000
      5          1           0        0.592423    3.279112    0.000000
      6          1           0       -0.922181    2.766051    0.000000
 ---------------------------------------------------------------------

 SCF Done:  E(RHF) =  -33.6494736337     A.U. after   11 cycles
 E2 =    -0.2285149585D+00 EUMP2 =    -0.33877988592258D+02
 CCSD(T)
 CCSD(T)= -0.33895055745D+02

 The electronic state is 1-A'.
 Alpha  occ. eigenvalues --   -1.34686  -1.34612  -0.70311  -0.70233  -0.54296
 Alpha  occ. eigenvalues --   -0.54205  -0.49223  -0.49149
 Alpha virt. eigenvalues --    0.20931   0.21061   0.31186   0.31259   0.81314
 Alpha virt. eigenvalues --    0.81417   0.83914   0.85320   0.87565   0.87758
 Alpha virt. eigenvalues --    1.18118   1.18191   1.22596   1.22671   2.58191

 Mulliken charges:
               1
     1  O   -0.733021
     2  H    0.365572
     3  H    0.367450
     4  O   -0.732809
     5  H    0.365162
     6  H    0.367646
 Sum of Mulliken charges =   0.00000

 Dipole moment (field-independent basis, Debye):
    X=             -0.8444    Y=             -0.1428    Z=              0.0000  Tot=              0.8564
 Quadrupole moment (field-independent basis, Debye-Ang):
   XX=             -8.2741   YY=             13.7070   ZZ=            -14.9857
   XY=             -1.5780   XZ=              0.0000   YZ=              0.0000

 \MP4DQ=-33.8893929\MP4SDQ=-33.8914272\CCSD=-33.8924861\CCSD(T)=-33.895
 Normal termination of Gaussian 16 at Sun Dec 10 06:36:40 2023.
