 Gaussian 16, Revision A.03,
 Gaussian 16:  ES64L-G16RevA.03 25-Dec-2016

 ------------------
 #p CCSD(T)/CEP-31G
 ------------------

 ------------
 H2O_H2O_2329
 ------------
 Symbolic Z-matrix:
 Charge =  0 Multiplicity = 1

                         Standard orientation:
 ---------------------------------------------------------------------
 Center     Atomic      Atomic             Coordinates (Angstroms)
 Number     Number       Type             X           Y           Z
 ---------------------------------------------------------------------
      1          8           0        0.014783   -2.038015    0.000000
      2          1           0       -0.785144   -2.608648    0.000000
      3          1           0        0.813998   -2.609645    0.000000
      4          8           0        0.014783    2.041888    0.000000
      5          1           0        0.639763    2.800115    0.000000
      6          1           0       -0.905149    2.387189    0.000000
 ---------------------------------------------------------------------

 SCF Done:  E(RHF) =  -33.6475908708     A.U. after   11 cycles
 E2 =    -0.2286622821D+00 EUMP2 =    -0.33876253152925D+02
 CCSD(T)
 CCSD(T)= -0.33893376697D+02

 The electronic state is 1-A'.
 Alpha  occ. eigenvalues --   -1.34254  -1.34181  -0.69875  -0.69799  -0.53892
 Alpha  occ. eigenvalues --   -0.53507  -0.48772  -0.48685
 Alpha virt. eigenvalues --    0.21036   0.21609   0.31486   0.31621   0.80443
 Alpha virt. eigenvalues --    0.81398   0.82237   0.87027   0.88846   0.91329
 Alpha virt. eigenvalues --    1.18475   1.18547   1.22922   1.23110   2.58311

 Mulliken charges:
               1
     1  O   -0.726647
     2  H    0.362048
     3  H    0.364612
     4  O   -0.726320
     5  H    0.361581
     6  H    0.364726
 Sum of Mulliken charges =  -0.00000

 Dipole moment (field-independent basis, Debye):
    X=             -0.6760    Y=             -0.0934    Z=              0.0000  Tot=              0.6824
 Quadrupole moment (field-independent basis, Debye-Ang):
   XX=             -8.2260   YY=              9.2039   ZZ=            -14.9844
   XY=             -0.9744   XZ=              0.0000   YZ=              0.0000

 MP4DQ=-33.8876918\MP4SDQ=-33.8897362\CCSD=-33.8907955\CCSD(T)=-33.8933
 Normal termination of Gaussian 16 at Sun Dec 10 07:09:19 2023.
