 Gaussian 16, Revision A.03,
 Gaussian 16:  ES64L-G16RevA.03 25-Dec-2016

 ------------------
 #p CCSD(T)/CEP-31G
 ------------------

 ------------
 H2O_H2O_1795
 ------------
 Symbolic Z-matrix:
 Charge =  0 Multiplicity = 1

                         Standard orientation:
 ---------------------------------------------------------------------
 Center     Atomic      Atomic             Coordinates (Angstroms)
 Number     Number       Type             X           Y           Z
 ---------------------------------------------------------------------
      1          8           0        0.055282   -1.701790    0.000000
      2          1           0       -0.745841   -2.270743    0.000000
      3          1           0        0.853295   -2.275097    0.000000
      4          8           0        0.055282    1.786152    0.000000
      5          1           0       -0.286938    2.707233    0.000000
      6          1           0       -0.705031    1.163713    0.000000
 ---------------------------------------------------------------------

 SCF Done:  E(RHF) =  -33.6519116786     A.U. after   11 cycles
 E2 =    -0.2287923231D+00 EUMP2 =    -0.33880704001703D+02
 CCSD(T)
 CCSD(T)= -0.33897739588D+02

 The electronic state is 1-A'.
 Alpha  occ. eigenvalues --   -1.35631  -1.33370  -0.71272  -0.68924  -0.55374
 Alpha  occ. eigenvalues --   -0.53063  -0.50204  -0.47950
 Alpha virt. eigenvalues --    0.19440   0.23286   0.30289   0.32864   0.76646
 Alpha virt. eigenvalues --    0.79623   0.83324   0.86106   0.87053   1.01250
 Alpha virt. eigenvalues --    1.17211   1.20275   1.21733   1.26227   2.55395

 Mulliken charges:
               1
     1  O   -0.741576
     2  H    0.364179
     3  H    0.378474
     4  O   -0.737419
     5  H    0.353870
     6  H    0.382471
 Sum of Mulliken charges =   0.00000

 Dipole moment (field-independent basis, Debye):
    X=             -2.5033    Y=             -2.0834    Z=              0.0000  Tot=              3.2569
 Quadrupole moment (field-independent basis, Debye-Ang):
   XX=            -10.0050   YY=              1.0538   ZZ=            -14.9917
   XY=             -4.3068   XZ=              0.0000   YZ=              0.0000

 \MP4DQ=-33.8920369\MP4SDQ=-33.8941034\CCSD=-33.895142\CCSD(T)=-33.8977
 Normal termination of Gaussian 16 at Sun Dec 10 06:58:14 2023.
