 Gaussian 16, Revision A.03,
 Gaussian 16:  ES64L-G16RevA.03 25-Dec-2016

 ------------------
 #p CCSD(T)/CEP-31G
 ------------------

 ------------
 H2O_H2O_2460
 ------------
 Symbolic Z-matrix:
 Charge =  0 Multiplicity = 1

                         Standard orientation:
 ---------------------------------------------------------------------
 Center     Atomic      Atomic             Coordinates (Angstroms)
 Number     Number       Type             X           Y           Z
 ---------------------------------------------------------------------
      1          8           0        0.034785   -2.093831    0.000000
      2          1           0       -0.765597   -2.663826    0.000000
      3          1           0        0.833543   -2.666099    0.000000
      4          8           0        0.034785    2.117337    0.000000
      5          1           0        0.322781    3.056787    0.000000
      6          1           0       -0.947288    2.085094    0.000000
 ---------------------------------------------------------------------

 SCF Done:  E(RHF) =  -33.6488826520     A.U. after   11 cycles
 E2 =    -0.2286067790D+00 EUMP2 =    -0.33877489431025D+02
 CCSD(T)
 CCSD(T)= -0.33894575459D+02

 The electronic state is 1-A'.
 Alpha  occ. eigenvalues --   -1.34632  -1.34222  -0.70257  -0.69828  -0.54226
 Alpha  occ. eigenvalues --   -0.53753  -0.49161  -0.48754
 Alpha virt. eigenvalues --    0.20801   0.21558   0.31211   0.31600   0.81082
 Alpha virt. eigenvalues --    0.81225   0.81952   0.86281   0.87831   0.91010
 Alpha virt. eigenvalues --    1.18149   1.18565   1.22631   1.23052   2.58171

 Mulliken charges:
               1
     1  O   -0.731107
     2  H    0.362822
     3  H    0.368332
     4  O   -0.729669
     5  H    0.361031
     6  H    0.368591
 Sum of Mulliken charges =   0.00000

 Dipole moment (field-independent basis, Debye):
    X=             -1.5916    Y=             -0.5635    Z=              0.0000  Tot=              1.6884
 Quadrupole moment (field-independent basis, Debye-Ang):
   XX=             -8.8443   YY=              8.5539   ZZ=            -14.9857
   XY=             -2.6039   XZ=              0.0000   YZ=              0.0000

 MP4DQ=-33.888903\MP4SDQ=-33.8909427\CCSD=-33.8919995\CCSD(T)=-33.89457
 Normal termination of Gaussian 16 at Sun Dec 10 07:11:40 2023.
