 Gaussian 16, Revision A.03,
 Gaussian 16:  ES64L-G16RevA.03 25-Dec-2016

 ------------------
 #p CCSD(T)/CEP-31G
 ------------------

 ----------
 H2O_H2O_74
 ----------
 Symbolic Z-matrix:
 Charge =  0 Multiplicity = 1

                         Standard orientation:
 ---------------------------------------------------------------------
 Center     Atomic      Atomic             Coordinates (Angstroms)
 Number     Number       Type             X           Y           Z
 ---------------------------------------------------------------------
      1          8           0        0.057452   -0.768517    0.000000
      2          1           0       -0.745507   -1.334875    0.000000
      3          1           0        0.853607   -1.344402    0.000000
      4          8           0        0.057452    0.882061    0.000000
      5          1           0       -0.508906    1.685021    0.000000
      6          1           0       -0.518433    0.085906    0.000000
 ---------------------------------------------------------------------

 SCF Done:  E(RHF) =  -33.3988633553     A.U. after   12 cycles
 E2 =    -0.2353636461D+00 EUMP2 =    -0.33634227001385D+02
 CCSD(T)
 CCSD(T)= -0.33649045810D+02

 The electronic state is 1-A'.
 Alpha  occ. eigenvalues --   -1.49293  -1.26542  -0.85017  -0.75836  -0.58900
 Alpha  occ. eigenvalues --   -0.47695  -0.40749  -0.39584
 Alpha virt. eigenvalues --    0.17966   0.25139   0.32235   0.39499   0.77099
 Alpha virt. eigenvalues --    0.82987   0.91018   0.91067   0.96742   1.11043
 Alpha virt. eigenvalues --    1.16911   1.31891   1.33407   1.46835   2.98415

 Mulliken charges:
               1
     1  O   -0.705186
     2  H    0.362125
     3  H    0.483187
     4  O   -0.721445
     5  H    0.256719
     6  H    0.324600
 Sum of Mulliken charges =  -0.00000

 Dipole moment (field-independent basis, Debye):
    X=             -1.9603    Y=             -3.7533    Z=              0.0000  Tot=              4.2344
 Quadrupole moment (field-independent basis, Debye-Ang):
   XX=            -10.0864   YY=             -9.5503   ZZ=            -14.8220
   XY=             -2.3475   XZ=              0.0000   YZ=              0.0000

 4DQ=-33.6418514\MP4SDQ=-33.6447969\CCSD=-33.6451686\CCSD(T)=-33.649045
 Normal termination of Gaussian 16 at Sun Dec 10 06:26:07 2023.
