 Gaussian 16, Revision A.03,
 Gaussian 16:  ES64L-G16RevA.03 25-Dec-2016

 ------------------
 #p CCSD(T)/CEP-31G
 ------------------

 ------------
 H2O_H2O_1617
 ------------
 Symbolic Z-matrix:
 Charge =  0 Multiplicity = 1

                         Standard orientation:
 ---------------------------------------------------------------------
 Center     Atomic      Atomic             Coordinates (Angstroms)
 Number     Number       Type             X           Y           Z
 ---------------------------------------------------------------------
      1          8           0        0.051308   -1.620085    0.000000
      2          1           0       -0.749785   -2.189081    0.000000
      3          1           0        0.849352   -2.193350    0.000000
      4          8           0        0.051308    1.683517    0.000000
      5          1           0       -0.104694    2.653656    0.000000
      6          1           0       -0.815803    1.221322    0.000000
 ---------------------------------------------------------------------

 SCF Done:  E(RHF) =  -33.6496377387     A.U. after   11 cycles
 E2 =    -0.2289711029D+00 EUMP2 =    -0.33878608841631D+02
 CCSD(T)
 CCSD(T)= -0.33895725098D+02

 The electronic state is 1-A'.
 Alpha  occ. eigenvalues --   -1.35119  -1.33257  -0.70757  -0.68812  -0.54790
 Alpha  occ. eigenvalues --   -0.52791  -0.49667  -0.47808
 Alpha virt. eigenvalues --    0.19793   0.23338   0.30713   0.32652   0.75522
 Alpha virt. eigenvalues --    0.79604   0.84067   0.85718   0.88360   1.06603
 Alpha virt. eigenvalues --    1.17630   1.20689   1.22188   1.25448   2.56561

 Mulliken charges:
               1
     1  O   -0.734845
     2  H    0.360082
     3  H    0.375496
     4  O   -0.727861
     5  H    0.351106
     6  H    0.376022
 Sum of Mulliken charges =   0.00000

 Dipole moment (field-independent basis, Debye):
    X=             -2.3095    Y=             -1.5744    Z=              0.0000  Tot=              2.7951
 Quadrupole moment (field-independent basis, Debye-Ang):
   XX=             -9.7447   YY=              1.7663   ZZ=            -14.9894
   XY=             -3.4518   XZ=              0.0000   YZ=              0.0000

 \MP4DQ=-33.8899927\MP4SDQ=-33.8920727\CCSD=-33.8931163\CCSD(T)=-33.895
 Normal termination of Gaussian 16 at Sun Dec 10 06:54:57 2023.
