 Gaussian 16, Revision A.03,
 Gaussian 16:  ES64L-G16RevA.03 25-Dec-2016

 ------------------
 #p CCSD(T)/CEP-31G
 ------------------

 ------------
 H2O_H2O_3662
 ------------
 Symbolic Z-matrix:
 Charge =  0 Multiplicity = 1

                         Standard orientation:
 ---------------------------------------------------------------------
 Center     Atomic      Atomic             Coordinates (Angstroms)
 Number     Number       Type             X           Y           Z
 ---------------------------------------------------------------------
      1          8           0        0.040406   -2.726687    0.000000
      2          1           0       -0.759888   -3.296805    0.000000
      3          1           0        0.839253   -3.298832    0.000000
      4          8           0        0.040406    2.760041    0.000000
      5          1           0        0.203165    3.729069    0.000000
      6          1           0       -0.929032    2.599738    0.000000
 ---------------------------------------------------------------------

 SCF Done:  E(RHF) =  -33.6506580427     A.U. after   11 cycles
 E2 =    -0.2284539303D+00 EUMP2 =    -0.33879111973021D+02
 CCSD(T)
 CCSD(T)= -0.33896144916D+02

 The electronic state is 1-A'.
 Alpha  occ. eigenvalues --   -1.35098  -1.34762  -0.70727  -0.70380  -0.54769
 Alpha  occ. eigenvalues --   -0.54432  -0.49652  -0.49318
 Alpha virt. eigenvalues --    0.20609   0.20954   0.30845   0.31173   0.80901
 Alpha virt. eigenvalues --    0.81230   0.83991   0.84405   0.87101   0.87509
 Alpha virt. eigenvalues --    1.17756   1.18088   1.22223   1.22557   2.57800

 Mulliken charges:
               1
     1  O   -0.737154
     2  H    0.367031
     3  H    0.370123
     4  O   -0.736611
     5  H    0.365882
     6  H    0.370729
 Sum of Mulliken charges =  -0.00000

 Dipole moment (field-independent basis, Debye):
    X=             -1.8616    Y=             -0.7842    Z=              0.0000  Tot=              2.0200
 Quadrupole moment (field-independent basis, Debye-Ang):
   XX=             -9.0999   YY=             13.7324   ZZ=            -14.9871
   XY=             -4.3076   XZ=              0.0000   YZ=              0.0000

 4DQ=-33.8904918\MP4SDQ=-33.8925227\CCSD=-33.8935796\CCSD(T)=-33.896144
 Normal termination of Gaussian 16 at Sun Dec 10 06:45:51 2023.
