 Gaussian 16, Revision A.03,
 Gaussian 16:  ES64L-G16RevA.03 25-Dec-2016

 ------------------
 #p CCSD(T)/CEP-31G
 ------------------

 -----------
 H2O_H2O_563
 -----------
 Symbolic Z-matrix:
 Charge =  0 Multiplicity = 1

                         Standard orientation:
 ---------------------------------------------------------------------
 Center     Atomic      Atomic             Coordinates (Angstroms)
 Number     Number       Type             X           Y           Z
 ---------------------------------------------------------------------
      1          8           0        0.043005   -1.075130    0.000000
      2          1           0       -0.758490   -1.643558    0.000000
      3          1           0        0.840643   -1.648959    0.000000
      4          8           0        0.043005    1.113751    0.000000
      5          1           0        0.144101    2.091138    0.000000
      6          1           0       -0.914342    0.892407    0.000000
 ---------------------------------------------------------------------

 SCF Done:  E(RHF) =  -33.6219139108     A.U. after   11 cycles
 E2 =    -0.2312115522D+00 EUMP2 =    -0.33853125462980D+02
 CCSD(T)
 CCSD(T)= -0.33870467365D+02

 The electronic state is 1-A'.
 Alpha  occ. eigenvalues --   -1.34093  -1.31275  -0.69685  -0.67582  -0.55780
 Alpha  occ. eigenvalues --   -0.48846  -0.46797  -0.45351
 Alpha virt. eigenvalues --    0.20432   0.26079   0.31739   0.33282   0.79118
 Alpha virt. eigenvalues --    0.83685   0.89700   0.95742   0.99229   1.14203
 Alpha virt. eigenvalues --    1.19058   1.22765   1.24465   1.31310   2.54768

 Mulliken charges:
               1
     1  O   -0.742621
     2  H    0.347213
     3  H    0.380519
     4  O   -0.679146
     5  H    0.340344
     6  H    0.353691
 Sum of Mulliken charges =  -0.00000

 Dipole moment (field-independent basis, Debye):
    X=             -1.7580    Y=             -0.9417    Z=              0.0000  Tot=              1.9943
 Quadrupole moment (field-independent basis, Debye-Ang):
   XX=             -9.3437   YY=             -2.9050   ZZ=            -14.9979
   XY=             -1.5384   XZ=              0.0000   YZ=              0.0000

 MP4DQ=-33.8643805\MP4SDQ=-33.8666036\CCSD=-33.8676348\CCSD(T)=-33.8704
 Normal termination of Gaussian 16 at Sun Dec 10 06:35:16 2023.
