 Gaussian 16, Revision A.03,
 Gaussian 16:  ES64L-G16RevA.03 25-Dec-2016

 ------------------
 #p CCSD(T)/CEP-31G
 ------------------

 ------------
 H2O_H2O_1941
 ------------
 Symbolic Z-matrix:
 Charge =  0 Multiplicity = 1

                         Standard orientation:
 ---------------------------------------------------------------------
 Center     Atomic      Atomic             Coordinates (Angstroms)
 Number     Number       Type             X           Y           Z
 ---------------------------------------------------------------------
      1          8           0        0.049528   -1.796489    0.000000
      2          1           0       -0.751373   -2.365754    0.000000
      3          1           0        0.847764   -2.369485    0.000000
      4          8           0        0.049528    1.853372    0.000000
      5          1           0       -0.043019    2.831605    0.000000
      6          1           0       -0.845819    1.448577    0.000000
 ---------------------------------------------------------------------

 SCF Done:  E(RHF) =  -33.6498171563     A.U. after   11 cycles
 E2 =    -0.2287518170D+00 EUMP2 =    -0.33878568973313D+02
 CCSD(T)
 CCSD(T)= -0.33895645793D+02

 The electronic state is 1-A'.
 Alpha  occ. eigenvalues --   -1.35045  -1.33683  -0.70678  -0.69249  -0.54690
 Alpha  occ. eigenvalues --   -0.53257  -0.49589  -0.48234
 Alpha virt. eigenvalues --    0.20039   0.22553   0.30786   0.32226   0.76748
 Alpha virt. eigenvalues --    0.80363   0.82906   0.85822   0.87631   0.99394
 Alpha virt. eigenvalues --    1.17753   1.19659   1.22158   1.24130   2.57078

 Mulliken charges:
               1
     1  O   -0.734396
     2  H    0.361755
     3  H    0.373139
     4  O   -0.730274
     5  H    0.355625
     6  H    0.374151
 Sum of Mulliken charges =   0.00000

 Dipole moment (field-independent basis, Debye):
    X=             -2.2485    Y=             -1.3910    Z=              0.0000  Tot=              2.6440
 Quadrupole moment (field-independent basis, Debye-Ang):
   XX=             -9.6315   YY=              3.6486   ZZ=            -14.9882
   XY=             -3.6100   XZ=              0.0000   YZ=              0.0000

 \MP4DQ=-33.8899543\MP4SDQ=-33.8920106\CCSD=-33.8930571\CCSD(T)=-33.895
 Normal termination of Gaussian 16 at Sun Dec 10 07:01:17 2023.
