 Gaussian 16, Revision A.03,
 Gaussian 16:  ES64L-G16RevA.03 25-Dec-2016

 ------------------
 #p CCSD(T)/CEP-31G
 ------------------

 ------------
 H2O_H2O_4267
 ------------
 Symbolic Z-matrix:
 Charge =  0 Multiplicity = 1

                         Standard orientation:
 ---------------------------------------------------------------------
 Center     Atomic      Atomic             Coordinates (Angstroms)
 Number     Number       Type             X           Y           Z
 ---------------------------------------------------------------------
      1          8           0        0.051269   -3.029386    0.000000
      2          1           0       -0.749124   -3.599365    0.000000
      3          1           0        0.850017   -3.601669    0.000000
      4          8           0        0.051269    3.092944    0.000000
      5          1           0       -0.105925    4.062890    0.000000
      6          1           0       -0.815273    2.629682    0.000000
 ---------------------------------------------------------------------

 SCF Done:  E(RHF) =  -33.6514363031     A.U. after   11 cycles
 E2 =    -0.2284070821D+00 EUMP2 =    -0.33879843385181D+02
 CCSD(T)
 CCSD(T)= -0.33896853716D+02

 The electronic state is 1-A'.
 Alpha  occ. eigenvalues --   -1.35414  -1.34906  -0.71045  -0.70526  -0.55129
 Alpha  occ. eigenvalues --   -0.54616  -0.49980  -0.49472
 Alpha virt. eigenvalues --    0.20338   0.20859   0.30576   0.31085   0.80573
 Alpha virt. eigenvalues --    0.81073   0.83630   0.84138   0.86730   0.87297
 Alpha virt. eigenvalues --    1.17473   1.17978   1.21934   1.22445   2.57499

 Mulliken charges:
               1
     1  O   -0.739885
     2  H    0.368531
     3  H    0.371354
     4  O   -0.739501
     5  H    0.367088
     6  H    0.372413
 Sum of Mulliken charges =   0.00000

 Dipole moment (field-independent basis, Debye):
    X=             -2.3655    Y=             -1.4883    Z=              0.0000  Tot=              2.7947
 Quadrupole moment (field-independent basis, Debye-Ang):
   XX=             -9.7447   YY=             12.8741   ZZ=            -14.9882
   XY=             -6.7077   XZ=              0.0000   YZ=              0.0000

 MP4DQ=-33.8912068\MP4SDQ=-33.8932355\CCSD=-33.8942913\CCSD(T)=-33.8968
 Normal termination of Gaussian 16 at Sun Dec 10 06:56:53 2023.
