 Gaussian 16, Revision A.03,
 Gaussian 16:  ES64L-G16RevA.03 25-Dec-2016

 ------------------
 #p CCSD(T)/CEP-31G
 ------------------

 ------------
 H2O_H2O_2787
 ------------
 Symbolic Z-matrix:
 Charge =  0 Multiplicity = 1

                         Standard orientation:
 ---------------------------------------------------------------------
 Center     Atomic      Atomic             Coordinates (Angstroms)
 Number     Number       Type             X           Y           Z
 ---------------------------------------------------------------------
      1          8           0        0.040411   -2.261341    0.000000
      2          1           0       -0.760031   -2.831252    0.000000
      3          1           0        0.839109   -2.833693    0.000000
      4          8           0        0.040411    2.294674    0.000000
      5          1           0        0.203421    3.263659    0.000000
      6          1           0       -0.929069    2.134622    0.000000
 ---------------------------------------------------------------------

 SCF Done:  E(RHF) =  -33.6498365782     A.U. after   11 cycles
 E2 =    -0.2285310239D+00 EUMP2 =    -0.33878367602095D+02
 CCSD(T)
 CCSD(T)= -0.33895425038D+02

 The electronic state is 1-A'.
 Alpha  occ. eigenvalues --   -1.34889  -1.34396  -0.70516  -0.70002  -0.54516
 Alpha  occ. eigenvalues --   -0.54012  -0.49432  -0.48941
 Alpha virt. eigenvalues --    0.20700   0.21343   0.31004   0.31484   0.81092
 Alpha virt. eigenvalues --    0.81630   0.82789   0.85636   0.87375   0.88825
 Alpha virt. eigenvalues --    1.17931   1.18423   1.22400   1.22903   2.57998

 Mulliken charges:
               1
     1  O   -0.734382
     2  H    0.364623
     3  H    0.369777
     4  O   -0.733097
     5  H    0.362703
     6  H    0.370376
 Sum of Mulliken charges =  -0.00000

 Dipole moment (field-independent basis, Debye):
    X=             -1.8540    Y=             -0.7926    Z=              0.0000  Tot=              2.0163
 Quadrupole moment (field-independent basis, Debye-Ang):
   XX=             -9.1067   YY=              9.4373   ZZ=            -14.9866
   XY=             -3.4599   XZ=              0.0000   YZ=              0.0000

 MP4DQ=-33.8897637\MP4SDQ=-33.8917981\CCSD=-33.8928548\CCSD(T)=-33.8954
 Normal termination of Gaussian 16 at Sun Dec 10 06:30:05 2023.
