 Gaussian 16, Revision A.03,
 Gaussian 16:  ES64L-G16RevA.03 25-Dec-2016

 ------------------
 #p CCSD(T)/CEP-31G
 ------------------

 ------------
 H2O_H2O_1936
 ------------
 Symbolic Z-matrix:
 Charge =  0 Multiplicity = 1

                         Standard orientation:
 ---------------------------------------------------------------------
 Center     Atomic      Atomic             Coordinates (Angstroms)
 Number     Number       Type             X           Y           Z
 ---------------------------------------------------------------------
      1          8           0        0.037682   -1.812060    0.000000
      2          1           0       -0.762901   -2.381772    0.000000
      3          1           0        0.836238   -2.384611    0.000000
      4          8           0        0.037682    1.840273    0.000000
      5          1           0        0.263956    2.796466    0.000000
      6          1           0       -0.940214    1.744214    0.000000
 ---------------------------------------------------------------------

 SCF Done:  E(RHF) =  -33.6476992900     A.U. after   11 cycles
 E2 =    -0.2287971727D+00 EUMP2 =    -0.33876496462714D+02
 CCSD(T)
 CCSD(T)= -0.33893631313D+02

 The electronic state is 1-A'.
 Alpha  occ. eigenvalues --   -1.34456  -1.33792  -0.70082  -0.69380  -0.54084
 Alpha  occ. eigenvalues --   -0.53140  -0.48975  -0.48307
 Alpha virt. eigenvalues --    0.20610   0.22221   0.31320   0.31959   0.76843
 Alpha virt. eigenvalues --    0.80784   0.83027   0.85733   0.89033   0.99363
 Alpha virt. eigenvalues --    1.18273   1.19126   1.22768   1.23510   2.57935

 Mulliken charges:
               1
     1  O   -0.727336
     2  H    0.359416
     3  H    0.368137
     4  O   -0.724281
     5  H    0.356193
     6  H    0.367871
 Sum of Mulliken charges =   0.00000

 Dipole moment (field-independent basis, Debye):
    X=             -1.7114    Y=             -0.6901    Z=              0.0000  Tot=              1.8453
 Quadrupole moment (field-independent basis, Debye-Ang):
   XX=             -8.9917   YY=              5.5070   ZZ=            -14.9855
   XY=             -2.4151   XZ=              0.0000   YZ=              0.0000

 P4DQ=-33.8879277\MP4SDQ=-33.8899858\CCSD=-33.891039\CCSD(T)=-33.893631
 Normal termination of Gaussian 16 at Sun Dec 10 07:01:10 2023.
