 Gaussian 16, Revision A.03,
 Gaussian 16:  ES64L-G16RevA.03 25-Dec-2016

 ------------------
 #p CCSD(T)/CEP-31G
 ------------------

 ------------
 H2O_H2O_3298
 ------------
 Symbolic Z-matrix:
 Charge =  0 Multiplicity = 1

                         Standard orientation:
 ---------------------------------------------------------------------
 Center     Atomic      Atomic             Coordinates (Angstroms)
 Number     Number       Type             X           Y           Z
 ---------------------------------------------------------------------
      1          8           0        0.057094   -2.487505    0.000000
      2          1           0       -0.743578   -3.057092    0.000000
      3          1           0        0.855561   -3.060180    0.000000
      4          8           0        0.057094    2.594040    0.000000
      5          1           0       -0.458907    3.430251    0.000000
      6          1           0       -0.566577    1.834737    0.000000
 ---------------------------------------------------------------------

 SCF Done:  E(RHF) =  -33.6523467916     A.U. after   11 cycles
 E2 =    -0.2283837956D+00 EUMP2 =    -0.33880730587210D+02
 CCSD(T)
 CCSD(T)= -0.33897714342D+02

 The electronic state is 1-A'.
 Alpha  occ. eigenvalues --   -1.35776  -1.34523  -0.71411  -0.70128  -0.55545
 Alpha  occ. eigenvalues --   -0.54263  -0.50355  -0.49102
 Alpha virt. eigenvalues --    0.19978   0.21361   0.30263   0.31564   0.80200
 Alpha virt. eigenvalues --    0.81423   0.83065   0.84538   0.86295   0.87695
 Alpha virt. eigenvalues --    1.17149   1.18409   1.21595   1.22944   2.57140

 Mulliken charges:
               1
     1  O   -0.743106
     2  H    0.369083
     3  H    0.374054
     4  O   -0.742669
     5  H    0.365082
     6  H    0.377557
 Sum of Mulliken charges =  -0.00000

 Dipole moment (field-independent basis, Debye):
    X=             -2.6266    Y=             -2.5180    Z=              0.0000  Tot=              3.6386
 Quadrupole moment (field-independent basis, Debye-Ang):
   XX=            -10.1522   YY=              3.9998   ZZ=            -14.9902
   XY=             -6.9041   XZ=              0.0000   YZ=              0.0000

 MP4DQ=-33.8920733\MP4SDQ=-33.8941005\CCSD=-33.8951531\CCSD(T)=-33.8977
 Normal termination of Gaussian 16 at Sun Dec 10 06:39:13 2023.
