 Gaussian 16, Revision A.03,
 Gaussian 16:  ES64L-G16RevA.03 25-Dec-2016

 ------------------
 #p CCSD(T)/CEP-31G
 ------------------

 ------------
 H2O_H2O_4203
 ------------
 Symbolic Z-matrix:
 Charge =  0 Multiplicity = 1

                         Standard orientation:
 ---------------------------------------------------------------------
 Center     Atomic      Atomic             Coordinates (Angstroms)
 Number     Number       Type             X           Y           Z
 ---------------------------------------------------------------------
      1          8           0        0.011143   -3.036124    0.000000
      2          1           0       -0.788609   -3.607003    0.000000
      3          1           0        0.810533   -3.607508    0.000000
      4          8           0        0.011143    3.038312    0.000000
      5          1           0        0.684154    3.754245    0.000000
      6          1           0       -0.884360    3.442763    0.000000
 ---------------------------------------------------------------------

 SCF Done:  E(RHF) =  -33.6504758676     A.U. after   11 cycles
 E2 =    -0.2284490466D+00 EUMP2 =    -0.33878924914246D+02
 CCSD(T)
 CCSD(T)= -0.33895963008D+02

 The electronic state is 1-A'.
 Alpha  occ. eigenvalues --   -1.34957  -1.34939  -0.70584  -0.70565  -0.54618
 Alpha  occ. eigenvalues --   -0.54600  -0.49508  -0.49490
 Alpha virt. eigenvalues --    0.20742   0.20760   0.30973   0.30990   0.81046
 Alpha virt. eigenvalues --    0.81063   0.84185   0.84231   0.87259   0.87281
 Alpha virt. eigenvalues --    1.17889   1.17907   1.22358   1.22375   2.57938

 Mulliken charges:
               1
     1  O   -0.736456
     2  H    0.367902
     3  H    0.368554
     4  O   -0.736425
     5  H    0.367760
     6  H    0.368665
 Sum of Mulliken charges =  -0.00000

 Dipole moment (field-independent basis, Debye):
    X=             -0.5141    Y=             -0.0512    Z=              0.0000  Tot=              0.5167
 Quadrupole moment (field-independent basis, Debye-Ang):
   XX=             -8.1211   YY=             19.9734   ZZ=            -14.9866
   XY=             -1.2249   XZ=              0.0000   YZ=              0.0000

 \MP4DQ=-33.8903086\MP4SDQ=-33.8923398\CCSD=-33.8933976\CCSD(T)=-33.895
 Normal termination of Gaussian 16 at Sun Dec 10 06:55:46 2023.
