 Gaussian 16, Revision A.03,
 Gaussian 16:  ES64L-G16RevA.03 25-Dec-2016

 ------------------
 #p CCSD(T)/CEP-31G
 ------------------

 -----------
 H2O_H2O_874
 -----------
 Symbolic Z-matrix:
 Charge =  0 Multiplicity = 1

                         Standard orientation:
 ---------------------------------------------------------------------
 Center     Atomic      Atomic             Coordinates (Angstroms)
 Number     Number       Type             X           Y           Z
 ---------------------------------------------------------------------
      1          8           0        0.057337   -1.193865    0.000000
      2          1           0       -0.744473   -1.761849    0.000000
      3          1           0        0.854657   -1.768135    0.000000
      4          8           0        0.057337    1.307641    0.000000
      5          1           0       -0.510647    2.109451    0.000000
      6          1           0       -0.516933    0.510321    0.000000
 ---------------------------------------------------------------------

 SCF Done:  E(RHF) =  -33.6490470472     A.U. after   11 cycles
 E2 =    -0.2299725240D+00 EUMP2 =    -0.33879019571217D+02
 CCSD(T)
 CCSD(T)= -0.33895684150D+02

 The electronic state is 1-A'.
 Alpha  occ. eigenvalues --   -1.37439  -1.30961  -0.73095  -0.68488  -0.55808
 Alpha  occ. eigenvalues --   -0.52030  -0.50877  -0.45527
 Alpha virt. eigenvalues --    0.18673   0.27020   0.29056   0.37841   0.76359
 Alpha virt. eigenvalues --    0.81131   0.88342   0.88411   0.98030   1.10852
 Alpha virt. eigenvalues --    1.18025   1.19728   1.24854   1.31777   2.64219

 Mulliken charges:
               1
     1  O   -0.781947
     2  H    0.371761
     3  H    0.415217
     4  O   -0.734717
     5  H    0.331548
     6  H    0.398139
 Sum of Mulliken charges =  -0.00000

 Dipole moment (field-independent basis, Debye):
    X=             -2.4482    Y=             -3.0476    Z=              0.0000  Tot=              3.9091
 Quadrupole moment (field-independent basis, Debye-Ang):
   XX=            -10.1156   YY=             -4.5132   ZZ=            -15.0091
   XY=             -3.6905   XZ=              0.0000   YZ=              0.0000

 MP4DQ=-33.8897257\MP4SDQ=-33.891912\CCSD=-33.8928617\CCSD(T)=-33.89568
 Normal termination of Gaussian 16 at Sun Dec 10 06:41:06 2023.
