 Gaussian 16, Revision A.03,
 Gaussian 16:  ES64L-G16RevA.03 25-Dec-2016

 ------------------
 #p CCSD(T)/CEP-31G
 ------------------

 ------------
 H2O_H2O_1155
 ------------
 Symbolic Z-matrix:
 Charge =  0 Multiplicity = 1

                         Standard orientation:
 ---------------------------------------------------------------------
 Center     Atomic      Atomic             Coordinates (Angstroms)
 Number     Number       Type             X           Y           Z
 ---------------------------------------------------------------------
      1          8           0        0.018362   -1.411940    0.000000
      2          1           0       -0.781847   -1.982179    0.000000
      3          1           0        0.817294   -1.983965    0.000000
      4          8           0        0.018362    1.417961    0.000000
      5          1           0        0.592807    2.215155    0.000000
      6          1           0       -0.922043    1.702820    0.000000
 ---------------------------------------------------------------------

 SCF Done:  E(RHF) =  -33.6388343529     A.U. after   11 cycles
 E2 =    -0.2294374174D+00 EUMP2 =    -0.33868271770326D+02
 CCSD(T)
 CCSD(T)= -0.33885669788D+02

 The electronic state is 1-A'.
 Alpha  occ. eigenvalues --   -1.33190  -1.32820  -0.68782  -0.68444  -0.53952
 Alpha  occ. eigenvalues --   -0.50198  -0.47800  -0.47035
 Alpha virt. eigenvalues --    0.21225   0.23396   0.32253   0.32569   0.79593
 Alpha virt. eigenvalues --    0.80469   0.81717   0.86950   0.98731   1.11108
 Alpha virt. eigenvalues --    1.19284   1.20631   1.24154   1.24228   2.58716

 Mulliken charges:
               1
     1  O   -0.707897
     2  H    0.349501
     3  H    0.357926
     4  O   -0.704446
     5  H    0.349733
     6  H    0.355183
 Sum of Mulliken charges =   0.00000

 Dipole moment (field-independent basis, Debye):
    X=             -0.8102    Y=             -0.1493    Z=              0.0000  Tot=              0.8239
 Quadrupole moment (field-independent basis, Debye-Ang):
   XX=             -8.4023   YY=              2.0789   ZZ=            -14.9868
   XY=             -0.7368   XZ=              0.0000   YZ=              0.0000

 MP4DQ=-33.8798295\MP4SDQ=-33.8819269\CCSD=-33.8830122\CCSD(T)=-33.8856
 Normal termination of Gaussian 16 at Sun Dec 10 06:46:21 2023.
