 Gaussian 16, Revision A.03,
 Gaussian 16:  ES64L-G16RevA.03 25-Dec-2016

 ------------------
 #p CCSD(T)/CEP-31G
 ------------------

 ------------
 H2O_H2O_2211
 ------------
 Symbolic Z-matrix:
 Charge =  0 Multiplicity = 1

                         Standard orientation:
 ---------------------------------------------------------------------
 Center     Atomic      Atomic             Coordinates (Angstroms)
 Number     Number       Type             X           Y           Z
 ---------------------------------------------------------------------
      1          8           0        0.037681   -1.958310    0.000000
      2          1           0       -0.762828   -2.528128    0.000000
      3          1           0        0.836312   -2.530756    0.000000
      4          8           0        0.037681    1.986533    0.000000
      5          1           0        0.263828    2.942757    0.000000
      6          1           0       -0.940203    1.890345    0.000000
 ---------------------------------------------------------------------

 SCF Done:  E(RHF) =  -33.6485487089     A.U. after   11 cycles
 E2 =    -0.2286757427D+00 EUMP2 =    -0.33877224451655D+02
 CCSD(T)
 CCSD(T)= -0.33894323704D+02

 The electronic state is 1-A'.
 Alpha  occ. eigenvalues --   -1.34598  -1.34032  -0.70224  -0.69628  -0.54196
 Alpha  occ. eigenvalues --   -0.53513  -0.49124  -0.48559
 Alpha virt. eigenvalues --    0.20683   0.21853   0.31222   0.31770   0.79075
 Alpha virt. eigenvalues --    0.81065   0.82341   0.86135   0.88153   0.94324
 Alpha virt. eigenvalues --    1.18169   1.18789   1.22645   1.23260   2.58045

 Mulliken charges:
               1
     1  O   -0.730019
     2  H    0.361518
     3  H    0.368623
     4  O   -0.727844
     5  H    0.358956
     6  H    0.368766
 Sum of Mulliken charges =  -0.00000

 Dipole moment (field-independent basis, Debye):
    X=             -1.7190    Y=             -0.6823    Z=              0.0000  Tot=              1.8494
 Quadrupole moment (field-independent basis, Debye-Ang):
   XX=             -8.9824   YY=              6.9295   ZZ=            -14.9858
   XY=             -2.6553   XZ=              0.0000   YZ=              0.0000

 MP4DQ=-33.8886417\MP4SDQ=-33.8906875\CCSD=-33.8917421\CCSD(T)=-33.8943
 Normal termination of Gaussian 16 at Sun Dec 10 07:07:12 2023.
