 Gaussian 16, Revision A.03,
 Gaussian 16:  ES64L-G16RevA.03 25-Dec-2016

 ------------------
 #p CCSD(T)/CEP-31G
 ------------------

 -----------
 H2O_H2O_714
 -----------
 Symbolic Z-matrix:
 Charge =  0 Multiplicity = 1

                         Standard orientation:
 ---------------------------------------------------------------------
 Center     Atomic      Atomic             Coordinates (Angstroms)
 Number     Number       Type             X           Y           Z
 ---------------------------------------------------------------------
      1          8           0        0.045385   -1.151773    0.000000
      2          1           0       -0.756079   -1.720245    0.000000
      3          1           0        0.843054   -1.725559    0.000000
      4          8           0        0.045385    1.196162    0.000000
      5          1           0        0.082287    2.178070    0.000000
      6          1           0       -0.895420    0.912626    0.000000
 ---------------------------------------------------------------------

 SCF Done:  E(RHF) =  -33.6328822959     A.U. after   11 cycles
 E2 =    -0.2306041578D+00 EUMP2 =    -0.33863486453771D+02
 CCSD(T)
 CCSD(T)= -0.33880839876D+02

 The electronic state is 1-A'.
 Alpha  occ. eigenvalues --   -1.34187  -1.31696  -0.69813  -0.67722  -0.55085
 Alpha  occ. eigenvalues --   -0.48861  -0.48722  -0.45930
 Alpha virt. eigenvalues --    0.20278   0.25615   0.31564   0.33252   0.78587
 Alpha virt. eigenvalues --    0.83698   0.89126   0.92498   0.96899   1.15005
 Alpha virt. eigenvalues --    1.18940   1.22196   1.23756   1.30834   2.57377

 Mulliken charges:
               1
     1  O   -0.739758
     2  H    0.349426
     3  H    0.379795
     4  O   -0.688525
     5  H    0.339624
     6  H    0.359438
 Sum of Mulliken charges =   0.00000

 Dipole moment (field-independent basis, Debye):
    X=             -1.9047    Y=             -1.0970    Z=              0.0000  Tot=              2.1980
 Quadrupole moment (field-independent basis, Debye-Ang):
   XX=             -9.4447   YY=             -2.0448   ZZ=            -14.9952
   XY=             -1.8512   XZ=              0.0000   YZ=              0.0000

 MP4DQ=-33.8748386\MP4SDQ=-33.8770228\CCSD=-33.8780735\CCSD(T)=-33.8808
 Normal termination of Gaussian 16 at Sun Dec 10 06:38:05 2023.
