 Gaussian 16, Revision A.03,
 Gaussian 16:  ES64L-G16RevA.03 25-Dec-2016

 ------------------
 #p CCSD(T)/CEP-31G
 ------------------

 ------------
 H2O_H2O_1704
 ------------
 Symbolic Z-matrix:
 Charge =  0 Multiplicity = 1

                         Standard orientation:
 ---------------------------------------------------------------------
 Center     Atomic      Atomic             Coordinates (Angstroms)
 Number     Number       Type             X           Y           Z
 ---------------------------------------------------------------------
      1          8           0        0.014783   -1.705619    0.000000
      2          1           0       -0.785213   -2.276155    0.000000
      3          1           0        0.813929   -2.277347    0.000000
      4          8           0        0.014783    1.709489    0.000000
      5          1           0        0.639856    2.467639    0.000000
      6          1           0       -0.905106    2.054901    0.000000
 ---------------------------------------------------------------------

 SCF Done:  E(RHF) =  -33.6445595397     A.U. after   11 cycles
 E2 =    -0.2289343069D+00 EUMP2 =    -0.33873493846589D+02
 CCSD(T)
 CCSD(T)= -0.33890729225D+02

 The electronic state is 1-A'.
 Alpha  occ. eigenvalues --   -1.33756  -1.33637  -0.69374  -0.69249  -0.53660
 Alpha  occ. eigenvalues --   -0.52337  -0.48289  -0.48047
 Alpha virt. eigenvalues --    0.21078   0.22350   0.31789   0.32079   0.76555
 Alpha virt. eigenvalues --    0.80731   0.84033   0.84992   0.92444   1.01775
 Alpha virt. eigenvalues --    1.18862   1.19041   1.23294   1.23729   2.58511

 Mulliken charges:
               1
     1  O   -0.717476
     2  H    0.356692
     3  H    0.360809
     4  O   -0.716739
     5  H    0.356060
     6  H    0.360653
 Sum of Mulliken charges =  -0.00000

 Dipole moment (field-independent basis, Debye):
    X=             -0.6696    Y=             -0.0960    Z=              0.0000  Tot=              0.6764
 Quadrupole moment (field-independent basis, Debye-Ang):
   XX=             -8.2695   YY=              5.5704   ZZ=            -14.9835
   XY=             -0.7658   XZ=              0.0000   YZ=              0.0000

 Q=-33.8849871\MP4SDQ=-33.8870583\CCSD=-33.8881208\CCSD(T)=-33.8907292\
 Normal termination of Gaussian 16 at Sun Dec 10 06:56:33 2023.
