 Gaussian 16, Revision A.03,
 Gaussian 16:  ES64L-G16RevA.03 25-Dec-2016

 ------------------
 #p CCSD(T)/CEP-31G
 ------------------

 -----------
 H2O_H2O_770
 -----------
 Symbolic Z-matrix:
 Charge =  0 Multiplicity = 1

                         Standard orientation:
 ---------------------------------------------------------------------
 Center     Atomic      Atomic             Coordinates (Angstroms)
 Number     Number       Type             X           Y           Z
 ---------------------------------------------------------------------
      1          8           0        0.055334   -1.156729    0.000000
      2          1           0       -0.746493   -1.724689    0.000000
      3          1           0        0.852637   -1.731024    0.000000
      4          8           0        0.055334    1.240954    0.000000
      5          1           0       -0.285745    2.162459    0.000000
      6          1           0       -0.705749    0.619457    0.000000
 ---------------------------------------------------------------------

 SCF Done:  E(RHF) =  -33.6407494507     A.U. after   11 cycles
 E2 =    -0.2305077549D+00 EUMP2 =    -0.33871257205541D+02
 CCSD(T)
 CCSD(T)= -0.33888293532D+02

 The electronic state is 1-A'.
 Alpha  occ. eigenvalues --   -1.36024  -1.31295  -0.71728  -0.68133  -0.54575
 Alpha  occ. eigenvalues --   -0.50793  -0.50604  -0.45781
 Alpha virt. eigenvalues --    0.19332   0.26597   0.30123   0.34992   0.77338
 Alpha virt. eigenvalues --    0.83608   0.88788   0.91191   0.96514   1.13998
 Alpha virt. eigenvalues --    1.19435   1.20392   1.24466   1.30734   2.71105

 Mulliken charges:
               1
     1  O   -0.765496
     2  H    0.360599
     3  H    0.400263
     4  O   -0.707207
     5  H    0.330939
     6  H    0.380901
 Sum of Mulliken charges =   0.00000

 Dipole moment (field-independent basis, Debye):
    X=             -2.3347    Y=             -2.1835    Z=              0.0000  Tot=              3.1966
 Quadrupole moment (field-independent basis, Debye-Ang):
   XX=             -9.9988   YY=             -3.3586   ZZ=            -15.0010
   XY=             -2.9370   XZ=              0.0000   YZ=              0.0000

 \MP4DQ=-33.8822919\MP4SDQ=-33.884495\CCSD=-33.8854884\CCSD(T)=-33.8882
 Normal termination of Gaussian 16 at Sun Dec 10 06:39:08 2023.
