 Gaussian 16, Revision A.03,
 Gaussian 16:  ES64L-G16RevA.03 25-Dec-2016

 ------------------
 #p CCSD(T)/CEP-31G
 ------------------

 ------------
 H2O_H2O_4258
 ------------
 Symbolic Z-matrix:
 Charge =  0 Multiplicity = 1

                         Standard orientation:
 ---------------------------------------------------------------------
 Center     Atomic      Atomic             Coordinates (Angstroms)
 Number     Number       Type             X           Y           Z
 ---------------------------------------------------------------------
      1          8           0        0.028563   -3.055617    0.000000
      2          1           0       -0.771466   -3.626107    0.000000
      3          1           0        0.827675   -3.627391    0.000000
      4          8           0        0.028563    3.070875    0.000000
      5          1           0        0.436164    3.964948    0.000000
      6          1           0       -0.949376    3.166489    0.000000
 ---------------------------------------------------------------------

 SCF Done:  E(RHF) =  -33.6507072851     A.U. after   11 cycles
 E2 =    -0.2284397338D+00 EUMP2 =    -0.33879147018973D+02
 CCSD(T)
 CCSD(T)= -0.33896178480D+02

 The electronic state is 1-A'.
 Alpha  occ. eigenvalues --   -1.35064  -1.34941  -0.70692  -0.70566  -0.54738
 Alpha  occ. eigenvalues --   -0.54616  -0.49619  -0.49497
 Alpha virt. eigenvalues --    0.20648   0.20772   0.30880   0.31000   0.80935
 Alpha virt. eigenvalues --    0.81055   0.84063   0.84186   0.87135   0.87280
 Alpha virt. eigenvalues --    1.17792   1.17913   1.22259   1.22380   2.57835

 Mulliken charges:
               1
     1  O   -0.737282
     2  H    0.367829
     3  H    0.369453
     4  O   -0.737098
     5  H    0.367353
     6  H    0.369746
 Sum of Mulliken charges =   0.00000

 Dipole moment (field-independent basis, Debye):
    X=             -1.3179    Y=             -0.3572    Z=              0.0000  Tot=              1.3655
 Quadrupole moment (field-independent basis, Debye-Ang):
   XX=             -8.5683   YY=             18.7842   ZZ=            -14.9869
   XY=             -3.2938   XZ=              0.0000   YZ=              0.0000

 MP4DQ=-33.8905259\MP4SDQ=-33.8925565\CCSD=-33.8936138\CCSD(T)=-33.8961
 Normal termination of Gaussian 16 at Sun Dec 10 06:56:44 2023.
