 Gaussian 16, Revision A.03,
 Gaussian 16:  ES64L-G16RevA.03 25-Dec-2016

 ------------------
 #p CCSD(T)/CEP-31G
 ------------------

 -----------
 H2O_H2O_720
 -----------
 Symbolic Z-matrix:
 Charge =  0 Multiplicity = 1

                         Standard orientation:
 ---------------------------------------------------------------------
 Center     Atomic      Atomic             Coordinates (Angstroms)
 Number     Number       Type             X           Y           Z
 ---------------------------------------------------------------------
      1          8           0        0.055338   -1.130143    0.000000
      2          1           0       -0.746540   -1.698031    0.000000
      3          1           0        0.852589   -1.704509    0.000000
      4          8           0        0.055338    1.214358    0.000000
      5          1           0       -0.285658    2.135893    0.000000
      6          1           0       -0.705801    0.592929    0.000000
 ---------------------------------------------------------------------

 SCF Done:  E(RHF) =  -33.6380260286     A.U. after   11 cycles
 E2 =    -0.2306865253D+00 EUMP2 =    -0.33868712553892D+02
 CCSD(T)
 CCSD(T)= -0.33885721853D+02

 The electronic state is 1-A'.
 Alpha  occ. eigenvalues --   -1.36112  -1.31143  -0.71834  -0.68247  -0.54373
 Alpha  occ. eigenvalues --   -0.50682  -0.50591  -0.45612
 Alpha virt. eigenvalues --    0.19326   0.26802   0.30080   0.35093   0.77367
 Alpha virt. eigenvalues --    0.83962   0.89036   0.92131   0.97028   1.13896
 Alpha virt. eigenvalues --    1.19263   1.20542   1.24977   1.30928   2.70754

 Mulliken charges:
               1
     1  O   -0.768592
     2  H    0.360701
     3  H    0.402336
     4  O   -0.703481
     5  H    0.329137
     6  H    0.379898
 Sum of Mulliken charges =  -0.00000

 Dipole moment (field-independent basis, Debye):
    X=             -2.3172    Y=             -2.1885    Z=              0.0000  Tot=              3.1873
 Quadrupole moment (field-independent basis, Debye-Ang):
   XX=             -9.9992   YY=             -3.6256   ZZ=            -15.0011
   XY=             -2.8660   XZ=              0.0000   YZ=              0.0000

 P4DQ=-33.8796915\MP4SDQ=-33.8819087\CCSD=-33.882892\CCSD(T)=-33.885721
 Normal termination of Gaussian 16 at Sun Dec 10 06:38:11 2023.
