 Gaussian 16, Revision A.03,
 Gaussian 16:  ES64L-G16RevA.03 25-Dec-2016

 ------------------
 #p CCSD(T)/CEP-31G
 ------------------

 ------------
 H2O_H2O_1610
 ------------
 Symbolic Z-matrix:
 Charge =  0 Multiplicity = 1

                         Standard orientation:
 ---------------------------------------------------------------------
 Center     Atomic      Atomic             Coordinates (Angstroms)
 Number     Number       Type             X           Y           Z
 ---------------------------------------------------------------------
      1          8           0        0.034790   -1.641784    0.000000
      2          1           0       -0.765814   -2.211468    0.000000
      3          1           0        0.833326   -2.214363    0.000000
      4          8           0        0.034790    1.665263    0.000000
      5          1           0        0.323150    2.604601    0.000000
      6          1           0       -0.947296    1.633402    0.000000
 ---------------------------------------------------------------------

 SCF Done:  E(RHF) =  -33.6456988900     A.U. after   11 cycles
 E2 =    -0.2290082956D+00 EUMP2 =    -0.33874707185685D+02
 CCSD(T)
 CCSD(T)= -0.33891926831D+02

 The electronic state is 1-A'.
 Alpha  occ. eigenvalues --   -1.34126  -1.33456  -0.69750  -0.69041  -0.53922
 Alpha  occ. eigenvalues --   -0.52420  -0.48639  -0.47928
 Alpha virt. eigenvalues --    0.20670   0.22703   0.31576   0.32182   0.75678
 Alpha virt. eigenvalues --    0.80263   0.84302   0.84665   0.91193   1.06517
 Alpha virt. eigenvalues --    1.18521   1.19739   1.23117   1.23783   2.58587

 Mulliken charges:
               1
     1  O   -0.721908
     2  H    0.355794
     3  H    0.366243
     4  O   -0.717477
     5  H    0.352398
     6  H    0.364949
 Sum of Mulliken charges =  -0.00000

 Dipole moment (field-independent basis, Debye):
    X=             -1.5677    Y=             -0.5825    Z=              0.0000  Tot=              1.6724
 Quadrupole moment (field-independent basis, Debye-Ang):
   XX=             -8.8801   YY=              4.0289   ZZ=            -14.9850
   XY=             -1.9225   XZ=              0.0000   YZ=              0.0000

 MP4DQ=-33.8861783\MP4SDQ=-33.8882575\CCSD=-33.8893149\CCSD(T)=-33.8919
 Normal termination of Gaussian 16 at Sun Dec 10 06:54:49 2023.
