 Gaussian 16, Revision A.03,
 Gaussian 16:  ES64L-G16RevA.03 25-Dec-2016

 ------------------
 #p CCSD(T)/CEP-31G
 ------------------

 ------------
 H2O_H2O_1477
 ------------
 Symbolic Z-matrix:
 Charge =  0 Multiplicity = 1

                         Standard orientation:
 ---------------------------------------------------------------------
 Center     Atomic      Atomic             Coordinates (Angstroms)
 Number     Number       Type             X           Y           Z
 ---------------------------------------------------------------------
      1          8           0        0.007455   -1.587530    0.000000
      2          1           0       -0.792347   -2.158339    0.000000
      3          1           0        0.806795   -2.158985    0.000000
      4          8           0        0.007455    1.588501    0.000000
      5          1           0        0.725909    2.258822    0.000000
      6          1           0       -0.859637    2.050733    0.000000
 ---------------------------------------------------------------------

 SCF Done:  E(RHF) =  -33.6423542378     A.U. after   11 cycles
 E2 =    -0.2290837610D+00 EUMP2 =    -0.33871437998794D+02
 CCSD(T)
 CCSD(T)= -0.33888748069D+02

 The electronic state is 1-A'.
 Alpha  occ. eigenvalues --   -1.33462  -1.33344  -0.69072  -0.68963  -0.53632
 Alpha  occ. eigenvalues --   -0.51556  -0.48027  -0.47665
 Alpha virt. eigenvalues --    0.21207   0.22687   0.31948   0.32326   0.77075
 Alpha virt. eigenvalues --    0.80322   0.83573   0.85130   0.95351   1.05315
 Alpha virt. eigenvalues --    1.19087   1.19338   1.23538   1.24067   2.59756

 Mulliken charges:
               1
     1  O   -0.711895
     2  H    0.354681
     3  H    0.357206
     4  O   -0.711609
     5  H    0.354589
     6  H    0.357028
 Sum of Mulliken charges =   0.00000

 Dipole moment (field-independent basis, Debye):
    X=             -0.3354    Y=             -0.0242    Z=              0.0000  Tot=              0.3363
 Quadrupole moment (field-independent basis, Debye-Ang):
   XX=             -8.1949   YY=              4.3309   ZZ=            -14.9836
   XY=             -0.3429   XZ=              0.0000   YZ=              0.0000

 4DQ=-33.8829702\MP4SDQ=-33.8850518\CCSD=-33.8861231\CCSD(T)=-33.888748
 Normal termination of Gaussian 16 at Sun Dec 10 06:52:21 2023.
