 Gaussian 16, Revision A.03,
 Gaussian 16:  ES64L-G16RevA.03 25-Dec-2016

 ------------------
 #p CCSD(T)/CEP-31G
 ------------------

 ------------
 H2O_H2O_4239
 ------------
 Symbolic Z-matrix:
 Charge =  0 Multiplicity = 1

                         Standard orientation:
 ---------------------------------------------------------------------
 Center     Atomic      Atomic             Coordinates (Angstroms)
 Number     Number       Type             X           Y           Z
 ---------------------------------------------------------------------
      1          8           0        0.045340   -3.026400    0.000000
      2          1           0       -0.754962   -3.596508    0.000000
      3          1           0        0.844179   -3.598554    0.000000
      4          8           0        0.045340    3.070973    0.000000
      5          1           0        0.080235    4.052956    0.000000
      6          1           0       -0.894884    2.785517    0.000000
 ---------------------------------------------------------------------

 SCF Done:  E(RHF) =  -33.6511412561     A.U. after   11 cycles
 E2 =    -0.2284217188D+00 EUMP2 =    -0.33879562974926D+02
 CCSD(T)
 CCSD(T)= -0.33896581893D+02

 The electronic state is 1-A'.
 Alpha  occ. eigenvalues --   -1.35274  -1.34914  -0.70904  -0.70535  -0.54973
 Alpha  occ. eigenvalues --   -0.54611  -0.49836  -0.49476
 Alpha virt. eigenvalues --    0.20461   0.20829   0.30697   0.31054   0.80717
 Alpha virt. eigenvalues --    0.81072   0.83803   0.84161   0.86891   0.87303
 Alpha virt. eigenvalues --    1.17600   1.17957   1.22063   1.22424   2.57633

 Mulliken charges:
               1
     1  O   -0.738834
     2  H    0.368133
     3  H    0.370701
     4  O   -0.738456
     5  H    0.367045
     6  H    0.371411
 Sum of Mulliken charges =  -0.00000

 Dipole moment (field-independent basis, Debye):
    X=             -2.0919    Y=             -1.0438    Z=              0.0000  Tot=              2.3378
 Quadrupole moment (field-independent basis, Debye-Ang):
   XX=             -9.3723   YY=             15.1717   ZZ=            -14.9877
   XY=             -5.6276   XZ=              0.0000   YZ=              0.0000

 P4DQ=-33.8909327\MP4SDQ=-33.8929622\CCSD=-33.8940185\CCSD(T)=-33.89658
 Normal termination of Gaussian 16 at Sun Dec 10 06:56:24 2023.
