 Gaussian 16, Revision A.03,
 Gaussian 16:  ES64L-G16RevA.03 25-Dec-2016

 ------------------
 #p CCSD(T)/CEP-31G
 ------------------

 ------------
 H2O_H2O_1862
 ------------
 Symbolic Z-matrix:
 Charge =  0 Multiplicity = 1

                         Standard orientation:
 ---------------------------------------------------------------------
 Center     Atomic      Atomic             Coordinates (Angstroms)
 Number     Number       Type             X           Y           Z
 ---------------------------------------------------------------------
      1          8           0        0.040418   -1.769410    0.000000
      2          1           0       -0.760264   -2.338985    0.000000
      3          1           0        0.838875   -2.342097    0.000000
      4          8           0        0.040418    1.802709    0.000000
      5          1           0        0.203835    2.771627    0.000000
      6          1           0       -0.929129    1.643065    0.000000
 ---------------------------------------------------------------------

 SCF Done:  E(RHF) =  -33.6478015987     A.U. after   11 cycles
 E2 =    -0.2288327974D+00 EUMP2 =    -0.33876634396065D+02
 CCSD(T)
 CCSD(T)= -0.33893772066D+02

 The electronic state is 1-A'.
 Alpha  occ. eigenvalues --   -1.34520  -1.33699  -0.70148  -0.69280  -0.54155
 Alpha  occ. eigenvalues --   -0.53054  -0.49042  -0.48216
 Alpha virt. eigenvalues --    0.20490   0.22391   0.31252   0.32058   0.76265
 Alpha virt. eigenvalues --    0.80601   0.83239   0.85568   0.89057   1.01143
 Alpha virt. eigenvalues --    1.18208   1.19364   1.22691   1.23658   2.57814

 Mulliken charges:
               1
     1  O   -0.727804
     2  H    0.359092
     3  H    0.368995
     4  O   -0.724034
     5  H    0.355114
     6  H    0.368637
 Sum of Mulliken charges =  -0.00000

 Dipole moment (field-independent basis, Debye):
    X=             -1.8324    Y=             -0.8170    Z=              0.0000  Tot=              2.0062
 Quadrupole moment (field-independent basis, Debye-Ang):
   XX=             -9.1264   YY=              4.8127   ZZ=            -14.9859
   XY=             -2.5828   XZ=              0.0000   YZ=              0.0000

 \MP4DQ=-33.8880627\MP4SDQ=-33.890125\CCSD=-33.8911768\CCSD(T)=-33.8937
 Normal termination of Gaussian 16 at Sun Dec 10 06:59:28 2023.
