 Gaussian 16, Revision A.03,
 Gaussian 16:  ES64L-G16RevA.03 25-Dec-2016

 ------------------
 #p CCSD(T)/CEP-31G
 ------------------

 -----------
 H2O_H2O_220
 -----------
 Symbolic Z-matrix:
 Charge =  0 Multiplicity = 1

                         Standard orientation:
 ---------------------------------------------------------------------
 Center     Atomic      Atomic             Coordinates (Angstroms)
 Number     Number       Type             X           Y           Z
 ---------------------------------------------------------------------
      1          8           0        0.055388   -0.864293    0.000000
      2          1           0       -0.747164   -1.431227    0.000000
      3          1           0        0.851956   -1.439607    0.000000
      4          8           0        0.055388    0.948376    0.000000
      5          1           0       -0.284513    1.870317    0.000000
      6          1           0       -0.706489    0.327853    0.000000
 ---------------------------------------------------------------------

 SCF Done:  E(RHF) =  -33.5420234618     A.U. after   11 cycles
 E2 =    -0.2341895711D+00 EUMP2 =    -0.33776213032886D+02
 CCSD(T)
 CCSD(T)= -0.33792664757D+02

 The electronic state is 1-A'.
 Alpha  occ. eigenvalues --   -1.39736  -1.28993  -0.76205  -0.70963  -0.53195
 Alpha  occ. eigenvalues --   -0.51767  -0.44689  -0.43386
 Alpha virt. eigenvalues --    0.19198   0.28998   0.29565   0.35467   0.78971
 Alpha virt. eigenvalues --    0.83838   0.89967   0.94876   0.98442   1.17102
 Alpha virt. eigenvalues --    1.20105   1.24658   1.31274   1.35019   2.71132

 Mulliken charges:
               1
     1  O   -0.795825
     2  H    0.358340
     3  H    0.428811
     4  O   -0.655898
     5  H    0.296490
     6  H    0.368082
 Sum of Mulliken charges =   0.00000

 Dipole moment (field-independent basis, Debye):
    X=             -2.0583    Y=             -2.2897    Z=              0.0000  Tot=              3.0788
 Quadrupole moment (field-independent basis, Debye-Ang):
   XX=            -10.0045   YY=             -7.0654   ZZ=            -14.9513
   XY=             -2.0878   XZ=              0.0000   YZ=              0.0000

 MP4DQ=-33.7860768\MP4SDQ=-33.7886244\CCSD=-33.7893467\CCSD(T)=-33.7926
 Normal termination of Gaussian 16 at Sun Dec 10 06:28:52 2023.
