 Gaussian 16, Revision A.03,
 Gaussian 16:  ES64L-G16RevA.03 25-Dec-2016

 ------------------
 #p CCSD(T)/CEP-31G
 ------------------

 -----------
 H2O_H2O_184
 -----------
 Symbolic Z-matrix:
 Charge =  0 Multiplicity = 1

                         Standard orientation:
 ---------------------------------------------------------------------
 Center     Atomic      Atomic             Coordinates (Angstroms)
 Number     Number       Type             X           Y           Z
 ---------------------------------------------------------------------
      1          8           0        0.031760   -0.886317    0.000000
      2          1           0       -0.769549   -1.455009    0.000000
      3          1           0        0.829585   -1.459884    0.000000
      4          8           0        0.031760    0.905374    0.000000
      5          1           0        0.382075    1.823407    0.000000
      6          1           0       -0.950265    0.939030    0.000000
 ---------------------------------------------------------------------

 SCF Done:  E(RHF) =  -33.5483060122     A.U. after   11 cycles
 E2 =    -0.2349281457D+00 EUMP2 =    -0.33783234157849D+02
 CCSD(T)
 CCSD(T)= -0.33800155541D+02

 The electronic state is 1-A'.
 Alpha  occ. eigenvalues --   -1.35532  -1.29560  -0.70541  -0.67272  -0.60259
 Alpha  occ. eigenvalues --   -0.50291  -0.43258  -0.37758
 Alpha virt. eigenvalues --    0.20808   0.27696   0.31810   0.33508   0.81426
 Alpha virt. eigenvalues --    0.83144   0.89684   0.93303   1.00470   1.19594
 Alpha virt. eigenvalues --    1.21393   1.24625   1.27048   1.34251   2.51351

 Mulliken charges:
               1
     1  O   -0.729332
     2  H    0.337582
     3  H    0.378438
     4  O   -0.672171
     5  H    0.343507
     6  H    0.341976
 Sum of Mulliken charges =   0.00000

 Dipole moment (field-independent basis, Debye):
    X=             -1.1789    Y=             -0.4832    Z=              0.0000  Tot=              1.2740
 Quadrupole moment (field-independent basis, Debye-Ang):
   XX=             -8.9635   YY=             -6.0104   ZZ=            -15.0037
   XY=             -0.7727   XZ=              0.0000   YZ=              0.0000

 4DQ=-33.7936173\MP4SDQ=-33.7961398\CCSD=-33.7969446\CCSD(T)=-33.800155
 Normal termination of Gaussian 16 at Sun Dec 10 06:28:11 2023.
