 Gaussian 16, Revision A.03,
 Gaussian 16:  ES64L-G16RevA.03 25-Dec-2016

 ------------------
 #p CCSD(T)/CEP-31G
 ------------------

 ------------
 H2O_H2O_3190
 ------------
 Symbolic Z-matrix:
 Charge =  0 Multiplicity = 1

                         Standard orientation:
 ---------------------------------------------------------------------
 Center     Atomic      Atomic             Coordinates (Angstroms)
 Number     Number       Type             X           Y           Z
 ---------------------------------------------------------------------
      1          8           0        0.047530   -2.464693    0.000000
      2          1           0       -0.752978   -3.034512    0.000000
      3          1           0        0.846162   -3.037137    0.000000
      4          8           0        0.047530    2.515303    0.000000
      5          1           0        0.018481    3.497475    0.000000
      6          1           0       -0.872137    2.169296    0.000000
 ---------------------------------------------------------------------

 SCF Done:  E(RHF) =  -33.6507755594     A.U. after   11 cycles
 E2 =    -0.2284658902D+00 EUMP2 =    -0.33879241449583D+02
 CCSD(T)
 CCSD(T)= -0.33896271273D+02

 The electronic state is 1-A'.
 Alpha  occ. eigenvalues --   -1.35186  -1.34562  -0.70816  -0.70171  -0.54864
 Alpha  occ. eigenvalues --   -0.54235  -0.49742  -0.49121
 Alpha virt. eigenvalues --    0.20508   0.21185   0.30763   0.31379   0.80810
 Alpha virt. eigenvalues --    0.81422   0.83609   0.84777   0.87001   0.87860
 Alpha virt. eigenvalues --    1.17673   1.18292   1.22137   1.22768   2.57710

 Mulliken charges:
               1
     1  O   -0.737624
     2  H    0.366461
     3  H    0.371168
     4  O   -0.736603
     5  H    0.364316
     6  H    0.372282
 Sum of Mulliken charges =   0.00000

 Dipole moment (field-independent basis, Debye):
    X=             -2.1858    Y=             -1.1961    Z=              0.0000  Tot=              2.4916
 Quadrupole moment (field-independent basis, Debye-Ang):
   XX=             -9.5048   YY=              9.7421   ZZ=            -14.9876
   XY=             -4.7846   XZ=              0.0000   YZ=              0.0000

 \MP4DQ=-33.8906185\MP4SDQ=-33.8926496\CCSD=-33.8937055\CCSD(T)=-33.896
 Normal termination of Gaussian 16 at Sun Dec 10 06:37:18 2023.
