 Gaussian 16, Revision A.03,
 Gaussian 16:  ES64L-G16RevA.03 25-Dec-2016

 ------------------
 #p CCSD(T)/CEP-31G
 ------------------

 ------------
 H2O_H2O_1061
 ------------
 Symbolic Z-matrix:
 Charge =  0 Multiplicity = 1

                         Standard orientation:
 ---------------------------------------------------------------------
 Center     Atomic      Atomic             Coordinates (Angstroms)
 Number     Number       Type             X           Y           Z
 ---------------------------------------------------------------------
      1          8           0        0.037691   -1.346727    0.000000
      2          1           0       -0.763238   -1.915953    0.000000
      3          1           0        0.835899   -1.919762    0.000000
      4          8           0        0.037691    1.374894    0.000000
      5          1           0        0.264545    2.330951    0.000000
      6          1           0       -0.940263    1.279430    0.000000
 ---------------------------------------------------------------------

 SCF Done:  E(RHF) =  -33.6405668677     A.U. after   11 cycles
 E2 =    -0.2296573720D+00 EUMP2 =    -0.33870224239720D+02
 CCSD(T)
 CCSD(T)= -0.33887598429D+02

 The electronic state is 1-A'.
 Alpha  occ. eigenvalues --   -1.33747  -1.32587  -0.69365  -0.68201  -0.54317
 Alpha  occ. eigenvalues --   -0.50419  -0.48324  -0.46916
 Alpha virt. eigenvalues --    0.20647   0.24041   0.31863   0.32698   0.79003
 Alpha virt. eigenvalues --    0.81871   0.82638   0.87336   0.95611   1.15272
 Alpha virt. eigenvalues --    1.18822   1.22521   1.23564   1.26358   2.58460

 Mulliken charges:
               1
     1  O   -0.719924
     2  H    0.349563
     3  H    0.367925
     4  O   -0.703073
     5  H    0.345611
     6  H    0.359899
 Sum of Mulliken charges =   0.00000

 Dipole moment (field-independent basis, Debye):
    X=             -1.6475    Y=             -0.6995    Z=              0.0000  Tot=              1.7898
 Quadrupole moment (field-independent basis, Debye-Ang):
   XX=             -9.0489   YY=              0.6816   ZZ=            -14.9888
   XY=             -1.6662   XZ=              0.0000   YZ=              0.0000

 \MP4DQ=-33.8817339\MP4SDQ=-33.8838545\CCSD=-33.88493\CCSD(T)=-33.88759
 Normal termination of Gaussian 16 at Sun Dec 10 06:44:36 2023.
