 Gaussian 16, Revision A.03,
 Gaussian 16:  ES64L-G16RevA.03 25-Dec-2016

 ------------------
 #p CCSD(T)/CEP-31G
 ------------------

 ------------
 H2O_H2O_1754
 ------------
 Symbolic Z-matrix:
 Charge =  0 Multiplicity = 1

                         Standard orientation:
 ---------------------------------------------------------------------
 Center     Atomic      Atomic             Coordinates (Angstroms)
 Number     Number       Type             X           Y           Z
 ---------------------------------------------------------------------
      1          8           0        0.014783   -1.732210    0.000000
      2          1           0       -0.785206   -2.302755    0.000000
      3          1           0        0.813935   -2.303929    0.000000
      4          8           0        0.014783    1.736081    0.000000
      5          1           0        0.639847    2.494238    0.000000
      6          1           0       -0.905110    2.081483    0.000000
 ---------------------------------------------------------------------

 SCF Done:  E(RHF) =  -33.6449045516     A.U. after   11 cycles
 E2 =    -0.2289052157D+00 EUMP2 =    -0.33873809767317D+02
 CCSD(T)
 CCSD(T)= -0.33891031752D+02

 The electronic state is 1-A'.
 Alpha  occ. eigenvalues --   -1.33804  -1.33692  -0.69423  -0.69304  -0.53669
 Alpha  occ. eigenvalues --   -0.52468  -0.48334  -0.48114
 Alpha virt. eigenvalues --    0.21069   0.22278   0.31757   0.32037   0.76682
 Alpha virt. eigenvalues --    0.80819   0.83829   0.85253   0.92013   1.00773
 Alpha virt. eigenvalues --    1.18826   1.18982   1.23250   1.23671   2.58392

 Mulliken charges:
               1
     1  O   -0.718406
     2  H    0.357242
     3  H    0.361194
     4  O   -0.717726
     5  H    0.356607
     6  H    0.361089
 Sum of Mulliken charges =  -0.00000

 Dipole moment (field-independent basis, Debye):
    X=             -0.6703    Y=             -0.0958    Z=              0.0000  Tot=              0.6771
 Quadrupole moment (field-independent basis, Debye-Ang):
   XX=             -8.2649   YY=              5.8675   ZZ=            -14.9835
   XY=             -0.7822   XZ=              0.0000   YZ=              0.0000

 MP4DQ=-33.8852964\MP4SDQ=-33.8873649\CCSD=-33.8884264\CCSD(T)=-33.8910
 Normal termination of Gaussian 16 at Sun Dec 10 06:57:29 2023.
