 Gaussian 16, Revision A.03,
 Gaussian 16:  ES64L-G16RevA.03 25-Dec-2016

 ------------------
 #p CCSD(T)/CEP-31G
 ------------------

 -----------
 H2O_H2O_607
 -----------
 Symbolic Z-matrix:
 Charge =  0 Multiplicity = 1

                         Standard orientation:
 ---------------------------------------------------------------------
 Center     Atomic      Atomic             Coordinates (Angstroms)
 Number     Number       Type             X           Y           Z
 ---------------------------------------------------------------------
      1          8           0        0.025272   -1.116355    0.000000
      2          1           0       -0.775404   -1.685937    0.000000
      3          1           0        0.823735   -1.689035    0.000000
      4          8           0        0.025272    1.128037    0.000000
      5          1           0        0.491457    1.993009    0.000000
      6          1           0       -0.944138    1.288507    0.000000
 ---------------------------------------------------------------------

 SCF Done:  E(RHF) =  -33.6202010293     A.U. after   11 cycles
 E2 =    -0.2308773769D+00 EUMP2 =    -0.33851078406194D+02
 CCSD(T)
 CCSD(T)= -0.33868444706D+02

 The electronic state is 1-A'.
 Alpha  occ. eigenvalues --   -1.33031  -1.31403  -0.68480  -0.67237  -0.56192
 Alpha  occ. eigenvalues --   -0.47862  -0.45569  -0.45274
 Alpha virt. eigenvalues --    0.21212   0.25226   0.32576   0.33094   0.79686
 Alpha virt. eigenvalues --    0.80032   0.89776   0.96068   1.00977   1.13745
 Alpha virt. eigenvalues --    1.19757   1.23050   1.24672   1.27768   2.52038

 Mulliken charges:
               1
     1  O   -0.712309
     2  H    0.343187
     3  H    0.363681
     4  O   -0.691035
     5  H    0.349101
     6  H    0.347375
 Sum of Mulliken charges =  -0.00000

 Dipole moment (field-independent basis, Debye):
    X=             -1.0364    Y=             -0.2769    Z=              0.0000  Tot=              1.0728
 Quadrupole moment (field-independent basis, Debye-Ang):
   XX=             -8.6591   YY=             -1.9452   ZZ=            -15.0048
   XY=             -0.7412   XZ=              0.0000   YZ=              0.0000

 P4DQ=-33.862407\MP4SDQ=-33.8645761\CCSD=-33.8656408\CCSD(T)=-33.868444
 Normal termination of Gaussian 16 at Sun Dec 10 06:36:05 2023.
