 Gaussian 16, Revision A.03,
 Gaussian 16:  ES64L-G16RevA.03 25-Dec-2016

 ------------------
 #p CCSD(T)/CEP-31G
 ------------------

 ------------
 H2O_H2O_4630
 ------------
 Symbolic Z-matrix:
 Charge =  0 Multiplicity = 1

                         Standard orientation:
 ---------------------------------------------------------------------
 Center     Atomic      Atomic             Coordinates (Angstroms)
 Number     Number       Type             X           Y           Z
 ---------------------------------------------------------------------
      1          8           0        0.018360   -3.260059    0.000000
      2          1           0       -0.781488   -3.830804    0.000000
      3          1           0        0.817654   -3.831579    0.000000
      4          8           0        0.018360    3.266103    0.000000
      5          1           0        0.592300    4.063662    0.000000
      6          1           0       -0.922225    3.550368    0.000000
 ---------------------------------------------------------------------

 SCF Done:  E(RHF) =  -33.6507850313     A.U. after   11 cycles
 E2 =    -0.2284316962D+00 EUMP2 =    -0.33879216727532D+02
 CCSD(T)
 CCSD(T)= -0.33896245988D+02

 The electronic state is 1-A'.
 Alpha  occ. eigenvalues --   -1.35068  -1.35026  -0.70696  -0.70653  -0.54747
 Alpha  occ. eigenvalues --   -0.54705  -0.49625  -0.49582
 Alpha virt. eigenvalues --    0.20648   0.20691   0.30880   0.30922   0.80929
 Alpha virt. eigenvalues --    0.80971   0.84051   0.84092   0.87126   0.87176
 Alpha virt. eigenvalues --    1.17790   1.17833   1.22256   1.22299   2.57832

 Mulliken charges:
               1
     1  O   -0.737540
     2  H    0.368331
     3  H    0.369210
     4  O   -0.737481
     5  H    0.368108
     6  H    0.369373
 Sum of Mulliken charges =  -0.00000

 Dipole moment (field-independent basis, Debye):
    X=             -0.8477    Y=             -0.1412    Z=              0.0000  Tot=              0.8594
 Quadrupole moment (field-independent basis, Debye-Ang):
   XX=             -8.2553   YY=             21.9027   ZZ=            -14.9870
   XY=             -2.2298   XZ=              0.0000   YZ=              0.0000

 MP4DQ=-33.890594\MP4SDQ=-33.8926244\CCSD=-33.8936817\CCSD(T)=-33.89624
 Normal termination of Gaussian 16 at Sun Dec 10 07:05:00 2023.
