 Gaussian 16, Revision A.03,
 Gaussian 16:  ES64L-G16RevA.03 25-Dec-2016

 ------------------
 #p CCSD(T)/CEP-31G
 ------------------

 ------------
 H2O_H2O_2040
 ------------
 Symbolic Z-matrix:
 Charge =  0 Multiplicity = 1

                         Standard orientation:
 ---------------------------------------------------------------------
 Center     Atomic      Atomic             Coordinates (Angstroms)
 Number     Number       Type             X           Y           Z
 ---------------------------------------------------------------------
      1          8           0        0.047543   -1.853108    0.000000
      2          1           0       -0.753269   -2.422498    0.000000
      3          1           0        0.845869   -2.425978    0.000000
      4          8           0        0.047543    1.903666    0.000000
      5          1           0        0.019020    2.885854    0.000000
      6          1           0       -0.872308    1.558152    0.000000
 ---------------------------------------------------------------------

 SCF Done:  E(RHF) =  -33.6495535451     A.U. after   11 cycles
 E2 =    -0.2287120900D+00 EUMP2 =    -0.33878265635094D+02
 CCSD(T)
 CCSD(T)= -0.33895343368D+02

 The electronic state is 1-A'.
 Alpha  occ. eigenvalues --   -1.34944  -1.33809  -0.70575  -0.69383  -0.54575
 Alpha  occ. eigenvalues --   -0.53370  -0.49484  -0.48355
 Alpha virt. eigenvalues --    0.20212   0.22306   0.30887   0.32072   0.77470
 Alpha virt. eigenvalues --    0.80594   0.82656   0.85854   0.87681   0.97511
 Alpha virt. eigenvalues --    1.17853   1.19329   1.22257   1.23762   2.57430

 Mulliken charges:
               1
     1  O   -0.733475
     2  H    0.361844
     3  H    0.371984
     4  O   -0.729894
     5  H    0.356808
     6  H    0.372733
 Sum of Mulliken charges =  -0.00000

 Dipole moment (field-independent basis, Debye):
    X=             -2.1625    Y=             -1.2307    Z=              0.0000  Tot=              2.4881
 Quadrupole moment (field-independent basis, Debye-Ang):
   XX=             -9.5107   YY=              4.5426   ZZ=            -14.9875
   XY=             -3.4838   XZ=              0.0000   YZ=              0.0000

 5\MP4DQ=-33.8896584\MP4SDQ=-33.8917096\CCSD=-33.8927585\CCSD(T)=-33.89
 Normal termination of Gaussian 16 at Sun Dec 10 07:04:07 2023.
