 Gaussian 16, Revision A.03,
 Gaussian 16:  ES64L-G16RevA.03 25-Dec-2016

 ------------------
 #p CCSD(T)/CEP-31G
 ------------------

 ------------
 H2O_H2O_4677
 ------------
 Symbolic Z-matrix:
 Charge =  0 Multiplicity = 1

                         Standard orientation:
 ---------------------------------------------------------------------
 Center     Atomic      Atomic             Coordinates (Angstroms)
 Number     Number       Type             X           Y           Z
 ---------------------------------------------------------------------
      1          8           0        0.007455   -3.289405    0.000000
      2          1           0       -0.792227   -3.860381    0.000000
      3          1           0        0.806915   -3.860693    0.000000
      4          8           0        0.007455    3.290379    0.000000
      5          1           0        0.725769    3.960850    0.000000
      6          1           0       -0.859734    3.752429    0.000000
 ---------------------------------------------------------------------

 SCF Done:  E(RHF) =  -33.6507486784     A.U. after   10 cycles
 E2 =    -0.2284324953D+00 EUMP2 =    -0.33879181173675D+02
 CCSD(T)
 CCSD(T)= -0.33896211482D+02

 The electronic state is 1-A'.
 Alpha  occ. eigenvalues --   -1.35045  -1.35038  -0.70673  -0.70666  -0.54722
 Alpha  occ. eigenvalues --   -0.54715  -0.49600  -0.49594
 Alpha virt. eigenvalues --    0.20669   0.20676   0.30901   0.30908   0.80953
 Alpha virt. eigenvalues --    0.80960   0.84077   0.84086   0.87152   0.87160
 Alpha virt. eigenvalues --    1.17813   1.17819   1.22279   1.22285   2.57855

 Mulliken charges:
               1
     1  O   -0.737408
     2  H    0.368529
     3  H    0.368879
     4  O   -0.737398
     5  H    0.368452
     6  H    0.368946
 Sum of Mulliken charges =   0.00000

 Dipole moment (field-independent basis, Debye):
    X=             -0.3442    Y=             -0.0228    Z=              0.0000  Tot=              0.3450
 Quadrupole moment (field-independent basis, Debye-Ang):
   XX=             -8.0723   YY=             22.7946   ZZ=            -14.9869
   XY=             -0.9023   XZ=              0.0000   YZ=              0.0000

 P4DQ=-33.8905592\MP4SDQ=-33.8925897\CCSD=-33.8936471\CCSD(T)=-33.89621
 Normal termination of Gaussian 16 at Sun Dec 10 07:05:51 2023.
