 Gaussian 16, Revision A.03,
 Gaussian 16:  ES64L-G16RevA.03 25-Dec-2016

 ------------------
 #p CCSD(T)/CEP-31G
 ------------------

 ------------
 H2O_H2O_4747
 ------------
 Symbolic Z-matrix:
 Charge =  0 Multiplicity = 1

                         Standard orientation:
 ---------------------------------------------------------------------
 Center     Atomic      Atomic             Coordinates (Angstroms)
 Number     Number       Type             X           Y           Z
 ---------------------------------------------------------------------
      1          8           0        0.056698   -3.262680    0.000000
      2          1           0       -0.743713   -3.832634    0.000000
      3          1           0        0.855427   -3.834988    0.000000
      4          8           0        0.056698    3.361830    0.000000
      5          1           0       -0.403907    4.229787    0.000000
      6          1           0       -0.614970    2.644634    0.000000
 ---------------------------------------------------------------------

 SCF Done:  E(RHF) =  -33.6519232354     A.U. after   11 cycles
 E2 =    -0.2283756120D+00 EUMP2 =    -0.33880298847351D+02
 CCSD(T)
 CCSD(T)= -0.33897295066D+02

 The electronic state is 1-A'.
 Alpha  occ. eigenvalues --   -1.35653  -1.34989  -0.71286  -0.70612  -0.55395
 Alpha  occ. eigenvalues --   -0.54723  -0.50226  -0.49563
 Alpha virt. eigenvalues --    0.20126   0.20808   0.30367   0.31044   0.80325
 Alpha virt. eigenvalues --    0.80980   0.83337   0.84010   0.86453   0.87162
 Alpha virt. eigenvalues --    1.17255   1.17916   1.21712   1.22385   2.57268

 Mulliken charges:
               1
     1  O   -0.741612
     2  H    0.369616
     3  H    0.371996
     4  O   -0.741457
     5  H    0.367963
     6  H    0.373494
 Sum of Mulliken charges =  -0.00000

 Dipole moment (field-independent basis, Debye):
    X=             -2.6174    Y=             -2.3164    Z=              0.0000  Tot=              3.4952
 Quadrupole moment (field-independent basis, Debye-Ang):
   XX=            -10.1288   YY=              9.5698   ZZ=            -14.9889
   XY=             -8.7242   XZ=              0.0000   YZ=              0.0000

 MP4DQ=-33.891652\MP4SDQ=-33.8936793\CCSD=-33.8947344\CCSD(T)=-33.89729
 Normal termination of Gaussian 16 at Sun Dec 10 07:07:08 2023.
