 Gaussian 16, Revision A.03,
 Gaussian 16:  ES64L-G16RevA.03 25-Dec-2016

 ------------------
 #p CCSD(T)/CEP-31G
 ------------------

 ------------
 H2O_H2O_4467
 ------------
 Symbolic Z-matrix:
 Charge =  0 Multiplicity = 1

                         Standard orientation:
 ---------------------------------------------------------------------
 Center     Atomic      Atomic             Coordinates (Angstroms)
 Number     Number       Type             X           Y           Z
 ---------------------------------------------------------------------
      1          8           0        0.051268   -3.135751    0.000000
      2          1           0       -0.749098   -3.705769    0.000000
      3          1           0        0.850043   -3.707995    0.000000
      4          8           0        0.051268    3.199313    0.000000
      5          1           0       -0.105973    4.169252    0.000000
      6          1           0       -0.815252    2.736010    0.000000
 ---------------------------------------------------------------------

 SCF Done:  E(RHF) =  -33.6514715441     A.U. after   11 cycles
 E2 =    -0.2284029041D+00 EUMP2 =    -0.33879874448192D+02
 CCSD(T)
 CCSD(T)= -0.33896883784D+02

 The electronic state is 1-A'.
 Alpha  occ. eigenvalues --   -1.35426  -1.34953  -0.71057  -0.70574  -0.55143
 Alpha  occ. eigenvalues --   -0.54666  -0.49993  -0.49520
 Alpha virt. eigenvalues --    0.20328   0.20812   0.30566   0.31040   0.80560
 Alpha virt. eigenvalues --    0.81026   0.83614   0.84087   0.86715   0.87240
 Alpha virt. eigenvalues --    1.17462   1.17932   1.21923   1.22399   2.57487

 Mulliken charges:
               1
     1  O   -0.740005
     2  H    0.368720
     3  H    0.371284
     4  O   -0.739678
     5  H    0.367413
     6  H    0.372265
 Sum of Mulliken charges =  -0.00000

 Dipole moment (field-independent basis, Debye):
    X=             -2.3663    Y=             -1.4868    Z=              0.0000  Tot=              2.7946
 Quadrupole moment (field-independent basis, Debye-Ang):
   XX=             -9.7449   YY=             13.6959   ZZ=            -14.9882
   XY=             -6.9571   XZ=              0.0000   YZ=              0.0000

 \MP4DQ=-33.8912372\MP4SDQ=-33.8932657\CCSD=-33.8943216\CCSD(T)=-33.896
 Normal termination of Gaussian 16 at Sun Dec 10 07:00:49 2023.
