 Gaussian 16, Revision A.03,
 Gaussian 16:  ES64L-G16RevA.03 25-Dec-2016

 ------------------
 #p CCSD(T)/CEP-31G
 ------------------

 ------------
 H2O_H2O_3637
 ------------
 Symbolic Z-matrix:
 Charge =  0 Multiplicity = 1

                         Standard orientation:
 ---------------------------------------------------------------------
 Center     Atomic      Atomic             Coordinates (Angstroms)
 Number     Number       Type             X           Y           Z
 ---------------------------------------------------------------------
      1          8           0        0.040406   -2.713392    0.000000
      2          1           0       -0.759891   -3.283505    0.000000
      3          1           0        0.839249   -3.285541    0.000000
      4          8           0        0.040406    2.746745    0.000000
      5          1           0        0.203172    3.715771    0.000000
      6          1           0       -0.929032    2.586448    0.000000
 ---------------------------------------------------------------------

 SCF Done:  E(RHF) =  -33.6506414274     A.U. after   11 cycles
 E2 =    -0.2284552355D+00 EUMP2 =    -0.33879096662937D+02
 CCSD(T)
 CCSD(T)= -0.33896130091D+02

 The electronic state is 1-A'.
 Alpha  occ. eigenvalues --   -1.35093  -1.34754  -0.70722  -0.70372  -0.54764
 Alpha  occ. eigenvalues --   -0.54423  -0.49647  -0.49309
 Alpha virt. eigenvalues --    0.20613   0.20961   0.30848   0.31180   0.80906
 Alpha virt. eigenvalues --    0.81239   0.83991   0.84421   0.87107   0.87521
 Alpha virt. eigenvalues --    1.17760   1.18095   1.22228   1.22565   2.57804

 Mulliken charges:
               1
     1  O   -0.737097
     2  H    0.366981
     3  H    0.370116
     4  O   -0.736542
     5  H    0.365818
     6  H    0.370724
 Sum of Mulliken charges =   0.00000

 Dipole moment (field-independent basis, Debye):
    X=             -1.8614    Y=             -0.7843    Z=              0.0000  Tot=              2.0199
 Quadrupole moment (field-independent basis, Debye-Ang):
   XX=             -9.1001   YY=             13.6103   ZZ=            -14.9871
   XY=             -4.2832   XZ=              0.0000   YZ=              0.0000

 MP4DQ=-33.8904768\MP4SDQ=-33.8925078\CCSD=-33.8935647\CCSD(T)=-33.8961
 Normal termination of Gaussian 16 at Sun Dec 10 06:45:23 2023.
