 Gaussian 16, Revision A.03,
 Gaussian 16:  ES64L-G16RevA.03 25-Dec-2016

 ------------------
 #p CCSD(T)/CEP-31G
 ------------------

 ------------
 H2O_H2O_4982
 ------------
 Symbolic Z-matrix:
 Charge =  0 Multiplicity = 1

                         Standard orientation:
 ---------------------------------------------------------------------
 Center     Atomic      Atomic             Coordinates (Angstroms)
 Number     Number       Type             X           Y           Z
 ---------------------------------------------------------------------
      1          8           0        0.025264   -3.443105    0.000000
      2          1           0       -0.774667   -4.013732    0.000000
      3          1           0        0.824475   -4.014741    0.000000
      4          8           0        0.025264    3.454853    0.000000
      5          1           0        0.490318    4.320434    0.000000
      6          1           0       -0.944355    3.614055    0.000000
 ---------------------------------------------------------------------

 SCF Done:  E(RHF) =  -33.6510051027     A.U. after   11 cycles
 E2 =    -0.2284195805D+00 EUMP2 =    -0.33879424683167D+02
 CCSD(T)
 CCSD(T)= -0.33896447663D+02

 The electronic state is 1-A'.
 Alpha  occ. eigenvalues --   -1.35159  -1.35085  -0.70788  -0.70712  -0.54850
 Alpha  occ. eigenvalues --   -0.54776  -0.49718  -0.49644
 Alpha virt. eigenvalues --    0.20570   0.20644   0.30803   0.30876   0.80835
 Alpha virt. eigenvalues --    0.80908   0.83935   0.84007   0.87019   0.87104
 Alpha virt. eigenvalues --    1.17710   1.17783   1.22174   1.22247   2.57746

 Mulliken charges:
               1
     1  O   -0.738318
     2  H    0.368643
     3  H    0.369675
     4  O   -0.738233
     5  H    0.368344
     6  H    0.369889
 Sum of Mulliken charges =   0.00000

 Dipole moment (field-independent basis, Debye):
    X=             -1.1670    Y=             -0.2741    Z=              0.0000  Tot=              1.1988
 Quadrupole moment (field-independent basis, Debye-Ang):
   XX=             -8.4489   YY=             23.0924   ZZ=            -14.9873
   XY=             -3.3295   XZ=              0.0000   YZ=              0.0000

 \MP4DQ=-33.8907974\MP4SDQ=-33.8928272\CCSD=-33.8938841\CCSD(T)=-33.896
 Normal termination of Gaussian 16 at Sun Dec 10 07:11:31 2023.
