 Gaussian 16, Revision A.03,
 Gaussian 16:  ES64L-G16RevA.03 25-Dec-2016

 ------------------
 #p CCSD(T)/CEP-31G
 ------------------

 -----------
 H2O_H2O_422
 -----------
 Symbolic Z-matrix:
 Charge =  0 Multiplicity = 1

                         Standard orientation:
 ---------------------------------------------------------------------
 Center     Atomic      Atomic             Coordinates (Angstroms)
 Number     Number       Type             X           Y           Z
 ---------------------------------------------------------------------
      1          8           0        0.056863   -0.962685    0.000000
      2          1           0       -0.745449   -1.529959    0.000000
      3          1           0        0.853674   -1.537662    0.000000
      4          8           0        0.056863    1.061455    0.000000
      5          1           0       -0.400835    1.930949    0.000000
      6          1           0       -0.617199    0.346511    0.000000
 ---------------------------------------------------------------------

 SCF Done:  E(RHF) =  -33.5994712390     A.U. after   11 cycles
 E2 =    -0.2320678797D+00 EUMP2 =    -0.33831539118622D+02
 CCSD(T)
 CCSD(T)= -0.33847846664D+02

 The electronic state is 1-A'.
 Alpha  occ. eigenvalues --   -1.38678  -1.29519  -0.74881  -0.70491  -0.52739
 Alpha  occ. eigenvalues --   -0.51167  -0.49399  -0.43934
 Alpha virt. eigenvalues --    0.18868   0.28704   0.28809   0.37119   0.77469
 Alpha virt. eigenvalues --    0.84692   0.90189   0.94348   0.99243   1.14944
 Alpha virt. eigenvalues --    1.18935   1.21616   1.29921   1.31900   2.77725

 Mulliken charges:
               1
     1  O   -0.797243
     2  H    0.368039
     3  H    0.432113
     4  O   -0.689880
     5  H    0.308664
     6  H    0.378308
 Sum of Mulliken charges =   0.00000

 Dipole moment (field-independent basis, Debye):
    X=             -2.2349    Y=             -2.7357    Z=              0.0000  Tot=              3.5325
 Quadrupole moment (field-independent basis, Debye-Ang):
   XX=            -10.0804   YY=             -6.0741   ZZ=            -14.9854
   XY=             -2.7079   XZ=              0.0000   YZ=              0.0000

 P4DQ=-33.8415485\MP4SDQ=-33.8439187\CCSD=-33.8447379\CCSD(T)=-33.84784
 Normal termination of Gaussian 16 at Sun Dec 10 06:32:39 2023.
