 Gaussian 16, Revision A.03,
 Gaussian 16:  ES64L-G16RevA.03 25-Dec-2016

 ------------------
 #p CCSD(T)/CEP-31G
 ------------------

 ------------
 H2O_H2O_4344
 ------------
 Symbolic Z-matrix:
 Charge =  0 Multiplicity = 1

                         Standard orientation:
 ---------------------------------------------------------------------
 Center     Atomic      Atomic             Coordinates (Angstroms)
 Number     Number       Type             X           Y           Z
 ---------------------------------------------------------------------
      1          8           0        0.054140   -3.061785    0.000000
      2          1           0       -0.746287   -3.631716    0.000000
      3          1           0        0.852853   -3.634117    0.000000
      4          8           0        0.054140    3.139132    0.000000
      5          1           0       -0.228256    4.080280    0.000000
      6          1           0       -0.744556    2.566777    0.000000
 ---------------------------------------------------------------------

 SCF Done:  E(RHF) =  -33.6516482909     A.U. after   11 cycles
 E2 =    -0.2283950989D+00 EUMP2 =    -0.33880043389847D+02
 CCSD(T)
 CCSD(T)= -0.33897047545D+02

 The electronic state is 1-A'.
 Alpha  occ. eigenvalues --   -1.35513  -1.34913  -0.71146  -0.70533  -0.55240
 Alpha  occ. eigenvalues --   -0.54634  -0.50083  -0.49483
 Alpha virt. eigenvalues --    0.20250   0.20866   0.30489   0.31095   0.80470
 Alpha virt. eigenvalues --    0.81060   0.83506   0.84110   0.86614   0.87273
 Alpha virt. eigenvalues --    1.17383   1.17979   1.21842   1.22448   2.57403

 Mulliken charges:
               1
     1  O   -0.740638
     2  H    0.368904
     3  H    0.371734
     4  O   -0.740310
     5  H    0.367262
     6  H    0.373048
 Sum of Mulliken charges =   0.00000

 Dipole moment (field-independent basis, Debye):
    X=             -2.4982    Y=             -1.8105    Z=              0.0000  Tot=              3.0853
 Quadrupole moment (field-independent basis, Debye-Ang):
   XX=             -9.9421   YY=             11.3317   ZZ=            -14.9885
   XY=             -7.4223   XZ=              0.0000   YZ=              0.0000

 P4DQ=-33.8914023\MP4SDQ=-33.8934304\CCSD=-33.8944858\CCSD(T)=-33.89704
 Normal termination of Gaussian 16 at Sun Dec 10 06:58:14 2023.
