 Gaussian 16, Revision A.03,
 Gaussian 16:  ES64L-G16RevA.03 25-Dec-2016

 ------------------
 #p CCSD(T)/CEP-31G
 ------------------

 ------------
 H2O_H2O_2350
 ------------
 Symbolic Z-matrix:
 Charge =  0 Multiplicity = 1

                         Standard orientation:
 ---------------------------------------------------------------------
 Center     Atomic      Atomic             Coordinates (Angstroms)
 Number     Number       Type             X           Y           Z
 ---------------------------------------------------------------------
      1          8           0        0.000000   -0.000000    2.053415
      2          1           0        0.000000    0.799571    2.624547
      3          1           0       -0.000000   -0.799571    2.624547
      4          8           0        0.000000   -0.000000   -2.053415
      5          1           0       -0.000000   -0.799571   -2.624547
      6          1           0        0.000000    0.799571   -2.624547
 ---------------------------------------------------------------------

 SCF Done:  E(RHF) =  -33.6474755587     A.U. after   10 cycles
 E2 =    -0.2286580335D+00 EUMP2 =    -0.33876133592258D+02
 CCSD(T)
 CCSD(T)= -0.33893259975D+02

 The electronic state is 1-AG.
 Alpha  occ. eigenvalues --   -1.34211  -1.34202  -0.69833  -0.69822  -0.53866
 Alpha  occ. eigenvalues --   -0.53496  -0.48739  -0.48691
 Alpha virt. eigenvalues --    0.21073   0.21586   0.31486   0.31634   0.80683
 Alpha virt. eigenvalues --    0.81439   0.82222   0.87277   0.89105   0.90550
 Alpha virt. eigenvalues --    1.18516   1.18519   1.22913   1.23128   2.58334

 Mulliken charges:
               1
     1  O   -0.726232
     2  H    0.363116
     3  H    0.363116
     4  O   -0.726232
     5  H    0.363116
     6  H    0.363116
 Sum of Mulliken charges =  -0.00000

 Dipole moment (field-independent basis, Debye):
    X=             -0.0000    Y=              0.0000    Z=             -0.0000  Tot=              0.0000
 Quadrupole moment (field-independent basis, Debye-Ang):
   XX=            -14.9842   YY=             -8.0879   ZZ=              9.5933
   XY=              0.0000   XZ=              0.0000   YZ=             -0.0000

 -33.8875749\MP4SDQ=-33.8896189\CCSD=-33.8906789\CCSD(T)=-33.89326\RMSD
 Normal termination of Gaussian 16 at Sun Dec 10 07:09:42 2023.
