 Gaussian 16, Revision A.03,
 Gaussian 16:  ES64L-G16RevA.03 25-Dec-2016

 ------------------
 #p CCSD(T)/CEP-31G
 ------------------

 ------------
 H2O_H2O_1498
 ------------
 Symbolic Z-matrix:
 Charge =  0 Multiplicity = 1

                         Standard orientation:
 ---------------------------------------------------------------------
 Center     Atomic      Atomic             Coordinates (Angstroms)
 Number     Number       Type             X           Y           Z
 ---------------------------------------------------------------------
      1          8           0        0.057156   -1.530269    0.000000
      2          1           0       -0.744181   -2.098921    0.000000
      3          1           0        0.854954   -2.103876    0.000000
      4          8           0        0.057156    1.636671    0.000000
      5          1           0       -0.457869    2.473484    0.000000
      6          1           0       -0.567401    0.878097    0.000000
 ---------------------------------------------------------------------

 SCF Done:  E(RHF) =  -33.6542935693     A.U. after   11 cycles
 E2 =    -0.2290120615D+00 EUMP2 =    -0.33883305630784D+02
 CCSD(T)
 CCSD(T)= -0.33900298222D+02

 The electronic state is 1-A'.
 Alpha  occ. eigenvalues --   -1.36291  -1.32734  -0.71940  -0.68367  -0.56155
 Alpha  occ. eigenvalues --   -0.52521  -0.50898  -0.47340
 Alpha virt. eigenvalues --    0.18983   0.24564   0.29804   0.34508   0.76732
 Alpha virt. eigenvalues --    0.78382   0.84570   0.86446   0.89328   1.06167
 Alpha virt. eigenvalues --    1.16576   1.20300   1.21651   1.29316   2.53370

 Mulliken charges:
               1
     1  O   -0.753022
     2  H    0.367226
     3  H    0.387505
     4  O   -0.745975
     5  H    0.349451
     6  H    0.394815
 Sum of Mulliken charges =  -0.00000

 Dipole moment (field-independent basis, Debye):
    X=             -2.5660    Y=             -2.6840    Z=              0.0000  Tot=              3.7132
 Quadrupole moment (field-independent basis, Debye-Ang):
   XX=            -10.1271   YY=             -1.6763   ZZ=            -14.9976
   XY=             -4.4361   XZ=              0.0000   YZ=              0.0000

 9\MP4DQ=-33.8945435\MP4SDQ=-33.8966346\CCSD=-33.897662\CCSD(T)=-33.900
 Normal termination of Gaussian 16 at Sun Dec 10 06:52:44 2023.
