 Gaussian 16, Revision A.03,
 Gaussian 16:  ES64L-G16RevA.03 25-Dec-2016

 ------------------
 #p CCSD(T)/CEP-31G
 ------------------

 -----------
 H2O_H2O_467
 -----------
 Symbolic Z-matrix:
 Charge =  0 Multiplicity = 1

                         Standard orientation:
 ---------------------------------------------------------------------
 Center     Atomic      Atomic             Coordinates (Angstroms)
 Number     Number       Type             X           Y           Z
 ---------------------------------------------------------------------
      1          8           0        0.051358   -1.008558    0.000000
      2          1           0       -0.750627   -1.576295    0.000000
      3          1           0        0.848501   -1.583074    0.000000
      4          8           0        0.051358    1.071828    0.000000
      5          1           0       -0.103121    2.042211    0.000000
      6          1           0       -0.816478    0.610994    0.000000
 ---------------------------------------------------------------------

 SCF Done:  E(RHF) =  -33.6130629921     A.U. after   11 cycles
 E2 =    -0.2319214601D+00 EUMP2 =    -0.33844984452216D+02
 CCSD(T)
 CCSD(T)= -0.33862132216D+02

 The electronic state is 1-A'.
 Alpha  occ. eigenvalues --   -1.35618  -1.30684  -0.71421  -0.68375  -0.54664
 Alpha  occ. eigenvalues --   -0.50197  -0.47403  -0.44927
 Alpha virt. eigenvalues --    0.19804   0.27273   0.30752   0.34093   0.78715
 Alpha virt. eigenvalues --    0.84772   0.89833   0.96178   0.99295   1.14696
 Alpha virt. eigenvalues --    1.19059   1.23277   1.25873   1.32157   2.60339

 Mulliken charges:
               1
     1  O   -0.770508
     2  H    0.353566
     3  H    0.398174
     4  O   -0.671429
     5  H    0.326636
     6  H    0.363562
 Sum of Mulliken charges =   0.00000

 Dipole moment (field-independent basis, Debye):
    X=             -2.0551    Y=             -1.5970    Z=              0.0000  Tot=              2.6027
 Quadrupole moment (field-independent basis, Debye-Ang):
   XX=             -9.7777   YY=             -4.3637   ZZ=            -14.9942
   XY=             -2.0378   XZ=              0.0000   YZ=              0.0000

 P4DQ=-33.8559382\MP4SDQ=-33.8582356\CCSD=-33.8591935\CCSD(T)=-33.86213
 Normal termination of Gaussian 16 at Sun Dec 10 06:33:30 2023.
