 Gaussian 16, Revision A.03,
 Gaussian 16:  ES64L-G16RevA.03 25-Dec-2016

 ------------------
 #p CCSD(T)/CEP-31G
 ------------------

 ------------
 H2O_H2O_1078
 ------------
 Symbolic Z-matrix:
 Charge =  0 Multiplicity = 1

                         Standard orientation:
 ---------------------------------------------------------------------
 Center     Atomic      Atomic             Coordinates (Angstroms)
 Number     Number       Type             X           Y           Z
 ---------------------------------------------------------------------
      1          8           0        0.011143   -1.374139    0.000000
      2          1           0       -0.788826   -1.944713    0.000000
      3          1           0        0.810316   -1.945829    0.000000
      4          8           0        0.011143    1.376319    0.000000
      5          1           0        0.684427    2.091995    0.000000
      6          1           0       -0.884205    1.781112    0.000000
 ---------------------------------------------------------------------

 SCF Done:  E(RHF) =  -33.6368645489     A.U. after   11 cycles
 E2 =    -0.2295387930D+00 EUMP2 =    -0.33866403341902D+02
 CCSD(T)
 CCSD(T)= -0.33883822322D+02

 The electronic state is 1-A'.
 Alpha  occ. eigenvalues --   -1.33017  -1.32640  -0.68592  -0.68283  -0.54053
 Alpha  occ. eigenvalues --   -0.49595  -0.47655  -0.46788
 Alpha virt. eigenvalues --    0.21366   0.23526   0.32366   0.32691   0.79559
 Alpha virt. eigenvalues --    0.80642   0.82641   0.87453   1.01239   1.09777
 Alpha virt. eigenvalues --    1.19433   1.20613   1.24330   1.24441   2.58204

 Mulliken charges:
               1
     1  O   -0.704349
     2  H    0.349264
     3  H    0.354834
     4  O   -0.702822
     5  H    0.350150
     6  H    0.352922
 Sum of Mulliken charges =   0.00000

 Dipole moment (field-independent basis, Debye):
    X=             -0.4886    Y=             -0.0537    Z=              0.0000  Tot=              0.4916
 Quadrupole moment (field-independent basis, Debye-Ang):
   XX=             -8.2868   YY=              1.7009   ZZ=            -14.9882
   XY=             -0.4157   XZ=              0.0000   YZ=              0.0000

 MP4DQ=-33.8779651\MP4SDQ=-33.8800615\CCSD=-33.8811523\CCSD(T)=-33.8838
 Normal termination of Gaussian 16 at Sun Dec 10 06:44:55 2023.
