 Gaussian 16, Revision A.03,
 Gaussian 16:  ES64L-G16RevA.03 25-Dec-2016

 ------------------
 #p CCSD(T)/CEP-31G
 ------------------

 ------------
 H2O_H2O_2163
 ------------
 Symbolic Z-matrix:
 Charge =  0 Multiplicity = 1

                         Standard orientation:
 ---------------------------------------------------------------------
 Center     Atomic      Atomic             Coordinates (Angstroms)
 Number     Number       Type             X           Y           Z
 ---------------------------------------------------------------------
      1          8           0        0.042977   -1.926002    0.000000
      2          1           0       -0.757678   -2.495613    0.000000
      3          1           0        0.841461   -2.498652    0.000000
      4          8           0        0.042977    1.964750    0.000000
      5          1           0        0.142629    2.942286    0.000000
      6          1           0       -0.914042    1.741991    0.000000
 ---------------------------------------------------------------------

 SCF Done:  E(RHF) =  -33.6490515609     A.U. after   11 cycles
 E2 =    -0.2286784468D+00 EUMP2 =    -0.33877730007724D+02
 CCSD(T)
 CCSD(T)= -0.33894816526D+02

 The electronic state is 1-A'.
 Alpha  occ. eigenvalues --   -1.34764  -1.33961  -0.70392  -0.69548  -0.54373
 Alpha  occ. eigenvalues --   -0.53489  -0.49297  -0.48497
 Alpha virt. eigenvalues --    0.20487   0.22003   0.31066   0.31876   0.78547
 Alpha virt. eigenvalues --    0.80888   0.82406   0.85969   0.87881   0.95296
 Alpha virt. eigenvalues --    1.18020   1.18955   1.22459   1.23404   2.57838

 Mulliken charges:
               1
     1  O   -0.731754
     2  H    0.361782
     3  H    0.370165
     4  O   -0.728961
     5  H    0.358237
     6  H    0.370531
 Sum of Mulliken charges =  -0.00000

 Dipole moment (field-independent basis, Debye):
    X=             -1.9589    Y=             -0.9383    Z=              0.0000  Tot=              2.1720
 Quadrupole moment (field-independent basis, Debye-Ang):
   XX=             -9.2507   YY=              5.9582   ZZ=            -14.9865
   XY=             -3.1180   XZ=              0.0000   YZ=              0.0000

 P4DQ=-33.8891358\MP4SDQ=-33.8911824\CCSD=-33.8922348\CCSD(T)=-33.89481
 Normal termination of Gaussian 16 at Sun Dec 10 07:06:20 2023.
