 Gaussian 16, Revision A.03,
 Gaussian 16:  ES64L-G16RevA.03 25-Dec-2016

 ------------------
 #p CCSD(T)/CEP-31G
 ------------------

 -----------
 H2O_H2O_458
 -----------
 Symbolic Z-matrix:
 Charge =  0 Multiplicity = 1

                         Standard orientation:
 ---------------------------------------------------------------------
 Center     Atomic      Atomic             Coordinates (Angstroms)
 Number     Number       Type             X           Y           Z
 ---------------------------------------------------------------------
      1          8           0        0.028575   -1.034685    0.000000
      2          1           0       -0.772341   -1.603929    0.000000
      3          1           0        0.826796   -1.607702    0.000000
      4          8           0        0.028575    1.049854    0.000000
      5          1           0        0.437567    1.943292    0.000000
      6          1           0       -0.949214    1.146989    0.000000
 ---------------------------------------------------------------------

 SCF Done:  E(RHF) =  -33.6065556752     A.U. after   11 cycles
 E2 =    -0.2317458783D+00 EUMP2 =    -0.33838301553570D+02
 CCSD(T)
 CCSD(T)= -0.33855578419D+02

 The electronic state is 1-A'.
 Alpha  occ. eigenvalues --   -1.33421  -1.30854  -0.68784  -0.66958  -0.57421
 Alpha  occ. eigenvalues --   -0.48312  -0.44635  -0.43550
 Alpha virt. eigenvalues --    0.21094   0.25980   0.32425   0.33247   0.80169
 Alpha virt. eigenvalues --    0.80920   0.90073   0.98336   0.99766   1.16332
 Alpha virt. eigenvalues --    1.19743   1.23441   1.25450   1.29283   2.50395

 Mulliken charges:
               1
     1  O   -0.720132
     2  H    0.341986
     3  H    0.368928
     4  O   -0.685148
     5  H    0.349410
     6  H    0.344956
 Sum of Mulliken charges =  -0.00000

 Dipole moment (field-independent basis, Debye):
    X=             -1.1360    Y=             -0.3593    Z=              0.0000  Tot=              1.1915
 Quadrupole moment (field-independent basis, Debye-Ang):
   XX=             -8.7891   YY=             -3.2352   ZZ=            -15.0103
   XY=             -0.7789   XZ=              0.0000   YZ=              0.0000

 4DQ=-33.8494288\MP4SDQ=-33.8516666\CCSD=-33.8526868\CCSD(T)=-33.855578
 Normal termination of Gaussian 16 at Sun Dec 10 06:33:20 2023.
