 Gaussian 16, Revision A.03,
 Gaussian 16:  ES64L-G16RevA.03 25-Dec-2016

 ------------------
 #p CCSD(T)/CEP-31G
 ------------------

 ------------
 H2O_H2O_4693
 ------------
 Symbolic Z-matrix:
 Charge =  0 Multiplicity = 1

                         Standard orientation:
 ---------------------------------------------------------------------
 Center     Atomic      Atomic             Coordinates (Angstroms)
 Number     Number       Type             X           Y           Z
 ---------------------------------------------------------------------
      1          8           0        0.052814   -3.251718    0.000000
      2          1           0       -0.747545   -3.821745    0.000000
      3          1           0        0.851595   -3.823955    0.000000
      4          8           0        0.052814    3.322086    0.000000
      5          1           0       -0.167536    4.279662    0.000000
      6          1           0       -0.781544    2.803094    0.000000
 ---------------------------------------------------------------------

 SCF Done:  E(RHF) =  -33.6515880539     A.U. after   11 cycles
 E2 =    -0.2283946511D+00 EUMP2 =    -0.33879982704988D+02
 CCSD(T)
 CCSD(T)= -0.33896988688D+02

 The electronic state is 1-A'.
 Alpha  occ. eigenvalues --   -1.35480  -1.34997  -0.71112  -0.70620  -0.55204
 Alpha  occ. eigenvalues --   -0.54716  -0.50049  -0.49566
 Alpha virt. eigenvalues --    0.20280   0.20775   0.30518   0.31005   0.80503
 Alpha virt. eigenvalues --    0.80980   0.83547   0.84032   0.86651   0.87181
 Alpha virt. eigenvalues --    1.17413   1.17894   1.21872   1.22360   2.57435

 Mulliken charges:
               1
     1  O   -0.740416
     2  H    0.369027
     3  H    0.371389
     4  O   -0.740151
     5  H    0.367750
     6  H    0.372402
 Sum of Mulliken charges =   0.00000

 Dipole moment (field-independent basis, Debye):
    X=             -2.4384    Y=             -1.6442    Z=              0.0000  Tot=              2.9410
 Quadrupole moment (field-independent basis, Debye-Ang):
   XX=             -9.8503   YY=             13.6552   ZZ=            -14.9883
   XY=             -7.5723   XZ=              0.0000   YZ=              0.0000

 P4DQ=-33.891343\MP4SDQ=-33.8933712\CCSD=-33.8944269\CCSD(T)=-33.896988
 Normal termination of Gaussian 16 at Sun Dec 10 07:06:09 2023.
