 Gaussian 16, Revision A.03,
 Gaussian 16:  ES64L-G16RevA.03 25-Dec-2016

 ------------------
 #p CCSD(T)/CEP-31G
 ------------------

 -----------
 H2O_H2O_219
 -----------
 Symbolic Z-matrix:
 Charge =  0 Multiplicity = 1

                         Standard orientation:
 ---------------------------------------------------------------------
 Center     Atomic      Atomic             Coordinates (Angstroms)
 Number     Number       Type             X           Y           Z
 ---------------------------------------------------------------------
      1          8           0        0.054281   -0.868165    0.000000
      2          1           0       -0.748213   -1.435184    0.000000
      3          1           0        0.850908   -1.443396    0.000000
      4          8           0        0.054281    0.945119    0.000000
      5          1           0       -0.224694    1.887285    0.000000
      6          1           0       -0.746490    0.375669    0.000000
 ---------------------------------------------------------------------

 SCF Done:  E(RHF) =  -33.5467828903     A.U. after   11 cycles
 E2 =    -0.2342450498D+00 EUMP2 =    -0.33781027940029D+02
 CCSD(T)
 CCSD(T)= -0.33797689041D+02

 The electronic state is 1-A'.
 Alpha  occ. eigenvalues --   -1.38987  -1.29209  -0.75332  -0.70465  -0.52787
 Alpha  occ. eigenvalues --   -0.52674  -0.44125  -0.43561
 Alpha virt. eigenvalues --    0.19384   0.29181   0.29590   0.34859   0.79304
 Alpha virt. eigenvalues --    0.83901   0.89851   0.95262   0.98360   1.17254
 Alpha virt. eigenvalues --    1.20593   1.25075   1.30444   1.34886   2.67575

 Mulliken charges:
               1
     1  O   -0.792868
     2  H    0.355406
     3  H    0.421011
     4  O   -0.649706
     5  H    0.300944
     6  H    0.365214
 Sum of Mulliken charges =  -0.00000

 Dipole moment (field-independent basis, Debye):
    X=             -2.0202    Y=             -2.0467    Z=              0.0000  Tot=              2.8758
 Quadrupole moment (field-independent basis, Debye-Ang):
   XX=             -9.9472   YY=             -6.8419   ZZ=            -14.9566
   XY=             -1.9555   XZ=              0.0000   YZ=              0.0000

 MP4DQ=-33.7911227\MP4SDQ=-33.7936588\CCSD=-33.7944076\CCSD(T)=-33.7976
 Normal termination of Gaussian 16 at Sun Dec 10 06:28:50 2023.
