 Gaussian 16, Revision A.03,
 Gaussian 16:  ES64L-G16RevA.03 25-Dec-2016

 ------------------
 #p CCSD(T)/CEP-31G
 ------------------

 ------------
 H2O_H2O_4850
 ------------
 Symbolic Z-matrix:
 Charge =  0 Multiplicity = 1

                         Standard orientation:
 ---------------------------------------------------------------------
 Center     Atomic      Atomic             Coordinates (Angstroms)
 Number     Number       Type             X           Y           Z
 ---------------------------------------------------------------------
      1          8           0        0.000000   -0.000000    3.383006
      2          1           0        0.000000    0.799571    3.954138
      3          1           0       -0.000000   -0.799571    3.954138
      4          8           0        0.000000   -0.000000   -3.383006
      5          1           0       -0.000000   -0.799571   -3.954138
      6          1           0        0.000000    0.799571   -3.954138
 ---------------------------------------------------------------------

 SCF Done:  E(RHF) =  -33.6508247350     A.U. after   10 cycles
 E2 =    -0.2284277413D+00 EUMP2 =    -0.33879252476268D+02
 CCSD(T)
 CCSD(T)= -0.33896280624D+02

 The electronic state is 1-AG.
 Alpha  occ. eigenvalues --   -1.35070  -1.35070  -0.70698  -0.70698  -0.54751
 Alpha  occ. eigenvalues --   -0.54751  -0.49626  -0.49626
 Alpha virt. eigenvalues --    0.20648   0.20649   0.30881   0.30881   0.80927
 Alpha virt. eigenvalues --    0.80927   0.84043   0.84046   0.87122   0.87122
 Alpha virt. eigenvalues --    1.17791   1.17791   1.22256   1.22256   2.57831

 Mulliken charges:
               1
     1  O   -0.737673
     2  H    0.368837
     3  H    0.368837
     4  O   -0.737673
     5  H    0.368837
     6  H    0.368837
 Sum of Mulliken charges =   0.00000

 Dipole moment (field-independent basis, Debye):
    X=             -0.0000    Y=              0.0000    Z=             -0.0000  Tot=              0.0000
 Quadrupole moment (field-independent basis, Debye-Ang):
   XX=            -14.9870   YY=             -8.0348   ZZ=             23.9053
   XY=              0.0000   XZ=              0.0000   YZ=             -0.0000

 3.890629\MP4SDQ=-33.8926592\CCSD=-33.8937165\CCSD(T)=-33.8962806\RMSD=
 Normal termination of Gaussian 16 at Sun Dec 10 07:09:04 2023.
