 Gaussian 16, Revision A.03,
 Gaussian 16:  ES64L-G16RevA.03 25-Dec-2016

 ------------------
 #p CCSD(T)/CEP-31G
 ------------------

 ------------
 H2O_H2O_4686
 ------------
 Symbolic Z-matrix:
 Charge =  0 Multiplicity = 1

                         Standard orientation:
 ---------------------------------------------------------------------
 Center     Atomic      Atomic             Coordinates (Angstroms)
 Number     Number       Type             X           Y           Z
 ---------------------------------------------------------------------
      1          8           0        0.037671   -3.274580    0.000000
      2          1           0       -0.762462   -3.844923    0.000000
      3          1           0        0.836679   -3.846499    0.000000
      4          8           0        0.037671    3.302852    0.000000
      5          1           0        0.263190    4.259224    0.000000
      6          1           0       -0.940149    3.206021    0.000000
 ---------------------------------------------------------------------

 SCF Done:  E(RHF) =  -33.6510796243     A.U. after   11 cycles
 E2 =    -0.2284192377D+00 EUMP2 =    -0.33879498862022D+02
 CCSD(T)
 CCSD(T)= -0.33896519638D+02

 The electronic state is 1-A'.
 Alpha  occ. eigenvalues --   -1.35218  -1.35023  -0.70848  -0.70648  -0.54914
 Alpha  occ. eigenvalues --   -0.54718  -0.49779  -0.49584
 Alpha virt. eigenvalues --    0.20514   0.20713   0.30749   0.30942   0.80774
 Alpha virt. eigenvalues --    0.80967   0.83867   0.84059   0.86953   0.87176
 Alpha virt. eigenvalues --    1.17653   1.17847   1.22117   1.22312   2.57688

 Mulliken charges:
               1
     1  O   -0.738596
     2  H    0.368426
     3  H    0.370170
     4  O   -0.738386
     5  H    0.367805
     6  H    0.370581
 Sum of Mulliken charges =   0.00000

 Dipole moment (field-independent basis, Debye):
    X=             -1.7394    Y=             -0.6605    Z=              0.0000  Tot=              1.8606
 Quadrupole moment (field-independent basis, Debye-Ang):
   XX=             -8.9578   YY=             19.3840   ZZ=            -14.9874
   XY=             -4.8902   XZ=              0.0000   YZ=              0.0000

 \MP4DQ=-33.89087\MP4SDQ=-33.8928996\CCSD=-33.8939563\CCSD(T)=-33.89651
 Normal termination of Gaussian 16 at Sun Dec 10 07:06:01 2023.
