 Gaussian 16, Revision A.03,
 Gaussian 16:  ES64L-G16RevA.03 25-Dec-2016

 ------------------
 #p CCSD(T)/CEP-31G
 ------------------

 ------------
 H2O_H2O_1175
 ------------
 Symbolic Z-matrix:
 Charge =  0 Multiplicity = 1

                         Standard orientation:
 ---------------------------------------------------------------------
 Center     Atomic      Atomic             Coordinates (Angstroms)
 Number     Number       Type             X           Y           Z
 ---------------------------------------------------------------------
      1          8           0        0.000000   -0.000000    1.428507
      2          1           0        0.000000    0.799571    1.999639
      3          1           0       -0.000000   -0.799571    1.999639
      4          8           0        0.000000   -0.000000   -1.428507
      5          1           0       -0.000000   -0.799571   -1.999639
      6          1           0        0.000000    0.799571   -1.999639
 ---------------------------------------------------------------------

 SCF Done:  E(RHF) =  -33.6383454092     A.U. after   10 cycles
 E2 =    -0.2293862825D+00 EUMP2 =    -0.33867731691735D+02
 CCSD(T)
 CCSD(T)= -0.33885133100D+02

 The electronic state is 1-AG.
 Alpha  occ. eigenvalues --   -1.33096  -1.32823  -0.68682  -0.68459  -0.53854
 Alpha  occ. eigenvalues --   -0.50130  -0.47707  -0.47016
 Alpha virt. eigenvalues --    0.21376   0.23265   0.32251   0.32631   0.79743
 Alpha virt. eigenvalues --    0.80679   0.81296   0.86866   1.00383   1.08279
 Alpha virt. eigenvalues --    1.19367   1.20077   1.24159   1.24377   2.59009

 Mulliken charges:
               1
     1  O   -0.704906
     2  H    0.352453
     3  H    0.352453
     4  O   -0.704906
     5  H    0.352453
     6  H    0.352453
 Sum of Mulliken charges =   0.00000

 Dipole moment (field-independent basis, Debye):
    X=             -0.0000    Y=              0.0000    Z=             -0.0000  Tot=              0.0000
 Quadrupole moment (field-independent basis, Debye-Ang):
   XX=            -14.9863   YY=             -8.1999   ZZ=              2.4386
   XY=              0.0000   XZ=             -0.0000   YZ=             -0.0000

 33.8792986\MP4SDQ=-33.8813896\CCSD=-33.882477\CCSD(T)=-33.8851331\RMSD
 Normal termination of Gaussian 16 at Sun Dec 10 06:46:43 2023.
