 Gaussian 16, Revision A.03,
 Gaussian 16:  ES64L-G16RevA.03 25-Dec-2016

 ------------------
 #p CCSD(T)/CEP-31G
 ------------------

 ------------
 H2O_H2O_3829
 ------------
 Symbolic Z-matrix:
 Charge =  0 Multiplicity = 1

                         Standard orientation:
 ---------------------------------------------------------------------
 Center     Atomic      Atomic             Coordinates (Angstroms)
 Number     Number       Type             X           Y           Z
 ---------------------------------------------------------------------
      1          8           0        0.014783   -2.835766    0.000000
      2          1           0       -0.785044   -3.406540    0.000000
      3          1           0        0.814098   -3.407257    0.000000
      4          8           0        0.014783    2.839645    0.000000
      5          1           0        0.639630    3.597981    0.000000
      6          1           0       -0.905209    3.184785    0.000000
 ---------------------------------------------------------------------

 SCF Done:  E(RHF) =  -33.6502051515     A.U. after   11 cycles
 E2 =    -0.2284663577D+00 EUMP2 =    -0.33878671509168D+02
 CCSD(T)
 CCSD(T)= -0.33895717391D+02

 The electronic state is 1-A'.
 Alpha  occ. eigenvalues --   -1.34878  -1.34842  -0.70505  -0.70467  -0.54524
 Alpha  occ. eigenvalues --   -0.54487  -0.49426  -0.49390
 Alpha virt. eigenvalues --    0.20805   0.20844   0.31036   0.31071   0.81127
 Alpha virt. eigenvalues --    0.81164   0.84242   0.84415   0.87354   0.87402
 Alpha virt. eigenvalues --    1.17956   1.17992   1.22427   1.22463   2.58011

 Mulliken charges:
               1
     1  O   -0.735522
     2  H    0.367239
     3  H    0.368283
     4  O   -0.735447
     5  H    0.367009
     6  H    0.368438
 Sum of Mulliken charges =   0.00000

 Dipole moment (field-independent basis, Debye):
    X=             -0.6815    Y=             -0.0911    Z=              0.0000  Tot=              0.6875
 Quadrupole moment (field-independent basis, Debye-Ang):
   XX=             -8.1866   YY=             17.6871   ZZ=            -14.9863
   XY=             -1.4993   XZ=              0.0000   YZ=              0.0000

 \MP4DQ=-33.8900608\MP4SDQ=-33.8920928\CCSD=-33.8931509\CCSD(T)=-33.895
 Normal termination of Gaussian 16 at Sun Dec 10 06:48:56 2023.
