 Gaussian 16, Revision A.03,
 Gaussian 16:  ES64L-G16RevA.03 25-Dec-2016

 ------------------
 #p CCSD(T)/CEP-31G
 ------------------

 -----------
 H2O_H2O_976
 -----------
 Symbolic Z-matrix:
 Charge =  0 Multiplicity = 1

                         Standard orientation:
 ---------------------------------------------------------------------
 Center     Atomic      Atomic             Coordinates (Angstroms)
 Number     Number       Type             X           Y           Z
 ---------------------------------------------------------------------
      1          8           0        0.003735   -1.322008    0.000000
      2          1           0       -0.795974   -1.892945    0.000000
      3          1           0        0.803167   -1.893334    0.000000
      4          8           0        0.003735    1.322250    0.000000
      5          1           0        0.764393    1.944269    0.000000
      6          1           0       -0.831352    1.840068    0.000000
 ---------------------------------------------------------------------

 SCF Done:  E(RHF) =  -33.6342631828     A.U. after   11 cycles
 E2 =    -0.2297134934D+00 EUMP2 =    -0.33863976676226D+02
 CCSD(T)
 CCSD(T)= -0.33881408469D+02

 The electronic state is 1-A'.
 Alpha  occ. eigenvalues --   -1.32872  -1.32386  -0.68425  -0.68046  -0.54291
 Alpha  occ. eigenvalues --   -0.48799  -0.47538  -0.46466
 Alpha virt. eigenvalues --    0.21470   0.23761   0.32502   0.32822   0.79511
 Alpha virt. eigenvalues --    0.79889   0.85243   0.88081   1.04360   1.08127
 Alpha virt. eigenvalues --    1.19561   1.20833   1.24387   1.24803   2.57249

 Mulliken charges:
               1
     1  O   -0.701332
     2  H    0.349599
     3  H    0.351691
     4  O   -0.701116
     5  H    0.350246
     6  H    0.350912
 Sum of Mulliken charges =   0.00000

 Dipole moment (field-independent basis, Debye):
    X=             -0.1621    Y=             -0.0059    Z=              0.0000  Tot=              0.1622
 Quadrupole moment (field-independent basis, Debye-Ang):
   XX=             -8.2360   YY=              1.0627   ZZ=            -14.9910
   XY=             -0.1286   XZ=              0.0000   YZ=              0.0000

 P4DQ=-33.8755263\MP4SDQ=-33.8776243\CCSD=-33.8787189\CCSD(T)=-33.88140
 Normal termination of Gaussian 16 at Sun Dec 10 06:43:01 2023.
