 Gaussian 16, Revision A.03,
 Gaussian 16:  ES64L-G16RevA.03 25-Dec-2016

 ------------------
 #p CCSD(T)/CEP-31G
 ------------------

 ----------
 H2O_H2O_29
 ----------
 Symbolic Z-matrix:
 Charge =  0 Multiplicity = 1

                         Standard orientation:
 ---------------------------------------------------------------------
 Center     Atomic      Atomic             Coordinates (Angstroms)
 Number     Number       Type             X           Y           Z
 ---------------------------------------------------------------------
      1          8           0        0.014785   -0.814805    0.000000
      2          1           0       -0.785675   -1.384691    0.000000
      3          1           0        0.813465   -1.387182    0.000000
      4          8           0        0.014785    0.818652    0.000000
      5          1           0        0.640473    1.576293    0.000000
      6          1           0       -0.904824    1.164811    0.000000
 ---------------------------------------------------------------------

 SCF Done:  E(RHF) =  -33.4724744541     A.U. after   11 cycles
 E2 =    -0.2396886416D+00 EUMP2 =    -0.33712163095706D+02
 CCSD(T)
 CCSD(T)= -0.33728373966D+02

 The electronic state is 1-A'.
 Alpha  occ. eigenvalues --   -1.37665  -1.28830  -0.71248  -0.67871  -0.64401
 Alpha  occ. eigenvalues --   -0.52225  -0.42400  -0.30703
 Alpha virt. eigenvalues --    0.20956   0.28804   0.31475   0.33679   0.80866
 Alpha virt. eigenvalues --    0.82183   0.88128   0.88794   1.02564   1.19320
 Alpha virt. eigenvalues --    1.20851   1.24632   1.27576   1.40161   2.52806

 Mulliken charges:
               1
     1  O   -0.691288
     2  H    0.330890
     3  H    0.359067
     4  O   -0.680942
     5  H    0.339608
     6  H    0.342664
 Sum of Mulliken charges =  -0.00000

 Dipole moment (field-independent basis, Debye):
    X=             -0.5373    Y=             -0.1165    Z=              0.0000  Tot=              0.5497
 Quadrupole moment (field-independent basis, Debye-Ang):
   XX=             -8.6863   YY=             -8.0773   ZZ=            -15.0167
   XY=             -0.3763   XZ=              0.0000   YZ=              0.0000

 P4DQ=-33.721349\MP4SDQ=-33.7242373\CCSD=-33.7247056\CCSD(T)=-33.728374
 Normal termination of Gaussian 16 at Sun Dec 10 06:25:16 2023.
