 Gaussian 16, Revision A.03,
 Gaussian 16:  ES64L-G16RevA.03 25-Dec-2016

 ------------------
 #p CCSD(T)/CEP-31G
 ------------------

 -----------
 H2O_H2O_823
 -----------
 Symbolic Z-matrix:
 Charge =  0 Multiplicity = 1

                         Standard orientation:
 ---------------------------------------------------------------------
 Center     Atomic      Atomic             Coordinates (Angstroms)
 Number     Number       Type             X           Y           Z
 ---------------------------------------------------------------------
      1          8           0        0.057204   -1.171334    0.000000
      2          1           0       -0.744649   -1.739258    0.000000
      3          1           0        0.854481   -1.745665    0.000000
      4          8           0        0.057204    1.277632    0.000000
      5          1           0       -0.457060    2.114912    0.000000
      6          1           0       -0.568042    0.519625    0.000000
 ---------------------------------------------------------------------

 SCF Done:  E(RHF) =  -33.6459081804     A.U. after   11 cycles
 E2 =    -0.2301918023D+00 EUMP2 =    -0.33876099982697D+02
 CCSD(T)
 CCSD(T)= -0.33892836102D+02

 The electronic state is 1-A'.
 Alpha  occ. eigenvalues --   -1.37151  -1.30965  -0.72832  -0.68477  -0.55262
 Alpha  occ. eigenvalues --   -0.51724  -0.50904  -0.45514
 Alpha virt. eigenvalues --    0.18828   0.27033   0.29276   0.37035   0.76576
 Alpha virt. eigenvalues --    0.82301   0.88596   0.89079   0.97939   1.11970
 Alpha virt. eigenvalues --    1.18676   1.19660   1.25140   1.31338   2.67350

 Mulliken charges:
               1
     1  O   -0.778879
     2  H    0.368887
     3  H    0.412916
     4  O   -0.726120
     5  H    0.329953
     6  H    0.393243
 Sum of Mulliken charges =   0.00000

 Dipole moment (field-independent basis, Debye):
    X=             -2.4267    Y=             -2.8346    Z=              0.0000  Tot=              3.7315
 Quadrupole moment (field-independent basis, Debye-Ang):
   XX=            -10.1101   YY=             -4.2820   ZZ=            -15.0072
   XY=             -3.4794   XZ=              0.0000   YZ=              0.0000

 4DQ=-33.8868524\MP4SDQ=-33.8890514\CCSD=-33.8900061\CCSD(T)=-33.892836
 Normal termination of Gaussian 16 at Sun Dec 10 06:40:08 2023.
