 Gaussian 16, Revision A.03,
 Gaussian 16:  ES64L-G16RevA.03 25-Dec-2016

 ------------------
 #p CCSD(T)/CEP-31G
 ------------------

 ------------
 H2O_H2O_4996
 ------------
 Symbolic Z-matrix:
 Charge =  0 Multiplicity = 1

                         Standard orientation:
 ---------------------------------------------------------------------
 Center     Atomic      Atomic             Coordinates (Angstroms)
 Number     Number       Type             X           Y           Z
 ---------------------------------------------------------------------
      1          8           0        0.056080   -3.399638    0.000000
      2          1           0       -0.744289   -3.969651    0.000000
      3          1           0        0.854851   -3.971889    0.000000
      4          8           0        0.056080    3.491423    0.000000
      5          1           0       -0.346835    4.387618    0.000000
      6          1           0       -0.661008    2.819641    0.000000
 ---------------------------------------------------------------------

 SCF Done:  E(RHF) =  -33.6518346216     A.U. after   11 cycles
 E2 =    -0.2283788228D+00 EUMP2 =    -0.33880213444351D+02
 CCSD(T)
 CCSD(T)= -0.33897212307D+02

 The electronic state is 1-A'.
 Alpha  occ. eigenvalues --   -1.35610  -1.35043  -0.71242  -0.70667  -0.55347
 Alpha  occ. eigenvalues --   -0.54773  -0.50182  -0.49615
 Alpha virt. eigenvalues --    0.20165   0.20746   0.30405   0.30981   0.80369
 Alpha virt. eigenvalues --    0.80929   0.83391   0.83964   0.86503   0.87110
 Alpha virt. eigenvalues --    1.17294   1.17859   1.21752   1.22326   2.57310

 Mulliken charges:
               1
     1  O   -0.741294
     2  H    0.369581
     3  H    0.371713
     4  O   -0.741137
     5  H    0.368203
     6  H    0.372935
 Sum of Mulliken charges =   0.00000

 Dipole moment (field-independent basis, Debye):
    X=             -2.5899    Y=             -2.1421    Z=              0.0000  Tot=              3.3609
 Quadrupole moment (field-independent basis, Debye-Ang):
   XX=            -10.0836   YY=             11.5417   ZZ=            -14.9887
   XY=             -8.8386   XZ=              0.0000   YZ=              0.0000

 8\MP4DQ=-33.8915686\MP4SDQ=-33.8935961\CCSD=-33.8946514\CCSD(T)=-33.89
 Normal termination of Gaussian 16 at Sun Dec 10 07:11:46 2023.
