 Gaussian 16, Revision A.03,
 Gaussian 16:  ES64L-G16RevA.03 25-Dec-2016

 ------------------
 #p CCSD(T)/CEP-31G
 ------------------

 ------------
 H2O_H2O_2229
 ------------
 Symbolic Z-matrix:
 Charge =  0 Multiplicity = 1

                         Standard orientation:
 ---------------------------------------------------------------------
 Center     Atomic      Atomic             Coordinates (Angstroms)
 Number     Number       Type             X           Y           Z
 ---------------------------------------------------------------------
      1          8           0        0.014783   -1.984831    0.000000
      2          1           0       -0.785153   -2.555451    0.000000
      3          1           0        0.813988   -2.556475    0.000000
      4          8           0        0.014783    1.988705    0.000000
      5          1           0        0.639776    2.746919    0.000000
      6          1           0       -0.905143    2.334021    0.000000
 ---------------------------------------------------------------------

 SCF Done:  E(RHF) =  -33.6472512912     A.U. after   11 cycles
 E2 =    -0.2286936360D+00 EUMP2 =    -0.33875944927254D+02
 CCSD(T)
 CCSD(T)= -0.33893079609D+02

 The electronic state is 1-A'.
 Alpha  occ. eigenvalues --   -1.34188  -1.34111  -0.69809  -0.69728  -0.53846
 Alpha  occ. eigenvalues --   -0.53373  -0.48705  -0.48606
 Alpha virt. eigenvalues --    0.21038   0.21706   0.31525   0.31682   0.79702
 Alpha virt. eigenvalues --    0.81351   0.82427   0.86869   0.89213   0.92587
 Alpha virt. eigenvalues --    1.18528   1.18605   1.22966   1.23191   2.58278

 Mulliken charges:
               1
     1  O   -0.725526
     2  H    0.361396
     3  H    0.364147
     4  O   -0.725160
     5  H    0.360897
     6  H    0.364246
 Sum of Mulliken charges =  -0.00000

 Dipole moment (field-independent basis, Debye):
    X=             -0.6753    Y=             -0.0937    Z=              0.0000  Tot=              0.6818
 Quadrupole moment (field-independent basis, Debye-Ang):
   XX=             -8.2312   YY=              8.6307   ZZ=            -14.9842
   XY=             -0.9404   XZ=              0.0000   YZ=              0.0000

 \MP4DQ=-33.8873892\MP4SDQ=-33.8894364\CCSD=-33.8904955\CCSD(T)=-33.893
 Normal termination of Gaussian 16 at Sun Dec 10 07:07:31 2023.
