 Gaussian 16, Revision A.03,
 Gaussian 16:  ES64L-G16RevA.03 25-Dec-2016

 ------------------
 #p CCSD(T)/CEP-31G
 ------------------

 -----------
 H2O_H2O_570
 -----------
 Symbolic Z-matrix:
 Charge =  0 Multiplicity = 1

                         Standard orientation:
 ---------------------------------------------------------------------
 Center     Atomic      Atomic             Coordinates (Angstroms)
 Number     Number       Type             X           Y           Z
 ---------------------------------------------------------------------
      1          8           0        0.055351   -1.050384    0.000000
      2          1           0       -0.746696   -1.618035    0.000000
      3          1           0        0.852431   -1.624987    0.000000
      4          8           0        0.055351    1.134566    0.000000
      5          1           0       -0.285373    2.056202    0.000000
      6          1           0       -0.705972    0.513363    0.000000
 ---------------------------------------------------------------------

 SCF Done:  E(RHF) =  -33.6255335614     A.U. after   11 cycles
 E2 =    -0.2313438860D+00 EUMP2 =    -0.33856877447352D+02
 CCSD(T)
 CCSD(T)= -0.33873774723D+02

 The electronic state is 1-A'.
 Alpha  occ. eigenvalues --   -1.36534  -1.30635  -0.72363  -0.68776  -0.53593
 Alpha  occ. eigenvalues --   -0.51029  -0.49792  -0.45052
 Alpha virt. eigenvalues --    0.19303   0.27466   0.29906   0.35351   0.77625
 Alpha virt. eigenvalues --    0.84551   0.89644   0.94563   0.98379   1.13991
 Alpha virt. eigenvalues --    1.18920   1.21479   1.26524   1.31490   2.69530

 Mulliken charges:
               1
     1  O   -0.778870
     2  H    0.361068
     3  H    0.409242
     4  O   -0.690761
     5  H    0.322843
     6  H    0.376478
 Sum of Mulliken charges =  -0.00000

 Dipole moment (field-independent basis, Debye):
    X=             -2.2566    Y=             -2.2057    Z=              0.0000  Tot=              3.1555
 Quadrupole moment (field-independent basis, Debye-Ang):
   XX=            -10.0006   YY=             -4.4872   ZZ=            -14.9989
   XY=             -2.6474   XZ=              0.0000   YZ=              0.0000

 MP4DQ=-33.8676409\MP4SDQ=-33.8699119\CCSD=-33.8708535\CCSD(T)=-33.8737
 Normal termination of Gaussian 16 at Sun Dec 10 06:35:24 2023.
