 Gaussian 16, Revision A.03,
 Gaussian 16:  ES64L-G16RevA.03 25-Dec-2016

 ------------------
 #p CCSD(T)/CEP-31G
 ------------------

 -----------
 H2O_H2O_126
 -----------
 Symbolic Z-matrix:
 Charge =  0 Multiplicity = 1

                         Standard orientation:
 ---------------------------------------------------------------------
 Center     Atomic      Atomic             Coordinates (Angstroms)
 Number     Number       Type             X           Y           Z
 ---------------------------------------------------------------------
      1          8           0        0.003735   -0.869947    0.000000
      2          1           0       -0.796047   -1.440784    0.000000
      3          1           0        0.803095   -1.441375    0.000000
      4          8           0        0.003735    0.870189    0.000000
      5          1           0        0.764471    1.492111    0.000000
      6          1           0       -0.831286    1.388113    0.000000
 ---------------------------------------------------------------------

 SCF Done:  E(RHF) =  -33.5208726635     A.U. after   10 cycles
 E2 =    -0.2366565026D+00 EUMP2 =    -0.33757529166174D+02
 CCSD(T)
 CCSD(T)= -0.33774112516D+02

 The electronic state is 1-A'.
 Alpha  occ. eigenvalues --   -1.35444  -1.29209  -0.69564  -0.65578  -0.64208
 Alpha  occ. eigenvalues --   -0.50330  -0.42679  -0.34017
 Alpha virt. eigenvalues --    0.21342   0.27878   0.32089   0.33705   0.79208
 Alpha virt. eigenvalues --    0.82118   0.88932   0.89551   1.06538   1.20064
 Alpha virt. eigenvalues --    1.20565   1.24695   1.28186   1.35219   2.49713

 Mulliken charges:
               1
     1  O   -0.693959
     2  H    0.343804
     3  H    0.350005
     4  O   -0.693206
     5  H    0.347312
     6  H    0.346044
 Sum of Mulliken charges =  -0.00000

 Dipole moment (field-independent basis, Debye):
    X=             -0.1369    Y=             -0.0066    Z=              0.0000  Tot=              0.1371
 Quadrupole moment (field-independent basis, Debye-Ang):
   XX=             -8.4830   YY=             -6.6430   ZZ=            -15.0381
   XY=             -0.0812   XZ=              0.0000   YZ=              0.0000

 MP4DQ=-33.7673987\MP4SDQ=-33.7700405\CCSD=-33.7707426\CCSD(T)=-33.7741
 Normal termination of Gaussian 16 at Sun Dec 10 06:27:06 2023.
