 Gaussian 16, Revision A.03,
 Gaussian 16:  ES64L-G16RevA.03 25-Dec-2016

 ------------------
 #p CCSD(T)/CEP-31G
 ------------------

 ------------
 H2O_H2O_3797
 ------------
 Symbolic Z-matrix:
 Charge =  0 Multiplicity = 1

                         Standard orientation:
 ---------------------------------------------------------------------
 Center     Atomic      Atomic             Coordinates (Angstroms)
 Number     Number       Type             X           Y           Z
 ---------------------------------------------------------------------
      1          8           0        0.056711   -2.757451    0.000000
      2          1           0       -0.743851   -3.327193    0.000000
      3          1           0        0.855289   -3.329970    0.000000
      4          8           0        0.056711    2.856571    0.000000
      5          1           0       -0.403663    3.724650    0.000000
      6          1           0       -0.615146    2.139553    0.000000
 ---------------------------------------------------------------------

 SCF Done:  E(RHF) =  -33.6520292535     A.U. after   11 cycles
 E2 =    -0.2283830306D+00 EUMP2 =    -0.33880412284099D+02
 CCSD(T)
 CCSD(T)= -0.33897405274D+02

 The electronic state is 1-A'.
 Alpha  occ. eigenvalues --   -1.35677  -1.34733  -0.71311  -0.70347  -0.55426
 Alpha  occ. eigenvalues --   -0.54466  -0.50251  -0.49308
 Alpha virt. eigenvalues --    0.20103   0.21086   0.30349   0.31316   0.80302
 Alpha virt. eigenvalues --    0.81226   0.83286   0.84267   0.86422   0.87453
 Alpha virt. eigenvalues --    1.17236   1.18174   1.21691   1.22655   2.57242

 Mulliken charges:
               1
     1  O   -0.742001
     2  H    0.369106
     3  H    0.372897
     4  O   -0.741652
     5  H    0.366358
     6  H    0.375292
 Sum of Mulliken charges =  -0.00000

 Dipole moment (field-independent basis, Debye):
    X=             -2.6134    Y=             -2.3295    Z=              0.0000  Tot=              3.5009
 Quadrupole moment (field-independent basis, Debye-Ang):
   XX=            -10.1264   YY=              6.5038   ZZ=            -14.9894
   XY=             -7.4121   XZ=              0.0000   YZ=              0.0000

 P4DQ=-33.8917628\MP4SDQ=-33.89379\CCSD=-33.8948443\CCSD(T)=-33.8974053
 Normal termination of Gaussian 16 at Sun Dec 10 06:48:20 2023.
