 Gaussian 16, Revision A.03,
 Gaussian 16:  ES64L-G16RevA.03 25-Dec-2016

 ------------------
 #p CCSD(T)/CEP-31G
 ------------------

 ------------
 H2O_H2O_1263
 ------------
 Symbolic Z-matrix:
 Charge =  0 Multiplicity = 1

                         Standard orientation:
 ---------------------------------------------------------------------
 Center     Atomic      Atomic             Coordinates (Angstroms)
 Number     Number       Type             X           Y           Z
 ---------------------------------------------------------------------
      1          8           0        0.042989   -1.447377    0.000000
      2          1           0       -0.758019   -2.016492    0.000000
      3          1           0        0.841118   -2.020522    0.000000
      4          8           0        0.042989    1.486072    0.000000
      5          1           0        0.143247    2.463545    0.000000
      6          1           0       -0.914168    1.263907    0.000000
 ---------------------------------------------------------------------

 SCF Done:  E(RHF) =  -33.6447133525     A.U. after   11 cycles
 E2 =    -0.2293721204D+00 EUMP2 =    -0.33874085472889D+02
 CCSD(T)
 CCSD(T)= -0.33891372420D+02

 The electronic state is 1-A'.
 Alpha  occ. eigenvalues --   -1.34256  -1.32883  -0.69887  -0.68463  -0.54242
 Alpha  occ. eigenvalues --   -0.51632  -0.48791  -0.47335
 Alpha virt. eigenvalues --    0.20340   0.23720   0.31448   0.32622   0.77855
 Alpha virt. eigenvalues --    0.79174   0.83986   0.86043   0.92364   1.14187
 Alpha virt. eigenvalues --    1.18355   1.22113   1.23019   1.25428   2.60254

 Mulliken charges:
               1
     1  O   -0.724668
     2  H    0.353238
     3  H    0.370612
     4  O   -0.711772
     5  H    0.346625
     6  H    0.365965
 Sum of Mulliken charges =  -0.00000

 Dipole moment (field-independent basis, Debye):
    X=             -1.9052    Y=             -0.9667    Z=              0.0000  Tot=              2.1364
 Quadrupole moment (field-independent basis, Debye-Ang):
   XX=             -9.2848   YY=              1.3859   ZZ=            -14.9877
   XY=             -2.2257   XZ=              0.0000   YZ=              0.0000

 MP4DQ=-33.885561\MP4SDQ=-33.8876696\CCSD=-33.8887312\CCSD(T)=-33.89137
 Normal termination of Gaussian 16 at Sun Dec 10 06:48:22 2023.
