 Gaussian 16, Revision A.03,
 Gaussian 16:  ES64L-G16RevA.03 25-Dec-2016

 ------------------
 #p CCSD(T)/CEP-31G
 ------------------

 ------------
 H2O_H2O_3489
 ------------
 Symbolic Z-matrix:
 Charge =  0 Multiplicity = 1

                         Standard orientation:
 ---------------------------------------------------------------------
 Center     Atomic      Atomic             Coordinates (Angstroms)
 Number     Number       Type             X           Y           Z
 ---------------------------------------------------------------------
      1          8           0        0.045344   -2.627531    0.000000
      2          1           0       -0.755067   -3.197486    0.000000
      3          1           0        0.844073   -3.199840    0.000000
      4          8           0        0.045344    2.672087    0.000000
      5          1           0        0.080428    3.654063    0.000000
      6          1           0       -0.894935    2.386812    0.000000
 ---------------------------------------------------------------------

 SCF Done:  E(RHF) =  -33.6507991861     A.U. after   11 cycles
 E2 =    -0.2284530269D+00 EUMP2 =    -0.33879252212996D+02
 CCSD(T)
 CCSD(T)= -0.33896281148D+02

 The electronic state is 1-A'.
 Alpha  occ. eigenvalues --   -1.35172  -1.34690  -0.70802  -0.70304  -0.54852
 Alpha  occ. eigenvalues --   -0.54367  -0.49729  -0.49248
 Alpha virt. eigenvalues --    0.20540   0.21041   0.30779   0.31253   0.80824
 Alpha virt. eigenvalues --    0.81297   0.83856   0.84492   0.87016   0.87608
 Alpha virt. eigenvalues --    1.17688   1.18165   1.22154   1.22636   2.57727

 Mulliken charges:
               1
     1  O   -0.737673
     2  H    0.366939
     3  H    0.370734
     4  O   -0.736940
     5  H    0.365330
     6  H    0.371609
 Sum of Mulliken charges =  -0.00000

 Dipole moment (field-independent basis, Debye):
    X=             -2.0878    Y=             -1.0493    Z=              0.0000  Tot=              2.3367
 Quadrupole moment (field-independent basis, Debye-Ang):
   XX=             -9.3736   YY=             11.7234   ZZ=            -14.9874
   XY=             -4.8047   XZ=              0.0000   YZ=              0.0000

 MP4DQ=-33.890629\MP4SDQ=-33.8926596\CCSD=-33.893716\CCSD(T)=-33.896281
 Normal termination of Gaussian 16 at Sun Dec 10 06:42:41 2023.
