 Gaussian 16, Revision A.03,
 Gaussian 16:  ES64L-G16RevA.03 25-Dec-2016

 ------------------
 #p CCSD(T)/CEP-31G
 ------------------

 ------------
 H2O_H2O_1339
 ------------
 Symbolic Z-matrix:
 Charge =  0 Multiplicity = 1

                         Standard orientation:
 ---------------------------------------------------------------------
 Center     Atomic      Atomic             Coordinates (Angstroms)
 Number     Number       Type             X           Y           Z
 ---------------------------------------------------------------------
      1          8           0        0.045369   -1.484136    0.000000
      2          1           0       -0.755679   -2.053196    0.000000
      3          1           0        0.843458   -2.057337    0.000000
      4          8           0        0.045369    1.528591    0.000000
      5          1           0        0.081550    2.510527    0.000000
      6          1           0       -0.895228    1.244367    0.000000
 ---------------------------------------------------------------------

 SCF Done:  E(RHF) =  -33.6461069645     A.U. after   11 cycles
 E2 =    -0.2292789872D+00 EUMP2 =    -0.33875385951766D+02
 CCSD(T)
 CCSD(T)= -0.33892631652D+02

 The electronic state is 1-A'.
 Alpha  occ. eigenvalues --   -1.34482  -1.32968  -0.70115  -0.68541  -0.54319
 Alpha  occ. eigenvalues --   -0.51995  -0.49014  -0.47455
 Alpha virt. eigenvalues --    0.20194   0.23646   0.31259   0.32625   0.76842
 Alpha virt. eigenvalues --    0.79246   0.84514   0.85568   0.91217   1.13109
 Alpha virt. eigenvalues --    1.18155   1.21785   1.22798   1.25373   2.59857

 Mulliken charges:
               1
     1  O   -0.727185
     2  H    0.354844
     3  H    0.372022
     4  O   -0.715550
     5  H    0.347302
     6  H    0.368567
 Sum of Mulliken charges =  -0.00000

 Dipole moment (field-independent basis, Debye):
    X=             -2.0186    Y=             -1.1107    Z=              0.0000  Tot=              2.3040
 Quadrupole moment (field-independent basis, Debye-Ang):
   XX=             -9.4058   YY=              1.5091   ZZ=            -14.9879
   XY=             -2.5033   XZ=              0.0000   YZ=              0.0000

 4DQ=-33.8868392\MP4SDQ=-33.8889425\CCSD=-33.8899984\CCSD(T)=-33.892631
 Normal termination of Gaussian 16 at Sun Dec 10 06:49:47 2023.
