 Gaussian 16, Revision A.03,
 Gaussian 16:  ES64L-G16RevA.03 25-Dec-2016

 ------------------
 #p CCSD(T)/CEP-31G
 ------------------

 ------------
 H2O_H2O_3059
 ------------
 Symbolic Z-matrix:
 Charge =  0 Multiplicity = 1

                         Standard orientation:
 ---------------------------------------------------------------------
 Center     Atomic      Atomic             Coordinates (Angstroms)
 Number     Number       Type             X           Y           Z
 ---------------------------------------------------------------------
      1          8           0        0.031741   -2.415283    0.000000
      2          1           0       -0.768473   -2.985514    0.000000
      3          1           0        0.830668   -2.987316    0.000000
      4          8           0        0.031741    2.434463    0.000000
      5          1           0        0.380291    3.353168    0.000000
      6          1           0       -0.950347    2.466229    0.000000
 ---------------------------------------------------------------------

 SCF Done:  E(RHF) =  -33.6497214493     A.U. after   11 cycles
 E2 =    -0.2285131893D+00 EUMP2 =    -0.33878234638586D+02
 CCSD(T)
 CCSD(T)= -0.33895294885D+02

 The electronic state is 1-A'.
 Alpha  occ. eigenvalues --   -1.34801  -1.34552  -0.70427  -0.70168  -0.54420
 Alpha  occ. eigenvalues --   -0.54165  -0.49342  -0.49094
 Alpha virt. eigenvalues --    0.20831   0.21133   0.31088   0.31326   0.81200
 Alpha virt. eigenvalues --    0.81464   0.83670   0.85323   0.87458   0.87949
 Alpha virt. eigenvalues --    1.18014   1.18259   1.22490   1.22736   2.58081

 Mulliken charges:
               1
     1  O   -0.733921
     2  H    0.365246
     3  H    0.368678
     4  O   -0.733268
     5  H    0.364225
     6  H    0.369040
 Sum of Mulliken charges =   0.00000

 Dipole moment (field-independent basis, Debye):
    X=             -1.4588    Y=             -0.4540    Z=              0.0000  Tot=              1.5278
 Quadrupole moment (field-independent basis, Debye-Ang):
   XX=             -8.7042   YY=             12.0427   ZZ=            -14.9861
   XY=             -2.7839   XZ=              0.0000   YZ=              0.0000

 4DQ=-33.8896338\MP4SDQ=-33.8916676\CCSD=-33.8927257\CCSD(T)=-33.895294
 Normal termination of Gaussian 16 at Sun Dec 10 06:34:59 2023.
