 Gaussian 16, Revision A.03,
 Gaussian 16:  ES64L-G16RevA.03 25-Dec-2016

 ------------------
 #p CCSD(T)/CEP-31G
 ------------------

 ------------
 H2O_H2O_3008
 ------------
 Symbolic Z-matrix:
 Charge =  0 Multiplicity = 1

                         Standard orientation:
 ---------------------------------------------------------------------
 Center     Atomic      Atomic             Coordinates (Angstroms)
 Number     Number       Type             X           Y           Z
 ---------------------------------------------------------------------
      1          8           0        0.028564   -2.390828    0.000000
      2          1           0       -0.771592   -2.961140    0.000000
      3          1           0        0.827550   -2.962780    0.000000
      4          8           0        0.028564    2.406073    0.000000
      5          1           0        0.436365    3.300056    0.000000
      6          1           0       -0.949353    2.501905    0.000000
 ---------------------------------------------------------------------

 SCF Done:  E(RHF) =  -33.6495291140     A.U. after   11 cycles
 E2 =    -0.2285226900D+00 EUMP2 =    -0.33878051804002D+02
 CCSD(T)
 CCSD(T)= -0.33895117592D+02

 The electronic state is 1-A'.
 Alpha  occ. eigenvalues --   -1.34738  -1.34535  -0.70363  -0.70152  -0.54348
 Alpha  occ. eigenvalues --   -0.54134  -0.49275  -0.49074
 Alpha virt. eigenvalues --    0.20877   0.21146   0.31140   0.31333   0.81260
 Alpha virt. eigenvalues --    0.81490   0.83589   0.85515   0.87529   0.87998
 Alpha virt. eigenvalues --    1.18069   1.18268   1.22548   1.22748   2.58142

 Mulliken charges:
               1
     1  O   -0.733250
     2  H    0.365033
     3  H    0.368220
     4  O   -0.732683
     5  H    0.364158
     6  H    0.368522
 Sum of Mulliken charges =  -0.00000

 Dipole moment (field-independent basis, Debye):
    X=             -1.3125    Y=             -0.3611    Z=              0.0000  Tot=              1.3613
 Quadrupole moment (field-independent basis, Debye-Ang):
   XX=             -8.5827   YY=             12.1104   ZZ=            -14.9859
   XY=             -2.4359   XZ=              0.0000   YZ=              0.0000

 \MP4DQ=-33.8894549\MP4SDQ=-33.8914892\CCSD=-33.8925477\CCSD(T)=-33.895
 Normal termination of Gaussian 16 at Sun Dec 10 06:34:06 2023.
