 Gaussian 16, Revision A.03,
 Gaussian 16:  ES64L-G16RevA.03 25-Dec-2016

 ------------------
 #p CCSD(T)/CEP-31G
 ------------------

 ------------
 H2O_H2O_4097
 ------------
 Symbolic Z-matrix:
 Charge =  0 Multiplicity = 1

                         Standard orientation:
 ---------------------------------------------------------------------
 Center     Atomic      Atomic             Coordinates (Angstroms)
 Number     Number       Type             X           Y           Z
 ---------------------------------------------------------------------
      1          8           0        0.056706   -2.916996    0.000000
      2          1           0       -0.743802   -3.486814    0.000000
      3          1           0        0.855338   -3.489441    0.000000
      4          8           0        0.056706    3.016127    0.000000
      5          1           0       -0.403749    3.884164    0.000000
      6          1           0       -0.615084    2.299047    0.000000
 ---------------------------------------------------------------------

 SCF Done:  E(RHF) =  -33.6519843756     A.U. after   11 cycles
 E2 =    -0.2283797525D+00 EUMP2 =    -0.33880364128114D+02
 CCSD(T)
 CCSD(T)= -0.33897358437D+02

 The electronic state is 1-A'.
 Alpha  occ. eigenvalues --   -1.35667  -1.34828  -0.71300  -0.70446  -0.55413
 Alpha  occ. eigenvalues --   -0.54561  -0.50241  -0.49403
 Alpha virt. eigenvalues --    0.20114   0.20980   0.30357   0.31214   0.80311
 Alpha virt. eigenvalues --    0.81135   0.83311   0.84168   0.86435   0.87343
 Alpha virt. eigenvalues --    1.17244   1.18077   1.21700   1.22553   2.57254

 Mulliken charges:
               1
     1  O   -0.741837
     2  H    0.369296
     3  H    0.372542
     4  O   -0.741572
     5  H    0.366978
     6  H    0.374594
 Sum of Mulliken charges =  -0.00000

 Dipole moment (field-independent basis, Debye):
    X=             -2.6150    Y=             -2.3243    Z=              0.0000  Tot=              3.4987
 Quadrupole moment (field-independent basis, Debye-Ang):
   XX=            -10.1274   YY=              7.4742   ZZ=            -14.9892
   XY=             -7.8258   XZ=              0.0000   YZ=              0.0000

 MP4DQ=-33.8917158\MP4SDQ=-33.893743\CCSD=-33.8947976\CCSD(T)=-33.89735
 Normal termination of Gaussian 16 at Sun Dec 10 06:53:54 2023.
