 Gaussian 16, Revision A.03,
 Gaussian 16:  ES64L-G16RevA.03 25-Dec-2016

 ------------------
 #p CCSD(T)/CEP-31G
 ------------------

 ----------
 H2O_H2O_53
 ----------
 Symbolic Z-matrix:
 Charge =  0 Multiplicity = 1

                         Standard orientation:
 ---------------------------------------------------------------------
 Center     Atomic      Atomic             Coordinates (Angstroms)
 Number     Number       Type             X           Y           Z
 ---------------------------------------------------------------------
      1          8           0        0.011144   -0.829012    0.000000
      2          1           0       -0.789087   -1.399220    0.000000
      3          1           0        0.810054   -1.401067    0.000000
      4          8           0        0.011144    0.831181    0.000000
      5          1           0        0.684755    1.546550    0.000000
      6          1           0       -0.884019    1.236385    0.000000
 ---------------------------------------------------------------------

 SCF Done:  E(RHF) =  -33.4857310064     A.U. after   11 cycles
 E2 =    -0.2388696332D+00 EUMP2 =    -0.33724600639659D+02
 CCSD(T)
 CCSD(T)= -0.33740907918D+02

 The electronic state is 1-A'.
 Alpha  occ. eigenvalues --   -1.36973  -1.28917  -0.70656  -0.67052  -0.64634
 Alpha  occ. eigenvalues --   -0.51656  -0.42439  -0.31491
 Alpha virt. eigenvalues --    0.21095   0.28590   0.31621   0.33699   0.80222
 Alpha virt. eigenvalues --    0.82222   0.88127   0.89015   1.03980   1.19473
 Alpha virt. eigenvalues --    1.20708   1.24775   1.27818   1.38978   2.51820

 Mulliken charges:
               1
     1  O   -0.691587
     2  H    0.335007
     3  H    0.355656
     4  O   -0.685411
     5  H    0.343063
     6  H    0.343271
 Sum of Mulliken charges =   0.00000

 Dipole moment (field-independent basis, Debye):
    X=             -0.4056    Y=             -0.0642    Z=              0.0000  Tot=              0.4107
 Quadrupole moment (field-independent basis, Debye-Ang):
   XX=             -8.6141   YY=             -7.6964   ZZ=            -15.0263
   XY=             -0.2711   XZ=              0.0000   YZ=              0.0000

 4DQ=-33.7339639\MP4SDQ=-33.7367892\CCSD=-33.7373237\CCSD(T)=-33.740907
 Normal termination of Gaussian 16 at Sun Dec 10 06:25:43 2023.
