 Gaussian 16, Revision A.03,
 Gaussian 16:  ES64L-G16RevA.03 25-Dec-2016

 ------------------
 #p CCSD(T)/CEP-31G
 ------------------

 ------------
 H2O_H2O_1401
 ------------
 Symbolic Z-matrix:
 Charge =  0 Multiplicity = 1

                         Standard orientation:
 ---------------------------------------------------------------------
 Center     Atomic      Atomic             Coordinates (Angstroms)
 Number     Number       Type             X           Y           Z
 ---------------------------------------------------------------------
      1          8           0        0.003735   -1.548038    0.000000
      2          1           0       -0.795954   -2.119004    0.000000
      3          1           0        0.803188   -2.119336    0.000000
      4          8           0        0.003735    1.548281    0.000000
      5          1           0        0.764371    2.170326    0.000000
      6          1           0       -0.831370    2.066069    0.000000
 ---------------------------------------------------------------------

 SCF Done:  E(RHF) =  -33.6414670073     A.U. after   11 cycles
 E2 =    -0.2291441737D+00 EUMP2 =    -0.33870611180973D+02
 CCSD(T)
 CCSD(T)= -0.33887946954D+02

 The electronic state is 1-A'.
 Alpha  occ. eigenvalues --   -1.33366  -1.33224  -0.68972  -0.68846  -0.53650
 Alpha  occ. eigenvalues --   -0.51241  -0.47940  -0.47516
 Alpha virt. eigenvalues --    0.21256   0.22814   0.32011   0.32410   0.77651
 Alpha virt. eigenvalues --    0.80175   0.83015   0.85543   0.96546   1.06235
 Alpha virt. eigenvalues --    1.19160   1.19473   1.23656   1.24174   2.59927

 Mulliken charges:
               1
     1  O   -0.709946
     2  H    0.354293
     3  H    0.355649
     4  O   -0.709863
     5  H    0.354327
     6  H    0.355540
 Sum of Mulliken charges =   0.00000

 Dipole moment (field-independent basis, Debye):
    X=             -0.1675    Y=             -0.0061    Z=              0.0000  Tot=              0.1677
 Quadrupole moment (field-independent basis, Debye-Ang):
   XX=             -8.1790   YY=              3.8893   ZZ=            -14.9839
   XY=             -0.1648   XZ=              0.0000   YZ=              0.0000

 4DQ=-33.882156\MP4SDQ=-33.8842403\CCSD=-33.8853155\CCSD(T)=-33.887947\
 Normal termination of Gaussian 16 at Sun Dec 10 06:50:56 2023.
