 Gaussian 16, Revision A.03,
 Gaussian 16:  ES64L-G16RevA.03 25-Dec-2016

 ------------------
 #p CCSD(T)/CEP-31G
 ------------------

 ------------
 H2O_H2O_2731
 ------------
 Symbolic Z-matrix:
 Charge =  0 Multiplicity = 1

                         Standard orientation:
 ---------------------------------------------------------------------
 Center     Atomic      Atomic             Coordinates (Angstroms)
 Number     Number       Type             X           Y           Z
 ---------------------------------------------------------------------
      1          8           0        0.021860   -2.248150    0.000000
      2          1           0       -0.778188   -2.818614    0.000000
      3          1           0        0.820954   -2.819950    0.000000
      4          8           0        0.021860    2.256808    0.000000
      5          1           0        0.542701    3.090014    0.000000
      6          1           0       -0.935225    2.479283    0.000000
 ---------------------------------------------------------------------

 SCF Done:  E(RHF) =  -33.6488242712     A.U. after   11 cycles
 E2 =    -0.2285675908D+00 EUMP2 =    -0.33877391861929D+02
 CCSD(T)
 CCSD(T)= -0.33894478163D+02

 The electronic state is 1-A'.
 Alpha  occ. eigenvalues --   -1.34542  -1.34411  -0.70165  -0.70029  -0.54136
 Alpha  occ. eigenvalues --   -0.53939  -0.49070  -0.48939
 Alpha virt. eigenvalues --    0.20971   0.21292   0.31295   0.31421   0.81391
 Alpha virt. eigenvalues --    0.81697   0.82740   0.86501   0.87775   0.88594
 Alpha virt. eigenvalues --    1.18236   1.18364   1.22719   1.22855   2.58302

 Mulliken charges:
               1
     1  O   -0.730828
     2  H    0.363968
     3  H    0.366866
     4  O   -0.730371
     5  H    0.363304
     6  H    0.367061
 Sum of Mulliken charges =  -0.00000

 Dipole moment (field-independent basis, Debye):
    X=             -1.0028    Y=             -0.2062    Z=              0.0000  Tot=              1.0238
 Quadrupole moment (field-independent basis, Debye-Ang):
   XX=             -8.3742   YY=             11.1287   ZZ=            -14.9853
   XY=             -1.6768   XZ=              0.0000   YZ=              0.0000

 MP4DQ=-33.8888087\MP4SDQ=-33.8908458\CCSD=-33.8919049\CCSD(T)=-33.8944
 Normal termination of Gaussian 16 at Sun Dec 10 06:29:03 2023.
