 Gaussian 16, Revision A.03,
 Gaussian 16:  ES64L-G16RevA.03 25-Dec-2016

 ------------------
 #p CCSD(T)/CEP-31G
 ------------------

 ------------
 H2O_H2O_3497
 ------------
 Symbolic Z-matrix:
 Charge =  0 Multiplicity = 1

                         Standard orientation:
 ---------------------------------------------------------------------
 Center     Atomic      Atomic             Coordinates (Angstroms)
 Number     Number       Type             X           Y           Z
 ---------------------------------------------------------------------
      1          8           0        0.056716   -2.597906    0.000000
      2          1           0       -0.743905   -3.167565    0.000000
      3          1           0        0.855234   -3.170509    0.000000
      4          8           0        0.056716    2.697014    0.000000
      5          1           0       -0.403567    3.565142    0.000000
      6          1           0       -0.615216    1.980067    0.000000
 ---------------------------------------------------------------------

 SCF Done:  E(RHF) =  -33.6520918480     A.U. after   11 cycles
 E2 =    -0.2283884845D+00 EUMP2 =    -0.33880480332533D+02
 CCSD(T)
 CCSD(T)= -0.33897471526D+02

 The electronic state is 1-A'.
 Alpha  occ. eigenvalues --   -1.35690  -1.34621  -0.71324  -0.70230  -0.55444
 Alpha  occ. eigenvalues --   -0.54354  -0.50266  -0.49197
 Alpha virt. eigenvalues --    0.20079   0.21218   0.30337   0.31437   0.80289
 Alpha virt. eigenvalues --    0.81334   0.83232   0.84405   0.86403   0.87588
 Alpha virt. eigenvalues --    1.17225   1.18290   1.21677   1.22787   2.57224

 Mulliken charges:
               1
     1  O   -0.742225
     2  H    0.368883
     3  H    0.373351
     4  O   -0.741758
     5  H    0.365592
     6  H    0.376157
 Sum of Mulliken charges =   0.00000

 Dipole moment (field-independent basis, Debye):
    X=             -2.6113    Y=             -2.3362    Z=              0.0000  Tot=              3.5038
 Quadrupole moment (field-independent basis, Debye-Ang):
   XX=            -10.1252   YY=              5.5311   ZZ=            -14.9896
   XY=             -6.9991   XZ=              0.0000   YZ=              0.0000

 P4DQ=-33.8918292\MP4SDQ=-33.8938565\CCSD=-33.8949102\CCSD(T)=-33.89747
 Normal termination of Gaussian 16 at Sun Dec 10 06:42:50 2023.
