 Gaussian 16, Revision A.03,
 Gaussian 16:  ES64L-G16RevA.03 25-Dec-2016

 ------------------
 #p CCSD(T)/CEP-31G
 ------------------

 -----------
 H2O_H2O_323
 -----------
 Symbolic Z-matrix:
 Charge =  0 Multiplicity = 1

                         Standard orientation:
 ---------------------------------------------------------------------
 Center     Atomic      Atomic             Coordinates (Angstroms)
 Number     Number       Type             X           Y           Z
 ---------------------------------------------------------------------
      1          8           0        0.057263   -0.905482    0.000000
      2          1           0       -0.745220   -1.472514    0.000000
      3          1           0        0.853901   -1.480699    0.000000
      4          8           0        0.057263    1.011653    0.000000
      5          1           0       -0.456070    1.849504    0.000000
      6          1           0       -0.568825    0.254341    0.000000
 ---------------------------------------------------------------------

 SCF Done:  E(RHF) =  -33.5672156411     A.U. after   11 cycles
 E2 =    -0.2326185884D+00 EUMP2 =    -0.33799834229499D+02
 CCSD(T)
 CCSD(T)= -0.33815636397D+02

 The electronic state is 1-A'.
 Alpha  occ. eigenvalues --   -1.40785  -1.28619  -0.77348  -0.71931  -0.54200
 Alpha  occ. eigenvalues --   -0.49239  -0.48375  -0.42999
 Alpha virt. eigenvalues --    0.18575   0.27806   0.29710   0.38329   0.77422
 Alpha virt. eigenvalues --    0.84658   0.90535   0.93695   0.98838   1.16125
 Alpha virt. eigenvalues --    1.18404   1.21620   1.32551   1.33170   2.84231

 Mulliken charges:
               1
     1  O   -0.798821
     2  H    0.371800
     3  H    0.449243
     4  O   -0.693689
     5  H    0.296652
     6  H    0.374815
 Sum of Mulliken charges =   0.00000

 Dipole moment (field-independent basis, Debye):
    X=             -2.1846    Y=             -3.0910    Z=              0.0000  Tot=              3.7851
 Quadrupole moment (field-independent basis, Debye-Ang):
   XX=            -10.0887   YY=             -7.0891   ZZ=            -14.9593
   XY=             -2.6720   XZ=              0.0000   YZ=              0.0000

 MP4DQ=-33.8091838\MP4SDQ=-33.8116493\CCSD=-33.8123631\CCSD(T)=-33.8156
 Normal termination of Gaussian 16 at Sun Dec 10 06:30:48 2023.
