 Gaussian 16, Revision A.03,
 Gaussian 16:  ES64L-G16RevA.03 25-Dec-2016

 ------------------
 #p CCSD(T)/CEP-31G
 ------------------

 ------------
 H2O_H2O_2747
 ------------
 Symbolic Z-matrix:
 Charge =  0 Multiplicity = 1

                         Standard orientation:
 ---------------------------------------------------------------------
 Center     Atomic      Atomic             Coordinates (Angstroms)
 Number     Number       Type             X           Y           Z
 ---------------------------------------------------------------------
      1          8           0        0.056732   -2.199048    0.000000
      2          1           0       -0.744075   -2.768445    0.000000
      3          1           0        0.855063   -2.771912    0.000000
      4          8           0        0.056732    2.298119    0.000000
      5          1           0       -0.403268    3.166397    0.000000
      6          1           0       -0.615434    1.581391    0.000000
 ---------------------------------------------------------------------

 SCF Done:  E(RHF) =  -33.6523995396     A.U. after   11 cycles
 E2 =    -0.2284340656D+00 EUMP2 =    -0.33880833605161D+02
 CCSD(T)
 CCSD(T)= -0.33897817010D+02

 The electronic state is 1-A'.
 Alpha  occ. eigenvalues --   -1.35754  -1.34227  -0.71391  -0.69816  -0.55526
 Alpha  occ. eigenvalues --   -0.53961  -0.50334  -0.48807
 Alpha virt. eigenvalues --    0.19830   0.21799   0.30262   0.31877   0.80215
 Alpha virt. eigenvalues --    0.81720   0.82380   0.85216   0.86256   0.88638
 Alpha virt. eigenvalues --    1.17171   1.18802   1.21583   1.23569   2.57160

 Mulliken charges:
               1
     1  O   -0.743176
     2  H    0.368159
     3  H    0.375207
     4  O   -0.742229
     5  H    0.362655
     6  H    0.379384
 Sum of Mulliken charges =  -0.00000

 Dipole moment (field-independent basis, Debye):
    X=             -2.6025    Y=             -2.3652    Z=              0.0000  Tot=              3.5167
 Quadrupole moment (field-independent basis, Debye-Ang):
   XX=            -10.1203   YY=              3.0886   ZZ=            -14.9906
   XY=             -5.9717   XZ=              0.0000   YZ=              0.0000

 P4DQ=-33.8921714\MP4SDQ=-33.8942027\CCSD=-33.8952519\CCSD(T)=-33.89781
 Normal termination of Gaussian 16 at Sun Dec 10 06:29:20 2023.
