 Gaussian 16, Revision A.03,
 Gaussian 16:  ES64L-G16RevA.03 25-Dec-2016

 ------------------
 #p CCSD(T)/CEP-31G
 ------------------

 -----------
 H2O_H2O_606
 -----------
 Symbolic Z-matrix:
 Charge =  0 Multiplicity = 1

                         Standard orientation:
 ---------------------------------------------------------------------
 Center     Atomic      Atomic             Coordinates (Angstroms)
 Number     Number       Type             X           Y           Z
 ---------------------------------------------------------------------
      1          8           0        0.021864   -1.118017    0.000000
      2          1           0       -0.778664   -1.687808    0.000000
      3          1           0        0.820476   -1.690489    0.000000
      4          8           0        0.021864    1.126639    0.000000
      5          1           0        0.543405    1.959406    0.000000
      6          1           0       -0.935034    1.349917    0.000000
 ---------------------------------------------------------------------

 SCF Done:  E(RHF) =  -33.6194162478     A.U. after   11 cycles
 E2 =    -0.2308798983D+00 EUMP2 =    -0.33850296146107D+02
 CCSD(T)
 CCSD(T)= -0.33867657020D+02

 The electronic state is 1-A'.
 Alpha  occ. eigenvalues --   -1.32939  -1.31375  -0.68369  -0.67189  -0.56242
 Alpha  occ. eigenvalues --   -0.47774  -0.45362  -0.45223
 Alpha virt. eigenvalues --    0.21311   0.25167   0.32663   0.33116   0.79554
 Alpha virt. eigenvalues --    0.79764   0.89809   0.96444   1.01007   1.13947
 Alpha virt. eigenvalues --    1.19850   1.23057   1.24574   1.27230   2.51863

 Mulliken charges:
               1
     1  O   -0.708611
     2  H    0.343233
     3  H    0.361263
     4  O   -0.692640
     5  H    0.349571
     6  H    0.347185
 Sum of Mulliken charges =   0.00000

 Dipole moment (field-independent basis, Debye):
    X=             -0.8955    Y=             -0.2037    Z=              0.0000  Tot=              0.9184
 Quadrupole moment (field-independent basis, Debye-Ang):
   XX=             -8.5668   YY=             -1.8984   ZZ=            -15.0062
   XY=             -0.6211   XZ=              0.0000   YZ=              0.0000

 4DQ=-33.8616204\MP4SDQ=-33.8637848\CCSD=-33.8648506\CCSD(T)=-33.867657
 Normal termination of Gaussian 16 at Sun Dec 10 06:36:04 2023.
