 Gaussian 16, Revision A.03,
 Gaussian 16:  ES64L-G16RevA.03 25-Dec-2016

 ------------------
 #p CCSD(T)/CEP-31G
 ------------------

 ------------
 H2O_H2O_4163
 ------------
 Symbolic Z-matrix:
 Charge =  0 Multiplicity = 1

                         Standard orientation:
 ---------------------------------------------------------------------
 Center     Atomic      Atomic             Coordinates (Angstroms)
 Number     Number       Type             X           Y           Z
 ---------------------------------------------------------------------
      1          8           0        0.042964   -2.989644    0.000000
      2          1           0       -0.757308   -3.559794    0.000000
      3          1           0        0.841833   -3.561758    0.000000
      4          8           0        0.042964    3.028450    0.000000
      5          1           0        0.141959    4.006052    0.000000
      6          1           0       -0.913905    2.805050    0.000000
 ---------------------------------------------------------------------

 SCF Done:  E(RHF) =  -33.6510224811     A.U. after   11 cycles
 E2 =    -0.2284281766D+00 EUMP2 =    -0.33879450657671D+02
 CCSD(T)
 CCSD(T)= -0.33896473015D+02

 The electronic state is 1-A'.
 Alpha  occ. eigenvalues --   -1.35222  -1.34900  -0.70852  -0.70521  -0.54915
 Alpha  occ. eigenvalues --   -0.54591  -0.49782  -0.49461
 Alpha virt. eigenvalues --    0.20506   0.20835   0.30742   0.31060   0.80771
 Alpha virt. eigenvalues --    0.81088   0.83868   0.84188   0.86952   0.87324
 Alpha virt. eigenvalues --    1.17647   1.17966   1.22111   1.22433   2.57682

 Mulliken charges:
               1
     1  O   -0.738414
     2  H    0.367940
     3  H    0.370474
     4  O   -0.738034
     5  H    0.366931
     6  H    0.371103
 Sum of Mulliken charges =  -0.00000

 Dipole moment (field-independent basis, Debye):
    X=             -1.9820    Y=             -0.9091    Z=              0.0000  Tot=              2.1805
 Quadrupole moment (field-independent basis, Debye-Ang):
   XX=             -9.2363   YY=             15.5232   ZZ=            -14.9875
   XY=             -5.1750   XZ=              0.0000   YZ=              0.0000

 MP4DQ=-33.8908229\MP4SDQ=-33.8928527\CCSD=-33.8939093\CCSD(T)=-33.8964
 Normal termination of Gaussian 16 at Sun Dec 10 06:55:04 2023.
