 Gaussian 16, Revision A.03,
 Gaussian 16:  ES64L-G16RevA.03 25-Dec-2016

 ------------------
 #p CCSD(T)/CEP-31G
 ------------------

 ------------
 H2O_H2O_2771
 ------------
 Symbolic Z-matrix:
 Charge =  0 Multiplicity = 1

                         Standard orientation:
 ---------------------------------------------------------------------
 Center     Atomic      Atomic             Coordinates (Angstroms)
 Number     Number       Type             X           Y           Z
 ---------------------------------------------------------------------
      1          8           0        0.056114   -2.216345    0.000000
      2          1           0       -0.744673   -2.785772    0.000000
      3          1           0        0.854465   -2.789180    0.000000
      4          8           0        0.056114    2.308048    0.000000
      5          1           0       -0.346145    3.204538    0.000000
      6          1           0       -0.661466    1.636791    0.000000
 ---------------------------------------------------------------------

 SCF Done:  E(RHF) =  -33.6520896075     A.U. after   11 cycles
 E2 =    -0.2284430664D+00 EUMP2 =    -0.33880532673988D+02
 CCSD(T)
 CCSD(T)= -0.33897524896D+02

 The electronic state is 1-A'.
 Alpha  occ. eigenvalues --   -1.35655  -1.34261  -0.71290  -0.69851  -0.55409
 Alpha  occ. eigenvalues --   -0.53984  -0.50230  -0.48837
 Alpha virt. eigenvalues --    0.19945   0.21719   0.30347   0.31810   0.80318
 Alpha virt. eigenvalues --    0.81694   0.82449   0.85195   0.86389   0.88645
 Alpha virt. eigenvalues --    1.17258   1.18731   1.21675   1.23402   2.57267

 Mulliken charges:
               1
     1  O   -0.742151
     2  H    0.367673
     3  H    0.374617
     4  O   -0.740997
     5  H    0.362672
     6  H    0.378185
 Sum of Mulliken charges =  -0.00000

 Dipole moment (field-independent basis, Debye):
    X=             -2.5746    Y=             -2.1869    Z=              0.0000  Tot=              3.3781
 Quadrupole moment (field-independent basis, Debye-Ang):
   XX=            -10.0754   YY=              3.9283   ZZ=            -14.9901
   XY=             -5.8090   XZ=              0.0000   YZ=              0.0000

 P4DQ=-33.8918782\MP4SDQ=-33.8939092\CCSD=-33.8949597\CCSD(T)=-33.89752
 Normal termination of Gaussian 16 at Sun Dec 10 06:29:47 2023.
