 Gaussian 16, Revision A.03,
 Gaussian 16:  ES64L-G16RevA.03 25-Dec-2016

 ------------------
 #p CCSD(T)/CEP-31G
 ------------------

 ------------
 H2O_H2O_1861
 ------------
 Symbolic Z-matrix:
 Charge =  0 Multiplicity = 1

                         Standard orientation:
 ---------------------------------------------------------------------
 Center     Atomic      Atomic             Coordinates (Angstroms)
 Number     Number       Type             X           Y           Z
 ---------------------------------------------------------------------
      1          8           0        0.037683   -1.772174    0.000000
      2          1           0       -0.762923   -2.341854    0.000000
      3          1           0        0.836216   -2.344756    0.000000
      4          8           0        0.037683    1.800384    0.000000
      5          1           0        0.263995    2.756569    0.000000
      6          1           0       -0.940217    1.704364    0.000000
 ---------------------------------------------------------------------

 SCF Done:  E(RHF) =  -33.6474056721     A.U. after   11 cycles
 E2 =    -0.2288386558D+00 EUMP2 =    -0.33876244327955D+02
 CCSD(T)
 CCSD(T)= -0.33893392745D+02

 The electronic state is 1-A'.
 Alpha  occ. eigenvalues --   -1.34412  -1.33718  -0.70038  -0.69304  -0.54058
 Alpha  occ. eigenvalues --   -0.53014  -0.48929  -0.48227
 Alpha virt. eigenvalues --    0.20593   0.22335   0.31351   0.32016   0.76349
 Alpha virt. eigenvalues --    0.80672   0.83269   0.85553   0.89363   1.00982
 Alpha virt. eigenvalues --    1.18304   1.19256   1.22811   1.23585   2.57943

 Mulliken charges:
               1
     1  O   -0.726483
     2  H    0.358738
     3  H    0.367981
     4  O   -0.723096
     5  H    0.355315
     6  H    0.367545
 Sum of Mulliken charges =   0.00000

 Dipole moment (field-independent basis, Debye):
    X=             -1.7088    Y=             -0.6923    Z=              0.0000  Tot=              1.8437
 Quadrupole moment (field-independent basis, Debye-Ang):
   XX=             -8.9948   YY=              5.1146   ZZ=            -14.9855
   XY=             -2.3502   XZ=              0.0000   YZ=              0.0000

 \MP4DQ=-33.887681\MP4SDQ=-33.8897436\CCSD=-33.8907967\CCSD(T)=-33.8933
 Normal termination of Gaussian 16 at Sun Dec 10 06:59:27 2023.
