 Gaussian 16, Revision A.03,
 Gaussian 16:  ES64L-G16RevA.03 25-Dec-2016

 ------------------
 #p CCSD(T)/CEP-31G
 ------------------

 ------------
 H2O_H2O_2086
 ------------
 Symbolic Z-matrix:
 Charge =  0 Multiplicity = 1

                         Standard orientation:
 ---------------------------------------------------------------------
 Center     Atomic      Atomic             Coordinates (Angstroms)
 Number     Number       Type             X           Y           Z
 ---------------------------------------------------------------------
      1          8           0        0.037681   -1.891833    0.000000
      2          1           0       -0.762860   -2.461604    0.000000
      3          1           0        0.836280   -2.464324    0.000000
      4          8           0        0.037681    1.920051    0.000000
      5          1           0        0.263884    2.876261    0.000000
      6          1           0       -0.940207    1.823919    0.000000
 ---------------------------------------------------------------------

 SCF Done:  E(RHF) =  -33.6482011101     A.U. after   11 cycles
 E2 =    -0.2287253119D+00 EUMP2 =    -0.33876926422013D+02
 CCSD(T)
 CCSD(T)= -0.33894039425D+02

 The electronic state is 1-A'.
 Alpha  occ. eigenvalues --   -1.34537  -1.33929  -0.70163  -0.69522  -0.54143
 Alpha  occ. eigenvalues --   -0.53359  -0.49060  -0.48451
 Alpha virt. eigenvalues --    0.20649   0.22010   0.31264   0.31852   0.78019
 Alpha virt. eigenvalues --    0.80962   0.82616   0.86003   0.88493   0.96425
 Alpha virt. eigenvalues --    1.18214   1.18921   1.22696   1.23367   2.57985

 Mulliken charges:
               1
     1  O   -0.728888
     2  H    0.360634
     3  H    0.368420
     4  O   -0.726365
     5  H    0.357789
     6  H    0.368410
 Sum of Mulliken charges =  -0.00000

 Dipole moment (field-independent basis, Debye):
    X=             -1.7159    Y=             -0.6856    Z=              0.0000  Tot=              1.8478
 Quadrupole moment (field-independent basis, Debye-Ang):
   XX=             -8.9862   YY=              6.2856   ZZ=            -14.9857
   XY=             -2.5458   XZ=              0.0000   YZ=              0.0000

 \MP4DQ=-33.8883491\MP4SDQ=-33.8903997\CCSD=-33.8914535\CCSD(T)=-33.894
 Normal termination of Gaussian 16 at Sun Dec 10 07:04:56 2023.
