 Gaussian 16, Revision A.03,
 Gaussian 16:  ES64L-G16RevA.03 25-Dec-2016

 ------------------
 #p CCSD(T)/CEP-31G
 ------------------

 -----------
 H2O_H2O_455
 -----------
 Symbolic Z-matrix:
 Charge =  0 Multiplicity = 1

                         Standard orientation:
 ---------------------------------------------------------------------
 Center     Atomic      Atomic             Coordinates (Angstroms)
 Number     Number       Type             X           Y           Z
 ---------------------------------------------------------------------
      1          8           0        0.018363   -1.039663    0.000000
      2          1           0       -0.782073   -1.609582    0.000000
      3          1           0        0.817067   -1.612006    0.000000
      4          8           0        0.018363    1.045669    0.000000
      5          1           0        0.593126    1.842635    0.000000
      6          1           0       -0.921928    1.330903    0.000000
 ---------------------------------------------------------------------

 SCF Done:  E(RHF) =  -33.6038150670     A.U. after   11 cycles
 E2 =    -0.2317905184D+00 EUMP2 =    -0.33835605585358D+02
 CCSD(T)
 CCSD(T)= -0.33852848430D+02

 The electronic state is 1-A'.
 Alpha  occ. eigenvalues --   -1.33119  -1.30762  -0.68385  -0.66713  -0.57778
 Alpha  occ. eigenvalues --   -0.48034  -0.44467  -0.42807
 Alpha virt. eigenvalues --    0.21392   0.25803   0.32712   0.33314   0.79249
 Alpha virt. eigenvalues --    0.80414   0.90164   0.97509   1.01368   1.17857
 Alpha virt. eigenvalues --    1.20109   1.23192   1.25337   1.27679   2.49575

 Mulliken charges:
               1
     1  O   -0.706872
     2  H    0.342297
     3  H    0.360705
     4  O   -0.692383
     5  H    0.350993
     6  H    0.345259
 Sum of Mulliken charges =  -0.00000

 Dipole moment (field-independent basis, Debye):
    X=             -0.7264    Y=             -0.1411    Z=              0.0000  Tot=              0.7400
 Quadrupole moment (field-independent basis, Debye-Ang):
   XX=             -8.5171   YY=             -3.1427   ZZ=            -15.0172
   XY=             -0.4514   XZ=              0.0000   YZ=              0.0000

 MP4DQ=-33.8466999\MP4SDQ=-33.8489253\CCSD=-33.8499469\CCSD(T)=-33.8528
 Normal termination of Gaussian 16 at Sun Dec 10 06:33:17 2023.
