 Gaussian 16, Revision A.03,
 Gaussian 16:  ES64L-G16RevA.03 25-Dec-2016

 ------------------
 #p CCSD(T)/CEP-31G
 ------------------

 -----------
 H2O_H2O_881
 -----------
 Symbolic Z-matrix:
 Charge =  0 Multiplicity = 1

                         Standard orientation:
 ---------------------------------------------------------------------
 Center     Atomic      Atomic             Coordinates (Angstroms)
 Number     Number       Type             X           Y           Z
 ---------------------------------------------------------------------
      1          8           0        0.021863   -1.264268    0.000000
      2          1           0       -0.778555   -1.834213    0.000000
      3          1           0        0.820586   -1.836585    0.000000
      4          8           0        0.021863    1.272898    0.000000
      5          1           0        0.543244    2.105766    0.000000
      6          1           0       -0.935077    1.495992    0.000000
 ---------------------------------------------------------------------

 SCF Done:  E(RHF) =  -33.6330209771     A.U. after   11 cycles
 E2 =    -0.2299496680D+00 EUMP2 =    -0.33862970645159D+02
 CCSD(T)
 CCSD(T)= -0.33880400058D+02

 The electronic state is 1-A'.
 Alpha  occ. eigenvalues --   -1.32975  -1.32214  -0.68525  -0.67884  -0.54674
 Alpha  occ. eigenvalues --   -0.48365  -0.47674  -0.46277
 Alpha virt. eigenvalues --    0.21255   0.24180   0.32490   0.32824   0.79317
 Alpha virt. eigenvalues --    0.80128   0.87503   0.88560   1.01663   1.12234
 Alpha virt. eigenvalues --    1.19518   1.22213   1.24199   1.25499   2.55977

 Mulliken charges:
               1
     1  O   -0.707132
     2  H    0.345971
     3  H    0.359238
     4  O   -0.698053
     5  H    0.348243
     6  H    0.351733
 Sum of Mulliken charges =   0.00000

 Dipole moment (field-independent basis, Debye):
    X=             -0.9375    Y=             -0.2095    Z=              0.0000  Tot=              0.9606
 Quadrupole moment (field-independent basis, Debye-Ang):
   XX=             -8.5221   YY=              0.1534   ZZ=            -14.9934
   XY=             -0.7564   XZ=              0.0000   YZ=              0.0000

 Q=-33.8744855\MP4SDQ=-33.8766015\CCSD=-33.8776924\CCSD(T)=-33.8804001\
 Normal termination of Gaussian 16 at Sun Dec 10 06:41:14 2023.
