 Gaussian 16, Revision A.03,
 Gaussian 16:  ES64L-G16RevA.03 25-Dec-2016

 ------------------
 #p CCSD(T)/CEP-31G
 ------------------

 ------------
 H2O_H2O_1138
 ------------
 Symbolic Z-matrix:
 Charge =  0 Multiplicity = 1

                         Standard orientation:
 ---------------------------------------------------------------------
 Center     Atomic      Atomic             Coordinates (Angstroms)
 Number     Number       Type             X           Y           Z
 ---------------------------------------------------------------------
      1          8           0        0.042991   -1.380902    0.000000
      2          1           0       -0.758085   -1.949922    0.000000
      3          1           0        0.841052   -1.954143    0.000000
      4          8           0        0.042991    1.419587    0.000000
      5          1           0        0.143366    2.397049    0.000000
      6          1           0       -0.914192    1.197537    0.000000
 ---------------------------------------------------------------------

 SCF Done:  E(RHF) =  -33.6432908947     A.U. after   11 cycles
 E2 =    -0.2295573745D+00 EUMP2 =    -0.33872848269194D+02
 CCSD(T)
 CCSD(T)= -0.33890171755D+02

 The electronic state is 1-A'.
 Alpha  occ. eigenvalues --   -1.34158  -1.32668  -0.69787  -0.68271  -0.54329
 Alpha  occ. eigenvalues --   -0.51132  -0.48709  -0.47084
 Alpha virt. eigenvalues --    0.20362   0.24058   0.31533   0.32736   0.78905
 Alpha virt. eigenvalues --    0.80002   0.83737   0.86793   0.93438   1.15500
 Alpha virt. eigenvalues --    1.18472   1.22475   1.23131   1.26600   2.59801

 Mulliken charges:
               1
     1  O   -0.725047
     2  H    0.351877
     3  H    0.371312
     4  O   -0.707644
     5  H    0.345042
     6  H    0.364460
 Sum of Mulliken charges =   0.00000

 Dipole moment (field-independent basis, Debye):
    X=             -1.8896    Y=             -0.9660    Z=              0.0000  Tot=              2.1222
 Quadrupole moment (field-independent basis, Debye-Ang):
   XX=             -9.2925   YY=              0.6987   ZZ=            -14.9887
   XY=             -2.1034   XZ=              0.0000   YZ=              0.0000

 MP4DQ=-33.8843287\MP4SDQ=-33.8864484\CCSD=-33.8875142\CCSD(T)=-33.8901
 Normal termination of Gaussian 16 at Sun Dec 10 06:46:02 2023.
