 Gaussian 16, Revision A.03,
 Gaussian 16:  ES64L-G16RevA.03 25-Dec-2016

 ------------------
 #p CCSD(T)/CEP-31G
 ------------------

 ------------
 H2O_H2O_1441
 ------------
 Symbolic Z-matrix:
 Charge =  0 Multiplicity = 1

                         Standard orientation:
 ---------------------------------------------------------------------
 Center     Atomic      Atomic             Coordinates (Angstroms)
 Number     Number       Type             X           Y           Z
 ---------------------------------------------------------------------
      1          8           0        0.049539   -1.530592    0.000000
      2          1           0       -0.751589   -2.099538    0.000000
      3          1           0        0.847547   -2.103906    0.000000
      4          8           0        0.049539    1.587435    0.000000
      5          1           0       -0.042618    2.565705    0.000000
      6          1           0       -0.845969    1.182996    0.000000
 ---------------------------------------------------------------------

 SCF Done:  E(RHF) =  -33.6482340532     A.U. after   11 cycles
 E2 =    -0.2291561497D+00 EUMP2 =    -0.33877390202838D+02
 CCSD(T)
 CCSD(T)= -0.33894567757D+02

 The electronic state is 1-A'.
 Alpha  occ. eigenvalues --   -1.34889  -1.33044  -0.70527  -0.68608  -0.54592
 Alpha  occ. eigenvalues --   -0.52413  -0.49430  -0.47573
 Alpha virt. eigenvalues --    0.19914   0.23646   0.30916   0.32722   0.75969
 Alpha virt. eigenvalues --    0.79272   0.84947   0.85332   0.89616   1.10951
 Alpha virt. eigenvalues --    1.17801   1.21293   1.22446   1.25754   2.57777

 Mulliken charges:
               1
     1  O   -0.732206
     2  H    0.357617
     3  H    0.374910
     4  O   -0.722124
     5  H    0.348382
     6  H    0.373421
 Sum of Mulliken charges =   0.00000

 Dipole moment (field-independent basis, Debye):
    X=             -2.2145    Y=             -1.4192    Z=              0.0000  Tot=              2.6302
 Quadrupole moment (field-independent basis, Debye-Ang):
   XX=             -9.6393   YY=              1.3520   ZZ=            -14.9891
   XY=             -3.0309   XZ=              0.0000   YZ=              0.0000

 2\MP4DQ=-33.8888006\MP4SDQ=-33.8908961\CCSD=-33.8919438\CCSD(T)=-33.89
 Normal termination of Gaussian 16 at Sun Dec 10 06:51:41 2023.
