 Gaussian 16, Revision A.03,
 Gaussian 16:  ES64L-G16RevA.03 25-Dec-2016

 ------------------
 #p CCSD(T)/CEP-31G
 ------------------

 -----------
 H2O_H2O_471
 -----------
 Symbolic Z-matrix:
 Charge =  0 Multiplicity = 1

                         Standard orientation:
 ---------------------------------------------------------------------
 Center     Atomic      Atomic             Coordinates (Angstroms)
 Number     Number       Type             X           Y           Z
 ---------------------------------------------------------------------
      1          8           0        0.056229   -0.993269    0.000000
      2          1           0       -0.745985   -1.560684    0.000000
      3          1           0        0.853140   -1.568105    0.000000
      4          8           0        0.056229    1.084690    0.000000
      5          1           0       -0.343779    1.982186    0.000000
      6          1           0       -0.663033    0.415235    0.000000
 ---------------------------------------------------------------------

 SCF Done:  E(RHF) =  -33.6109914051     A.U. after   11 cycles
 E2 =    -0.2318553320D+00 EUMP2 =    -0.33842846737077D+02
 CCSD(T)
 CCSD(T)= -0.33859461358D+02

 The electronic state is 1-A'.
 Alpha  occ. eigenvalues --   -1.37600  -1.30023  -0.73627  -0.69665  -0.52369
 Alpha  occ. eigenvalues --   -0.51894  -0.49427  -0.44437
 Alpha virt. eigenvalues --    0.19093   0.28215   0.29337   0.36177   0.77632
 Alpha virt. eigenvalues --    0.84642   0.89978   0.94731   0.99152   1.14447
 Alpha virt. eigenvalues --    1.18987   1.21990   1.28414   1.31746   2.72956

 Mulliken charges:
               1
     1  O   -0.790673
     2  H    0.364370
     3  H    0.421144
     4  O   -0.686934
     5  H    0.314875
     6  H    0.377217
 Sum of Mulliken charges =   0.00000

 Dipole moment (field-independent basis, Debye):
    X=             -2.2404    Y=             -2.4588    Z=              0.0000  Tot=              3.3265
 Quadrupole moment (field-independent basis, Debye-Ang):
   XX=            -10.0497   YY=             -5.4264   ZZ=            -14.9931
   XY=             -2.6453   XZ=              0.0000   YZ=              0.0000

 \MP4DQ=-33.8532285\MP4SDQ=-33.8555579\CCSD=-33.8564339\CCSD(T)=-33.859
 Normal termination of Gaussian 16 at Sun Dec 10 06:33:34 2023.
