 Gaussian 16, Revision A.03,
 Gaussian 16:  ES64L-G16RevA.03 25-Dec-2016

 ------------------
 #p CCSD(T)/CEP-31G
 ------------------

 ------------
 H2O_H2O_1345
 ------------
 Symbolic Z-matrix:
 Charge =  0 Multiplicity = 1

                         Standard orientation:
 ---------------------------------------------------------------------
 Center     Atomic      Atomic             Coordinates (Angstroms)
 Number     Number       Type             X           Y           Z
 ---------------------------------------------------------------------
      1          8           0        0.055300   -1.462489    0.000000
      2          1           0       -0.746069   -2.031094    0.000000
      3          1           0        0.853065   -2.036141    0.000000
      4          8           0        0.055300    1.546802    0.000000
      5          1           0       -0.286521    2.468033    0.000000
      6          1           0       -0.705282    0.924693    0.000000
 ---------------------------------------------------------------------

 SCF Done:  E(RHF) =  -33.6512005972     A.U. after   11 cycles
 E2 =    -0.2292445859D+00 EUMP2 =    -0.33880445183053D+02
 CCSD(T)
 CCSD(T)= -0.33897541048D+02

 The electronic state is 1-A'.
 Alpha  occ. eigenvalues --   -1.35689  -1.32657  -0.71338  -0.68288  -0.55384
 Alpha  occ. eigenvalues --   -0.52325  -0.50265  -0.47232
 Alpha virt. eigenvalues --    0.19364   0.24560   0.30287   0.33709   0.76845
 Alpha virt. eigenvalues --    0.78416   0.85390   0.86646   0.89634   1.11655
 Alpha virt. eigenvalues --    1.17121   1.20683   1.22126   1.28302   2.56134

 Mulliken charges:
               1
     1  O   -0.744892
     2  H    0.361791
     3  H    0.383952
     4  O   -0.731972
     5  H    0.346149
     6  H    0.384971
 Sum of Mulliken charges =  -0.00000

 Dipole moment (field-independent basis, Debye):
    X=             -2.4619    Y=             -2.1284    Z=              0.0000  Tot=              3.2544
 Quadrupole moment (field-independent basis, Debye-Ang):
   XX=            -10.0006   YY=             -0.7244   ZZ=            -14.9945
   XY=             -3.7151   XZ=              0.0000   YZ=              0.0000

 MP4DQ=-33.8917543\MP4SDQ=-33.8938613\CCSD=-33.8948963\CCSD(T)=-33.8975
 Normal termination of Gaussian 16 at Sun Dec 10 06:49:54 2023.
