 Gaussian 16, Revision A.03,
 Gaussian 16:  ES64L-G16RevA.03 25-Dec-2016

 ------------------
 #p CCSD(T)/CEP-31G
 ------------------

 ------------
 H2O_H2O_1021
 ------------
 Symbolic Z-matrix:
 Charge =  0 Multiplicity = 1

                         Standard orientation:
 ---------------------------------------------------------------------
 Center     Atomic      Atomic             Coordinates (Angstroms)
 Number     Number       Type             X           Y           Z
 ---------------------------------------------------------------------
      1          8           0        0.056182   -1.285719    0.000000
      2          1           0       -0.745452   -1.853951    0.000000
      3          1           0        0.853679   -1.859743    0.000000
      4          8           0        0.056182    1.377255    0.000000
      5          1           0       -0.344741    2.274342    0.000000
      6          1           0       -0.662397    0.707067    0.000000
 ---------------------------------------------------------------------

 SCF Done:  E(RHF) =  -33.6494245188     A.U. after   11 cycles
 E2 =    -0.2297955911D+00 EUMP2 =    -0.33879220109912D+02
 CCSD(T)
 CCSD(T)= -0.33896265261D+02

 The electronic state is 1-A'.
 Alpha  occ. eigenvalues --   -1.36093  -1.31857  -0.71758  -0.67970  -0.55410
 Alpha  occ. eigenvalues --   -0.51594  -0.50686  -0.46418
 Alpha virt. eigenvalues --    0.19203   0.25853   0.30015   0.34939   0.77355
 Alpha virt. eigenvalues --    0.80237   0.87344   0.87877   0.94140   1.14023
 Alpha virt. eigenvalues --    1.18931   1.19905   1.22730   1.30030   2.61654

 Mulliken charges:
               1
     1  O   -0.758057
     2  H    0.362703
     3  H    0.395142
     4  O   -0.726262
     5  H    0.338066
     6  H    0.388407
 Sum of Mulliken charges =  -0.00000

 Dipole moment (field-independent basis, Debye):
    X=             -2.4421    Y=             -2.3605    Z=              0.0000  Tot=              3.3964
 Quadrupole moment (field-independent basis, Debye-Ang):
   XX=            -10.0529   YY=             -2.5393   ZZ=            -15.0004
   XY=             -3.4550   XZ=              0.0000   YZ=              0.0000

 4\MP4DQ=-33.8903759\MP4SDQ=-33.8925283\CCSD=-33.8935427\CCSD(T)=-33.89
 Normal termination of Gaussian 16 at Sun Dec 10 06:43:51 2023.
