 Gaussian 16, Revision A.03,
 Gaussian 16:  ES64L-G16RevA.03 25-Dec-2016

 ------------------
 #p CCSD(T)/CEP-31G
 ------------------

 ------------
 H2O_H2O_2491
 ------------
 Symbolic Z-matrix:
 Charge =  0 Multiplicity = 1

                         Standard orientation:
 ---------------------------------------------------------------------
 Center     Atomic      Atomic             Coordinates (Angstroms)
 Number     Number       Type             X           Y           Z
 ---------------------------------------------------------------------
      1          8           0        0.049519   -2.088983    0.000000
      2          1           0       -0.751199   -2.658506    0.000000
      3          1           0        0.847940   -2.661721    0.000000
      4          8           0        0.049519    2.145897    0.000000
      5          1           0       -0.043343    3.124102    0.000000
      6          1           0       -0.845698    1.740813    0.000000
 ---------------------------------------------------------------------

 SCF Done:  E(RHF) =  -33.6505050895     A.U. after   11 cycles
 E2 =    -0.2285486495D+00 EUMP2 =    -0.33879053739035D+02
 CCSD(T)
 CCSD(T)= -0.33896093302D+02

 The electronic state is 1-A'.
 Alpha  occ. eigenvalues --   -1.35151  -1.34160  -0.70782  -0.69749  -0.54815
 Alpha  occ. eigenvalues --   -0.53807  -0.49703  -0.48717
 Alpha virt. eigenvalues --    0.20319   0.21757   0.30755   0.31777   0.80774
 Alpha virt. eigenvalues --    0.81091   0.81891   0.85691   0.87057   0.90927
 Alpha virt. eigenvalues --    1.17695   1.18762   1.22113   1.23280   2.57699

 Mulliken charges:
               1
     1  O   -0.736724
     2  H    0.364612
     3  H    0.372231
     4  O   -0.734544
     5  H    0.360736
     6  H    0.373689
 Sum of Mulliken charges =  -0.00000

 Dipole moment (field-independent basis, Debye):
    X=             -2.2662    Y=             -1.3637    Z=              0.0000  Tot=              2.6449
 Quadrupole moment (field-independent basis, Debye-Ang):
   XX=             -9.6288   YY=              6.0716   ZZ=            -14.9879
   XY=             -4.2542   XZ=              0.0000   YZ=              0.0000

 5\MP4DQ=-33.8904329\MP4SDQ=-33.8924691\CCSD=-33.8935217\CCSD(T)=-33.89
 Normal termination of Gaussian 16 at Sun Dec 10 07:12:13 2023.
