 Gaussian 16, Revision A.03,
 Gaussian 16:  ES64L-G16RevA.03 25-Dec-2016

 ------------------
 #p CCSD(T)/CEP-31G
 ------------------

 ------------
 H2O_H2O_3504
 ------------
 Symbolic Z-matrix:
 Charge =  0 Multiplicity = 1

                         Standard orientation:
 ---------------------------------------------------------------------
 Center     Atomic      Atomic             Coordinates (Angstroms)
 Number     Number       Type             X           Y           Z
 ---------------------------------------------------------------------
      1          8           0        0.014783   -2.662920    0.000000
      2          1           0       -0.785061   -3.233670    0.000000
      3          1           0        0.814081   -3.234434    0.000000
      4          8           0        0.014783    2.666798    0.000000
      5          1           0        0.639652    3.425115    0.000000
      6          1           0       -0.905199    3.011964    0.000000
 ---------------------------------------------------------------------

 SCF Done:  E(RHF) =  -33.6498740422     A.U. after   11 cycles
 E2 =    -0.2284868857D+00 EUMP2 =    -0.33878360927963D+02
 CCSD(T)
 CCSD(T)= -0.33895416384D+02

 The electronic state is 1-A'.
 Alpha  occ. eigenvalues --   -1.34784  -1.34743  -0.70410  -0.70367  -0.54412
 Alpha  occ. eigenvalues --   -0.54367  -0.49327  -0.49286
 Alpha virt. eigenvalues --    0.20875   0.20932   0.31111   0.31151   0.81224
 Alpha virt. eigenvalues --    0.81269   0.84214   0.84718   0.87463   0.87534
 Alpha virt. eigenvalues --    1.18037   1.18077   1.22511   1.22552   2.58098

 Mulliken charges:
               1
     1  O   -0.734382
     2  H    0.366570
     3  H    0.367812
     4  O   -0.734282
     5  H    0.366309
     6  H    0.367974
 Sum of Mulliken charges =  -0.00000

 Dipole moment (field-independent basis, Debye):
    X=             -0.6808    Y=             -0.0913    Z=              0.0000  Tot=              0.6869
 Quadrupole moment (field-independent basis, Debye-Ang):
   XX=             -8.1915   YY=             15.8613   ZZ=            -14.9860
   XY=             -1.3840   XZ=              0.0000   YZ=              0.0000

 4DQ=-33.8897571\MP4SDQ=-33.89179\CCSD=-33.8928486\CCSD(T)=-33.8954164\
 Normal termination of Gaussian 16 at Sun Dec 10 06:42:57 2023.
