 Gaussian 16, Revision A.03,
 Gaussian 16:  ES64L-G16RevA.03 25-Dec-2016

 ------------------
 #p CCSD(T)/CEP-31G
 ------------------

 ------------
 H2O_H2O_1270
 ------------
 Symbolic Z-matrix:
 Charge =  0 Multiplicity = 1

                         Standard orientation:
 ---------------------------------------------------------------------
 Center     Atomic      Atomic             Coordinates (Angstroms)
 Number     Number       Type             X           Y           Z
 ---------------------------------------------------------------------
      1          8           0        0.055304   -1.422606    0.000000
      2          1           0       -0.746114   -1.991143    0.000000
      3          1           0        0.853019   -1.996327    0.000000
      4          8           0        0.055304    1.506910    0.000000
      5          1           0       -0.286438    2.428169    0.000000
      6          1           0       -0.705332    0.884866    0.000000
 ---------------------------------------------------------------------

 SCF Done:  E(RHF) =  -33.6508500318     A.U. after   11 cycles
 E2 =    -0.2293537155D+00 EUMP2 =    -0.33880203747291D+02
 CCSD(T)
 CCSD(T)= -0.33897307827D+02

 The electronic state is 1-A'.
 Alpha  occ. eigenvalues --   -1.35703  -1.32512  -0.71355  -0.68188  -0.55366
 Alpha  occ. eigenvalues --   -0.52173  -0.50281  -0.47084
 Alpha virt. eigenvalues --    0.19362   0.24802   0.30287   0.33869   0.77456
 Alpha virt. eigenvalues --    0.78194   0.85823   0.86823   0.90359   1.13115
 Alpha virt. eigenvalues --    1.17220   1.20603   1.22216   1.28626   2.56998

 Mulliken charges:
               1
     1  O   -0.746211
     2  H    0.361425
     3  H    0.385372
     4  O   -0.730268
     5  H    0.344565
     6  H    0.385116
 Sum of Mulliken charges =   0.00000

 Dipole moment (field-independent basis, Debye):
    X=             -2.4513    Y=             -2.1359    Z=              0.0000  Tot=              3.2513
 Quadrupole moment (field-independent basis, Debye-Ang):
   XX=             -9.9999   YY=             -1.0370   ZZ=            -14.9952
   XY=             -3.6159   XZ=              0.0000   YZ=              0.0000

 P4DQ=-33.8915014\MP4SDQ=-33.8936171\CCSD=-33.8946509\CCSD(T)=-33.89730
 Normal termination of Gaussian 16 at Sun Dec 10 06:48:30 2023.
