 Gaussian 16, Revision A.03,
 Gaussian 16:  ES64L-G16RevA.03 25-Dec-2016

 ------------------
 #p CCSD(T)/CEP-31G
 ------------------

 ------------
 H2O_H2O_1670
 ------------
 Symbolic Z-matrix:
 Charge =  0 Multiplicity = 1

                         Standard orientation:
 ---------------------------------------------------------------------
 Center     Atomic      Atomic             Coordinates (Angstroms)
 Number     Number       Type             X           Y           Z
 ---------------------------------------------------------------------
      1          8           0        0.055287   -1.635317    0.000000
      2          1           0       -0.745898   -2.204183    0.000000
      3          1           0        0.853238   -2.208710    0.000000
      4          8           0        0.055287    1.719667    0.000000
      5          1           0       -0.286834    2.640785    0.000000
      6          1           0       -0.705093    1.097310    0.000000
 ---------------------------------------------------------------------

 SCF Done:  E(RHF) =  -33.6518455786     A.U. after   11 cycles
 E2 =    -0.2288889857D+00 EUMP2 =    -0.33880734564242D+02
 CCSD(T)
 CCSD(T)= -0.33897785379D+02

 The electronic state is 1-A'.
 Alpha  occ. eigenvalues --   -1.35645  -1.33196  -0.71288  -0.68754  -0.55386
 Alpha  occ. eigenvalues --   -0.52885  -0.50218  -0.47777
 Alpha virt. eigenvalues --    0.19400   0.23605   0.30284   0.33078   0.76192
 Alpha virt. eigenvalues --    0.79336   0.83796   0.86210   0.87498   1.04098
 Alpha virt. eigenvalues --    1.17172   1.20497   1.21802   1.26813   2.55134

 Mulliken charges:
               1
     1  O   -0.741958
     2  H    0.363546
     3  H    0.379583
     4  O   -0.736487
     5  H    0.352013
     6  H    0.383304
 Sum of Mulliken charges =  -0.00000

 Dipole moment (field-independent basis, Debye):
    X=             -2.4948    Y=             -2.0957    Z=              0.0000  Tot=              3.2583
 Quadrupole moment (field-independent basis, Debye-Ang):
   XX=            -10.0038   YY=              0.5728   ZZ=            -14.9922
   XY=             -4.1426   XZ=              0.0000   YZ=              0.0000

 \MP4DQ=-33.8920645\MP4SDQ=-33.8941405\CCSD=-33.8951781\CCSD(T)=-33.897
 Normal termination of Gaussian 16 at Sun Dec 10 06:55:56 2023.
