 Gaussian 16, Revision A.03,
 Gaussian 16:  ES64L-G16RevA.03 25-Dec-2016

 ------------------
 #p CCSD(T)/CEP-31G
 ------------------

 ----------
 H2O_H2O_63
 ----------
 Symbolic Z-matrix:
 Charge =  0 Multiplicity = 1

                         Standard orientation:
 ---------------------------------------------------------------------
 Center     Atomic      Atomic             Coordinates (Angstroms)
 Number     Number       Type             X           Y           Z
 ---------------------------------------------------------------------
      1          8           0        0.043026   -0.809260    0.000000
      2          1           0       -0.759085   -1.376819    0.000000
      3          1           0        0.840041   -1.383954    0.000000
      4          8           0        0.043026    0.847788    0.000000
      5          1           0        0.145182    1.825065    0.000000
      6          1           0       -0.914560    0.627482    0.000000
 ---------------------------------------------------------------------

 SCF Done:  E(RHF) =  -33.4938664892     A.U. after   12 cycles
 E2 =    -0.2373369541D+00 EUMP2 =    -0.33731203443298D+02
 CCSD(T)
 CCSD(T)= -0.33747966567D+02

 The electronic state is 1-A'.
 Alpha  occ. eigenvalues --   -1.38924  -1.28855  -0.74078  -0.69717  -0.58566
 Alpha  occ. eigenvalues --   -0.52858  -0.42901  -0.35910
 Alpha virt. eigenvalues --    0.20069   0.28899   0.30993   0.33476   0.81228
 Alpha virt. eigenvalues --    0.84439   0.88976   0.93714   0.97408   1.20125
 Alpha virt. eigenvalues --    1.21233   1.25939   1.26241   1.39337   2.58744

 Mulliken charges:
               1
     1  O   -0.748387
     2  H    0.335223
     3  H    0.394223
     4  O   -0.641673
     5  H    0.313183
     6  H    0.347431
 Sum of Mulliken charges =  -0.00000

 Dipole moment (field-independent basis, Debye):
    X=             -1.5348    Y=             -1.0275    Z=              0.0000  Tot=              1.8470
 Quadrupole moment (field-independent basis, Debye-Ang):
   XX=             -9.4234   YY=             -7.7722   ZZ=            -14.9443
   XY=             -1.1222   XZ=              0.0000   YZ=              0.0000

 P4DQ=-33.7411113\MP4SDQ=-33.7438784\CCSD=-33.7444629\CCSD(T)=-33.74796
 Normal termination of Gaussian 16 at Sun Dec 10 06:25:54 2023.
