 Gaussian 16, Revision A.03,
 Gaussian 16:  ES64L-G16RevA.03 25-Dec-2016

 ------------------
 #p CCSD(T)/CEP-31G
 ------------------

 ------------
 H2O_H2O_2956
 ------------
 Symbolic Z-matrix:
 Charge =  0 Multiplicity = 1

                         Standard orientation:
 ---------------------------------------------------------------------
 Center     Atomic      Atomic             Coordinates (Angstroms)
 Number     Number       Type             X           Y           Z
 ---------------------------------------------------------------------
      1          8           0        0.021860   -2.367813    0.000000
      2          1           0       -0.778164   -2.938310    0.000000
      3          1           0        0.820977   -2.939579    0.000000
      4          8           0        0.021860    2.376473    0.000000
      5          1           0        0.542666    3.209700    0.000000
      6          1           0       -0.935234    2.598906    0.000000
 ---------------------------------------------------------------------

 SCF Done:  E(RHF) =  -33.6492394462     A.U. after   11 cycles
 E2 =    -0.2285349990D+00 EUMP2 =    -0.33877774445222D+02
 CCSD(T)
 CCSD(T)= -0.33894848523D+02

 The electronic state is 1-A'.
 Alpha  occ. eigenvalues --   -1.34639  -1.34522  -0.70263  -0.70141  -0.54240
 Alpha  occ. eigenvalues --   -0.54095  -0.49173  -0.49056
 Alpha virt. eigenvalues --    0.20945   0.21158   0.31221   0.31333   0.81345
 Alpha virt. eigenvalues --    0.81526   0.83504   0.85816   0.87622   0.88012
 Alpha virt. eigenvalues --    1.18156   1.18271   1.22636   1.22754   2.58235

 Mulliken charges:
               1
     1  O   -0.732236
     2  H    0.364860
     3  H    0.367378
     4  O   -0.731874
     5  H    0.364274
     6  H    0.367597
 Sum of Mulliken charges =  -0.00000

 Dipole moment (field-independent basis, Debye):
    X=             -1.0042    Y=             -0.2054    Z=              0.0000  Tot=              1.0250
 Quadrupole moment (field-independent basis, Debye-Ang):
   XX=             -8.3683   YY=             12.3774   ZZ=            -14.9856
   XY=             -1.7930   XZ=              0.0000   YZ=              0.0000

 \MP4DQ=-33.8891834\MP4SDQ=-33.8912186\CCSD=-33.8922776\CCSD(T)=-33.894
 Normal termination of Gaussian 16 at Sun Dec 10 06:33:11 2023.
