 Gaussian 16, Revision A.03,
 Gaussian 16:  ES64L-G16RevA.03 25-Dec-2016

 ------------------
 #p CCSD(T)/CEP-31G
 ------------------

 ------------
 H2O_H2O_3316
 ------------
 Symbolic Z-matrix:
 Charge =  0 Multiplicity = 1

                         Standard orientation:
 ---------------------------------------------------------------------
 Center     Atomic      Atomic             Coordinates (Angstroms)
 Number     Number       Type             X           Y           Z
 ---------------------------------------------------------------------
      1          8           0        0.049509   -2.527730    0.000000
      2          1           0       -0.751012   -3.097529    0.000000
      3          1           0        0.848127   -3.100193    0.000000
      4          8           0        0.049509    2.584678    0.000000
      5          1           0       -0.043691    3.562850    0.000000
      6          1           0       -0.845568    2.179286    0.000000
 ---------------------------------------------------------------------

 SCF Done:  E(RHF) =  -33.6510179016     A.U. after   11 cycles
 E2 =    -0.2284494732D+00 EUMP2 =    -0.33879467374758D+02
 CCSD(T)
 CCSD(T)= -0.33896490064D+02

 The electronic state is 1-A'.
 Alpha  occ. eigenvalues --   -1.35271  -1.34607  -0.70902  -0.70216  -0.54963
 Alpha  occ. eigenvalues --   -0.54292  -0.49831  -0.49168
 Alpha virt. eigenvalues --    0.20443   0.21151   0.30692   0.31352   0.80722
 Alpha virt. eigenvalues --    0.81373   0.83650   0.84604   0.86899   0.87734
 Alpha virt. eigenvalues --    1.17598   1.18257   1.22061   1.22733   2.57629

 Mulliken charges:
               1
     1  O   -0.738464
     2  H    0.366965
     3  H    0.371502
     4  O   -0.737547
     5  H    0.364756
     6  H    0.372788
 Sum of Mulliken charges =   0.00000

 Dipole moment (field-independent basis, Debye):
    X=             -2.2781    Y=             -1.3439    Z=              0.0000  Tot=              2.6450
 Quadrupole moment (field-independent basis, Debye-Ang):
   XX=             -9.6284   YY=              9.6468   ZZ=            -14.9879
   XY=             -5.2330   XZ=              0.0000   YZ=              0.0000

 1\MP4DQ=-33.8908394\MP4SDQ=-33.8928696\CCSD=-33.8939253\CCSD(T)=-33.89
 Normal termination of Gaussian 16 at Sun Dec 10 06:39:33 2023.
