 Gaussian 16, Revision A.03,
 Gaussian 16:  ES64L-G16RevA.03 25-Dec-2016

 ------------------
 #p CCSD(T)/CEP-31G
 ------------------

 ------------
 H2O_H2O_1247
 ------------
 Symbolic Z-matrix:
 Charge =  0 Multiplicity = 1

                         Standard orientation:
 ---------------------------------------------------------------------
 Center     Atomic      Atomic             Coordinates (Angstroms)
 Number     Number       Type             X           Y           Z
 ---------------------------------------------------------------------
      1          8           0        0.056791   -1.401364    0.000000
      2          1           0       -0.744694   -1.969806    0.000000
      3          1           0        0.854439   -1.975179    0.000000
      4          8           0        0.056791    1.500300    0.000000
      5          1           0       -0.402173    2.369125    0.000000
      6          1           0       -0.616229    0.784374    0.000000
 ---------------------------------------------------------------------

 SCF Done:  E(RHF) =  -33.6528234933     A.U. after   11 cycles
 E2 =    -0.2293532568D+00 EUMP2 =    -0.33882176750099D+02
 CCSD(T)
 CCSD(T)= -0.33899198556D+02

 The electronic state is 1-A'.
 Alpha  occ. eigenvalues --   -1.36215  -1.32295  -0.71869  -0.68089  -0.55900
 Alpha  occ. eigenvalues --   -0.52075  -0.50816  -0.46888
 Alpha virt. eigenvalues --    0.19082   0.25242   0.29892   0.34838   0.77432
 Alpha virt. eigenvalues --    0.77756   0.85954   0.86959   0.91741   1.11929
 Alpha virt. eigenvalues --    1.16971   1.20122   1.22129   1.29649   2.55751

 Mulliken charges:
               1
     1  O   -0.755071
     2  H    0.364999
     3  H    0.391397
     4  O   -0.738286
     5  H    0.343880
     6  H    0.393080
 Sum of Mulliken charges =   0.00000

 Dipole moment (field-independent basis, Debye):
    X=             -2.5147    Y=             -2.5282    Z=              0.0000  Tot=              3.5659
 Quadrupole moment (field-independent basis, Debye-Ang):
   XX=            -10.0963   YY=             -2.0636   ZZ=            -14.9991
   XY=             -3.9332   XZ=              0.0000   YZ=              0.0000

 MP4DQ=-33.8933835\MP4SDQ=-33.8955024\CCSD=-33.8965244\CCSD(T)=-33.8991
 Normal termination of Gaussian 16 at Sun Dec 10 06:48:04 2023.
