 Gaussian 16, Revision A.03,
 Gaussian 16:  ES64L-G16RevA.03 25-Dec-2016

 ------------------
 #p CCSD(T)/CEP-31G
 ------------------

 ------------
 H2O_H2O_1014
 ------------
 Symbolic Z-matrix:
 Charge =  0 Multiplicity = 1

                         Standard orientation:
 ---------------------------------------------------------------------
 Center     Atomic      Atomic             Coordinates (Angstroms)
 Number     Number       Type             X           Y           Z
 ---------------------------------------------------------------------
      1          8           0        0.045376   -1.311305    0.000000
      2          1           0       -0.755862   -1.880096    0.000000
      3          1           0        0.843273   -1.884773    0.000000
      4          8           0        0.045376    1.355729    0.000000
      5          1           0        0.081887    2.337653    0.000000
      6          1           0       -0.895316    1.071821    0.000000
 ---------------------------------------------------------------------

 SCF Done:  E(RHF) =  -33.6422276310     A.U. after   11 cycles
 E2 =    -0.2297986639D+00 EUMP2 =    -0.33872026294815D+02
 CCSD(T)
 CCSD(T)= -0.33889359176D+02

 The electronic state is 1-A'.
 Alpha  occ. eigenvalues --   -1.34264  -1.32391  -0.69898  -0.68055  -0.54520
 Alpha  occ. eigenvalues --   -0.50722  -0.48839  -0.46789
 Alpha virt. eigenvalues --    0.20242   0.24569   0.31456   0.32941   0.78576
 Alpha virt. eigenvalues --    0.82216   0.84754   0.87510   0.93894   1.16302
 Alpha virt. eigenvalues --    1.18564   1.22429   1.23045   1.28399   2.59869

 Mulliken charges:
               1
     1  O   -0.729730
     2  H    0.351608
     3  H    0.374619
     4  O   -0.704184
     5  H    0.342852
     6  H    0.364836
 Sum of Mulliken charges =  -0.00000

 Dipole moment (field-independent basis, Debye):
    X=             -1.9738    Y=             -1.1096    Z=              0.0000  Tot=              2.2643
 Quadrupole moment (field-independent basis, Debye-Ang):
   XX=             -9.4228   YY=             -0.2417   ZZ=            -14.9906
   XY=             -2.1654   XZ=              0.0000   YZ=              0.0000

 MP4DQ=-33.8834795\MP4SDQ=-33.8856148\CCSD=-33.8866789\CCSD(T)=-33.8893
 Normal termination of Gaussian 16 at Sun Dec 10 06:43:43 2023.
