 Gaussian 16, Revision A.03,
 Gaussian 16:  ES64L-G16RevA.03 25-Dec-2016

 ------------------
 #p CCSD(T)/CEP-31G
 ------------------

 ------------
 H2O_H2O_1412
 ------------
 Symbolic Z-matrix:
 Charge =  0 Multiplicity = 1

                         Standard orientation:
 ---------------------------------------------------------------------
 Center     Atomic      Atomic             Coordinates (Angstroms)
 Number     Number       Type             X           Y           Z
 ---------------------------------------------------------------------
      1          8           0        0.040423   -1.530097    0.000000
      2          1           0       -0.760430   -2.099430    0.000000
      3          1           0        0.838708   -2.103024    0.000000
      4          8           0        0.040423    1.563371    0.000000
      5          1           0        0.204132    2.532239    0.000000
      6          1           0       -0.929172    1.404019    0.000000
 ---------------------------------------------------------------------

 SCF Done:  E(RHF) =  -33.6453402752     A.U. after   11 cycles
 E2 =    -0.2291893622D+00 EUMP2 =    -0.33874529637398D+02
 CCSD(T)
 CCSD(T)= -0.33891785205D+02

 The electronic state is 1-A'.
 Alpha  occ. eigenvalues --   -1.34218  -1.33144  -0.69846  -0.68718  -0.54100
 Alpha  occ. eigenvalues --   -0.52023  -0.48740  -0.47611
 Alpha virt. eigenvalues --    0.20452   0.23254   0.31480   0.32436   0.76251
 Alpha virt. eigenvalues --    0.79637   0.84167   0.85231   0.91740   1.11502
 Alpha virt. eigenvalues --    1.18402   1.21111   1.23034   1.24349   2.59677

 Mulliken charges:
               1
     1  O   -0.723095
     2  H    0.354304
     3  H    0.368641
     4  O   -0.714706
     5  H    0.349038
     6  H    0.365818
 Sum of Mulliken charges =  -0.00000

 Dipole moment (field-independent basis, Debye):
    X=             -1.8061    Y=             -0.8295    Z=              0.0000  Tot=              1.9875
 Quadrupole moment (field-independent basis, Debye-Ang):
   XX=             -9.1484   YY=              2.4526   ZZ=            -14.9864
   XY=             -2.1667   XZ=              0.0000   YZ=              0.0000

 4DQ=-33.8860047\MP4SDQ=-33.8880999\CCSD=-33.8891589\CCSD(T)=-33.891785
 Normal termination of Gaussian 16 at Sun Dec 10 06:51:09 2023.
