 Gaussian 16, Revision A.03,
 Gaussian 16:  ES64L-G16RevA.03 25-Dec-2016

 ------------------
 #p CCSD(T)/CEP-31G
 ------------------

 -----------
 H2O_H2O_792
 -----------
 Symbolic Z-matrix:
 Charge =  0 Multiplicity = 1

                         Standard orientation:
 ---------------------------------------------------------------------
 Center     Atomic      Atomic             Coordinates (Angstroms)
 Number     Number       Type             X           Y           Z
 ---------------------------------------------------------------------
      1          8           0        0.051339   -1.181372    0.000000
      2          1           0       -0.750303   -1.749593    0.000000
      3          1           0        0.848828   -1.755407    0.000000
      4          8           0        0.051339    1.244704    0.000000
      5          1           0       -0.103726    2.214993    0.000000
      6          1           0       -0.816218    0.783347    0.000000
 ---------------------------------------------------------------------

 SCF Done:  E(RHF) =  -33.6391055937     A.U. after   11 cycles
 E2 =    -0.2304255051D+00 EUMP2 =    -0.33869531098773D+02
 CCSD(T)
 CCSD(T)= -0.33886782403D+02

 The electronic state is 1-A'.
 Alpha  occ. eigenvalues --   -1.34980  -1.31698  -0.70648  -0.67870  -0.54717
 Alpha  occ. eigenvalues --   -0.50223  -0.49589  -0.46099
 Alpha virt. eigenvalues --    0.19815   0.25872   0.30919   0.33755   0.77978
 Alpha virt. eigenvalues --    0.83802   0.88682   0.91730   0.94482   1.15427
 Alpha virt. eigenvalues --    1.19179   1.21532   1.23416   1.30555   2.62792

 Mulliken charges:
               1
     1  O   -0.749559
     2  H    0.354375
     3  H    0.387384
     4  O   -0.698197
     5  H    0.335850
     6  H    0.370147
 Sum of Mulliken charges =  -0.00000

 Dipole moment (field-independent basis, Debye):
    X=             -2.1769    Y=             -1.5996    Z=              0.0000  Tot=              2.7014
 Quadrupole moment (field-independent basis, Debye-Ang):
   XX=             -9.7614   YY=             -2.2897   ZZ=            -14.9960
   XY=             -2.4537   XZ=              0.0000   YZ=              0.0000

 MP4DQ=-33.8808071\MP4SDQ=-33.8829902\CCSD=-33.8840236\CCSD(T)=-33.8867
 Normal termination of Gaussian 16 at Sun Dec 10 06:39:33 2023.
