 Gaussian 16, Revision A.03,
 Gaussian 16:  ES64L-G16RevA.03 25-Dec-2016

 ------------------
 #p CCSD(T)/CEP-31G
 ------------------

 -----------
 H2O_H2O_895
 -----------
 Symbolic Z-matrix:
 Charge =  0 Multiplicity = 1

                         Standard orientation:
 ---------------------------------------------------------------------
 Center     Atomic      Atomic             Coordinates (Angstroms)
 Number     Number       Type             X           Y           Z
 ---------------------------------------------------------------------
      1          8           0        0.055326   -1.223197    0.000000
      2          1           0       -0.746383   -1.791324    0.000000
      3          1           0        0.852747   -1.797325    0.000000
      4          8           0        0.055326    1.307444    0.000000
      5          1           0       -0.285945    2.228879    0.000000
      6          1           0       -0.705628    0.685789    0.000000
 ---------------------------------------------------------------------

 SCF Done:  E(RHF) =  -33.6455122377     A.U. after   11 cycles
 E2 =    -0.2301264431D+00 EUMP2 =    -0.33875638680817D+02
 CCSD(T)
 CCSD(T)= -0.33892722392D+02

 The electronic state is 1-A'.
 Alpha  occ. eigenvalues --   -1.35874  -1.31647  -0.71551  -0.67974  -0.54952
 Alpha  occ. eigenvalues --   -0.51223  -0.50462  -0.46167
 Alpha virt. eigenvalues --    0.19346   0.26112   0.30203   0.34719   0.77380
 Alpha virt. eigenvalues --    0.82314   0.88099   0.89204   0.95009   1.14443
 Alpha virt. eigenvalues --    1.19740   1.20120   1.23300   1.30225   2.67547

 Mulliken charges:
               1
     1  O   -0.758693
     2  H    0.360477
     3  H    0.395569
     4  O   -0.715308
     5  H    0.334989
     6  H    0.382966
 Sum of Mulliken charges =  -0.00000

 Dipole moment (field-independent basis, Debye):
    X=             -2.3731    Y=             -2.1716    Z=              0.0000  Tot=              3.2168
 Quadrupole moment (field-independent basis, Debye-Ang):
   XX=             -9.9983   YY=             -2.7259   ZZ=            -14.9999
   XY=             -3.1112   XZ=              0.0000   YZ=              0.0000

 MP4DQ=-33.8867831\MP4SDQ=-33.888957\CCSD=-33.8899692\CCSD(T)=-33.89272
 Normal termination of Gaussian 16 at Sun Dec 10 06:41:30 2023.
