 Gaussian 16, Revision A.03,
 Gaussian 16:  ES64L-G16RevA.03 25-Dec-2016

 ------------------
 #p CCSD(T)/CEP-31G
 ------------------

 ------------
 H2O_H2O_1800
 ------------
 Symbolic Z-matrix:
 Charge =  0 Multiplicity = 1

                         Standard orientation:
 ---------------------------------------------------------------------
 Center     Atomic      Atomic             Coordinates (Angstroms)
 Number     Number       Type             X           Y           Z
 ---------------------------------------------------------------------
      1          8           0        0.000000   -0.000000    1.760905
      2          1           0        0.000000    0.799571    2.332037
      3          1           0       -0.000000   -0.799571    2.332037
      4          8           0        0.000000   -0.000000   -1.760905
      5          1           0       -0.000000   -0.799571   -2.332037
      6          1           0        0.000000    0.799571   -2.332037
 ---------------------------------------------------------------------

 SCF Done:  E(RHF) =  -33.6449149225     A.U. after   10 cycles
 E2 =    -0.2288760524D+00 EUMP2 =    -0.33873790974872D+02
 CCSD(T)
 CCSD(T)= -0.33891008006D+02

 The electronic state is 1-AG.
 Alpha  occ. eigenvalues --   -1.33783  -1.33740  -0.69402  -0.69356  -0.53638
 Alpha  occ. eigenvalues --   -0.52520  -0.48324  -0.48148
 Alpha virt. eigenvalues --    0.21127   0.22191   0.31719   0.32049   0.77046
 Alpha virt. eigenvalues --    0.80946   0.83672   0.85556   0.92102   0.99059
 Alpha virt. eigenvalues --    1.18850   1.18905   1.23179   1.23691   2.58310

 Mulliken charges:
               1
     1  O   -0.718251
     2  H    0.359126
     3  H    0.359126
     4  O   -0.718251
     5  H    0.359126
     6  H    0.359126
 Sum of Mulliken charges =  -0.00000

 Dipole moment (field-independent basis, Debye):
    X=             -0.0000    Y=              0.0000    Z=             -0.0000  Tot=              0.0000
 Quadrupole moment (field-independent basis, Debye-Ang):
   XX=            -14.9833   YY=             -8.1269   ZZ=              6.3569
   XY=              0.0000   XZ=              0.0000   YZ=             -0.0000

 33.8852775\MP4SDQ=-33.887343\CCSD=-33.888405\CCSD(T)=-33.891008\RMSD=9
 Normal termination of Gaussian 16 at Sun Dec 10 06:58:20 2023.
