 Gaussian 16, Revision A.03,
 Gaussian 16:  ES64L-G16RevA.03 25-Dec-2016

 ------------------
 #p CCSD(T)/CEP-31G
 ------------------

 ----------
 H2O_H2O_90
 ----------
 Symbolic Z-matrix:
 Charge =  0 Multiplicity = 1

                         Standard orientation:
 ---------------------------------------------------------------------
 Center     Atomic      Atomic             Coordinates (Angstroms)
 Number     Number       Type             X           Y           Z
 ---------------------------------------------------------------------
      1          8           0        0.047611   -0.816160    0.000000
      2          1           0       -0.754726   -1.383400    0.000000
      3          1           0        0.844397   -1.391170    0.000000
      4          8           0        0.047611    0.866463    0.000000
      5          1           0        0.021722    1.848724    0.000000
      6          1           0       -0.873164    0.523418    0.000000
 ---------------------------------------------------------------------

 SCF Done:  E(RHF) =  -33.5034116050     A.U. after   11 cycles
 E2 =    -0.2365467138D+00 EUMP2 =    -0.33739958318791D+02
 CCSD(T)
 CCSD(T)= -0.33756805838D+02

 The electronic state is 1-A'.
 Alpha  occ. eigenvalues --   -1.39146  -1.28921  -0.74712  -0.70082  -0.56708
 Alpha  occ. eigenvalues --   -0.52900  -0.43099  -0.38035
 Alpha virt. eigenvalues --    0.19857   0.29097   0.30635   0.33567   0.80788
 Alpha virt. eigenvalues --    0.84023   0.89158   0.95078   0.96968   1.19375
 Alpha virt. eigenvalues --    1.21736   1.25966   1.27354   1.38647   2.61249

 Mulliken charges:
               1
     1  O   -0.765585
     2  H    0.340556
     3  H    0.402007
     4  O   -0.634019
     5  H    0.305481
     6  H    0.351560
 Sum of Mulliken charges =   0.00000

 Dipole moment (field-independent basis, Debye):
    X=             -1.7042    Y=             -1.3167    Z=              0.0000  Tot=              2.1536
 Quadrupole moment (field-independent basis, Debye-Ang):
   XX=             -9.6244   YY=             -7.5956   ZZ=            -14.9383
   XY=             -1.3233   XZ=              0.0000   YZ=              0.0000

 P4DQ=-33.7500084\MP4SDQ=-33.7527255\CCSD=-33.7533552\CCSD(T)=-33.75680
 Normal termination of Gaussian 16 at Sun Dec 10 06:26:25 2023.
