 Gaussian 16, Revision A.03,
 Gaussian 16:  ES64L-G16RevA.03 25-Dec-2016

 ------------------
 #p CCSD(T)/CEP-31G
 ------------------

 ------------
 H2O_H2O_1364
 ------------
 Symbolic Z-matrix:
 Charge =  0 Multiplicity = 1

                         Standard orientation:
 ---------------------------------------------------------------------
 Center     Atomic      Atomic             Coordinates (Angstroms)
 Number     Number       Type             X           Y           Z
 ---------------------------------------------------------------------
      1          8           0        0.045368   -1.497431    0.000000
      2          1           0       -0.755666   -2.066509    0.000000
      3          1           0        0.843471   -2.070613    0.000000
      4          8           0        0.045368    1.541888    0.000000
      5          1           0        0.081528    2.523824    0.000000
      6          1           0       -0.895223    1.257641    0.000000
 ---------------------------------------------------------------------

 SCF Done:  E(RHF) =  -33.6462958288     A.U. after   11 cycles
 E2 =    -0.2292485326D+00 EUMP2 =    -0.33875544361359D+02
 CCSD(T)
 CCSD(T)= -0.33892782463D+02

 The electronic state is 1-A'.
 Alpha  occ. eigenvalues --   -1.34498  -1.33007  -0.70131  -0.68577  -0.54315
 Alpha  occ. eigenvalues --   -0.52069  -0.49029  -0.47498
 Alpha virt. eigenvalues --    0.20192   0.23583   0.31245   0.32602   0.76579
 Alpha virt. eigenvalues --    0.79310   0.84566   0.85427   0.91040   1.12657
 Alpha virt. eigenvalues --    1.18143   1.21663   1.22778   1.25229   2.59519

 Mulliken charges:
               1
     1  O   -0.727229
     2  H    0.355111
     3  H    0.371916
     4  O   -0.716242
     5  H    0.347674
     6  H    0.368771
 Sum of Mulliken charges =   0.00000

 Dipole moment (field-independent basis, Debye):
    X=             -2.0212    Y=             -1.1103    Z=              0.0000  Tot=              2.3060
 Quadrupole moment (field-independent basis, Debye-Ang):
   XX=             -9.4047   YY=              1.6383   ZZ=            -14.9878
   XY=             -2.5293   XZ=              0.0000   YZ=              0.0000

 P4DQ=-33.8869955\MP4SDQ=-33.8890967\CCSD=-33.8901518\CCSD(T)=-33.89278
 Normal termination of Gaussian 16 at Sun Dec 10 06:50:15 2023.
