 Gaussian 16, Revision A.03,
 Gaussian 16:  ES64L-G16RevA.03 25-Dec-2016

 ------------------
 #p CCSD(T)/CEP-31G
 ------------------

 -----------
 H2O_H2O_775
 -----------
 Symbolic Z-matrix:
 Charge =  0 Multiplicity = 1

                         Standard orientation:
 ---------------------------------------------------------------------
 Center     Atomic      Atomic             Coordinates (Angstroms)
 Number     Number       Type             X           Y           Z
 ---------------------------------------------------------------------
      1          8           0        0.000000   -0.000000    1.215772
      2          1           0        0.000000    0.799571    1.786904
      3          1           0       -0.000000   -0.799571    1.786904
      4          8           0        0.000000   -0.000000   -1.215772
      5          1           0       -0.000000   -0.799571   -1.786904
      6          1           0        0.000000    0.799571   -1.786904
 ---------------------------------------------------------------------

 SCF Done:  E(RHF) =  -33.6274373540     A.U. after   10 cycles
 E2 =    -0.2302161287D+00 EUMP2 =    -0.33857653482716D+02
 CCSD(T)
 CCSD(T)= -0.33875067590D+02

 The electronic state is 1-AG.
 Alpha  occ. eigenvalues --   -1.32705  -1.31840  -0.68192  -0.67545  -0.55124
 Alpha  occ. eigenvalues --   -0.47450  -0.46955  -0.45778
 Alpha virt. eigenvalues --    0.21558   0.24364   0.32750   0.33029   0.78769
 Alpha virt. eigenvalues --    0.79587   0.89187   0.91474   1.04885   1.09857
 Alpha virt. eigenvalues --    1.19775   1.21594   1.24160   1.25647   2.54514

 Mulliken charges:
               1
     1  O   -0.698553
     2  H    0.349277
     3  H    0.349277
     4  O   -0.698553
     5  H    0.349277
     6  H    0.349277
 Sum of Mulliken charges =  -0.00000

 Dipole moment (field-independent basis, Debye):
    X=             -0.0000    Y=              0.0000    Z=              0.0000  Tot=              0.0000
 Quadrupole moment (field-independent basis, Debye-Ang):
   XX=            -14.9994   YY=             -8.2580   ZZ=             -0.3977
   XY=              0.0000   XZ=             -0.0000   YZ=             -0.0000

 33.8691199\MP4SDQ=-33.8712338\CCSD=-33.8723242\CCSD(T)=-33.8750676\RMS
 Normal termination of Gaussian 16 at Sun Dec 10 06:39:14 2023.
