 Gaussian 16, Revision A.03,
 Gaussian 16:  ES64L-G16RevA.03 25-Dec-2016

 ------------------
 #p CCSD(T)/CEP-31G
 ------------------

 -----------
 H2O_H2O_389
 -----------
 Symbolic Z-matrix:
 Charge =  0 Multiplicity = 1

                         Standard orientation:
 ---------------------------------------------------------------------
 Center     Atomic      Atomic             Coordinates (Angstroms)
 Number     Number       Type             X           Y           Z
 ---------------------------------------------------------------------
      1          8           0        0.045398   -0.978953    0.000000
      2          1           0       -0.756392   -1.546966    0.000000
      3          1           0        0.842737   -1.553196    0.000000
      4          8           0        0.045398    1.023290    0.000000
      5          1           0        0.082863    2.005177    0.000000
      6          1           0       -0.895570    0.740295    0.000000
 ---------------------------------------------------------------------

 SCF Done:  E(RHF) =  -33.6009772622     A.U. after   11 cycles
 E2 =    -0.2323845638D+00 EUMP2 =    -0.33833361826001D+02
 CCSD(T)
 CCSD(T)= -0.33850601381D+02

 The electronic state is 1-A'.
 Alpha  occ. eigenvalues --   -1.34958  -1.30567  -0.70612  -0.67880  -0.56256
 Alpha  occ. eigenvalues --   -0.49665  -0.44722  -0.44595
 Alpha virt. eigenvalues --    0.20261   0.27091   0.31414   0.33512   0.79672
 Alpha virt. eigenvalues --    0.84638   0.89930   0.96914   0.99188   1.16198
 Alpha virt. eigenvalues --    1.19255   1.24401   1.25615   1.32214   2.54908

 Mulliken charges:
               1
     1  O   -0.758216
     2  H    0.347477
     3  H    0.388921
     4  O   -0.665105
     5  H    0.334392
     6  H    0.352532
 Sum of Mulliken charges =  -0.00000

 Dipole moment (field-independent basis, Debye):
    X=             -1.7855    Y=             -1.0881    Z=              0.0000  Tot=              2.0909
 Quadrupole moment (field-independent basis, Debye-Ang):
   XX=             -9.4780   YY=             -4.4137   ZZ=            -14.9948
   XY=             -1.5077   XZ=              0.0000   YZ=              0.0000

 MP4DQ=-33.8443555\MP4SDQ=-33.8466784\CCSD=-33.8476367\CCSD(T)=-33.8506
 Normal termination of Gaussian 16 at Sun Dec 10 06:32:03 2023.
