 Gaussian 16, Revision A.03,
 Gaussian 16:  ES64L-G16RevA.03 25-Dec-2016

 ------------------
 #p CCSD(T)/CEP-31G
 ------------------

 ------------
 H2O_H2O_3116
 ------------
 Symbolic Z-matrix:
 Charge =  0 Multiplicity = 1

                         Standard orientation:
 ---------------------------------------------------------------------
 Center     Atomic      Atomic             Coordinates (Angstroms)
 Number     Number       Type             X           Y           Z
 ---------------------------------------------------------------------
      1          8           0        0.049511   -2.421367    0.000000
      2          1           0       -0.751051   -2.991108    0.000000
      3          1           0        0.848088   -2.993887    0.000000
      4          8           0        0.049511    2.478308    0.000000
      5          1           0       -0.043618    3.456486    0.000000
      6          1           0       -0.845595    2.072979    0.000000
 ---------------------------------------------------------------------

 SCF Done:  E(RHF) =  -33.6509199296     A.U. after   11 cycles
 E2 =    -0.2284634906D+00 EUMP2 =    -0.33879383420239D+02
 CCSD(T)
 CCSD(T)= -0.33896409121D+02

 The electronic state is 1-A'.
 Alpha  occ. eigenvalues --   -1.35245  -1.34519  -0.70876  -0.70125  -0.54932
 Alpha  occ. eigenvalues --   -0.54198  -0.49804  -0.49079
 Alpha virt. eigenvalues --    0.20445   0.21250   0.30710   0.31434   0.80748
 Alpha virt. eigenvalues --    0.81461   0.83452   0.84841   0.86930   0.87960
 Alpha virt. eigenvalues --    1.17620   1.18343   1.22080   1.22824   2.57653

 Mulliken charges:
               1
     1  O   -0.738140
     2  H    0.366522
     3  H    0.371627
     4  O   -0.737018
     5  H    0.364023
     6  H    0.372986
 Sum of Mulliken charges =  -0.00000

 Dipole moment (field-independent basis, Debye):
    X=             -2.2761    Y=             -1.3472    Z=              0.0000  Tot=              2.6449
 Quadrupole moment (field-independent basis, Debye-Ang):
   XX=             -9.6284   YY=              8.7837   ZZ=            -14.9879
   XY=             -4.9946   XZ=              0.0000   YZ=              0.0000

 \MP4DQ=-33.8907573\MP4SDQ=-33.8927881\CCSD=-33.8938435\CCSD(T)=-33.896
 Normal termination of Gaussian 16 at Sun Dec 10 06:35:59 2023.
