 Gaussian 16, Revision A.03,
 Gaussian 16:  ES64L-G16RevA.03 25-Dec-2016

 ------------------
 #p CCSD(T)/CEP-31G
 ------------------

 -----------
 H2O_H2O_409
 -----------
 Symbolic Z-matrix:
 Charge =  0 Multiplicity = 1

                         Standard orientation:
 ---------------------------------------------------------------------
 Center     Atomic      Atomic             Coordinates (Angstroms)
 Number     Number       Type             X           Y           Z
 ---------------------------------------------------------------------
      1          8           0        0.031756   -1.005969    0.000000
      2          1           0       -0.769348   -1.574948    0.000000
      3          1           0        0.829788   -1.579249    0.000000
      4          8           0        0.031756    1.025049    0.000000
      5          1           0        0.381742    1.943208    0.000000
      6          1           0       -0.950281    1.058350    0.000000
 ---------------------------------------------------------------------

 SCF Done:  E(RHF) =  -33.6007628408     A.U. after   11 cycles
 E2 =    -0.2321235539D+00 EUMP2 =    -0.33832886394669D+02
 CCSD(T)
 CCSD(T)= -0.33850131920D+02

 The electronic state is 1-A'.
 Alpha  occ. eigenvalues --   -1.33743  -1.30666  -0.69102  -0.66994  -0.57737
 Alpha  occ. eigenvalues --   -0.48630  -0.44448  -0.42986
 Alpha virt. eigenvalues --    0.20963   0.26321   0.32257   0.33292   0.80296
 Alpha virt. eigenvalues --    0.81802   0.90076   0.97804   0.99820   1.17142
 Alpha virt. eigenvalues --    1.19617   1.23741   1.25701   1.30166   2.50453

 Mulliken charges:
               1
     1  O   -0.726925
     2  H    0.341924
     3  H    0.372885
     4  O   -0.680617
     5  H    0.348191
     6  H    0.344542
 Sum of Mulliken charges =  -0.00000

 Dipole moment (field-independent basis, Debye):
    X=             -1.2496    Y=             -0.4548    Z=              0.0000  Tot=              1.3298
 Quadrupole moment (field-independent basis, Debye-Ang):
   XX=             -8.9063   YY=             -3.7258   ZZ=            -15.0091
   XY=             -0.8699   XZ=              0.0000   YZ=              0.0000

 MP4DQ=-33.8439326\MP4SDQ=-33.8462069\CCSD=-33.8472031\CCSD(T)=-33.8501
 Normal termination of Gaussian 16 at Sun Dec 10 06:32:25 2023.
