 Gaussian 16, Revision A.03,
 Gaussian 16:  ES64L-G16RevA.03 25-Dec-2016

 ------------------
 #p CCSD(T)/CEP-31G
 ------------------

 -----------
 H2O_H2O_465
 -----------
 Symbolic Z-matrix:
 Charge =  0 Multiplicity = 1

                         Standard orientation:
 ---------------------------------------------------------------------
 Center     Atomic      Atomic             Coordinates (Angstroms)
 Number     Number       Type             X           Y           Z
 ---------------------------------------------------------------------
      1          8           0        0.047587   -1.015552    0.000000
      2          1           0       -0.754221   -1.583539    0.000000
      3          1           0        0.844909   -1.589820    0.000000
      4          8           0        0.047587    1.065944    0.000000
      5          1           0        0.020784    2.048181    0.000000
      6          1           0       -0.872868    0.722042    0.000000
 ---------------------------------------------------------------------

 SCF Done:  E(RHF) =  -33.6126343366     A.U. after   11 cycles
 E2 =    -0.2318608578D+00 EUMP2 =    -0.33844495194409D+02
 CCSD(T)
 CCSD(T)= -0.33861750831D+02

 The electronic state is 1-A'.
 Alpha  occ. eigenvalues --   -1.34914  -1.30836  -0.70603  -0.67943  -0.55559
 Alpha  occ. eigenvalues --   -0.49600  -0.46383  -0.44962
 Alpha virt. eigenvalues --    0.20123   0.26879   0.31268   0.33618   0.79141
 Alpha virt. eigenvalues --    0.84653   0.89852   0.96539   0.99389   1.14894
 Alpha virt. eigenvalues --    1.19036   1.23433   1.25228   1.32063   2.56616

 Mulliken charges:
               1
     1  O   -0.759510
     2  H    0.349702
     3  H    0.390033
     4  O   -0.670300
     5  H    0.333103
     6  H    0.356972
 Sum of Mulliken charges =  -0.00000

 Dipole moment (field-independent basis, Debye):
    X=             -1.9057    Y=             -1.2457    Z=              0.0000  Tot=              2.2767
 Quadrupole moment (field-independent basis, Debye-Ang):
   XX=             -9.5787   YY=             -3.9717   ZZ=            -14.9955
   XY=             -1.7350   XZ=              0.0000   YZ=              0.0000

 \MP4DQ=-33.8555728\MP4SDQ=-33.8578557\CCSD=-33.8588384\CCSD(T)=-33.861
 Normal termination of Gaussian 16 at Sun Dec 10 06:33:28 2023.
