 Gaussian 16, Revision A.03,
 Gaussian 16:  ES64L-G16RevA.03 25-Dec-2016

 ------------------
 #p CCSD(T)/CEP-31G
 ------------------

 -----------
 H2O_H2O_444
 -----------
 Symbolic Z-matrix:
 Charge =  0 Multiplicity = 1

                         Standard orientation:
 ---------------------------------------------------------------------
 Center     Atomic      Atomic             Coordinates (Angstroms)
 Number     Number       Type             X           Y           Z
 ---------------------------------------------------------------------
      1          8           0        0.054257   -0.987795    0.000000
      2          1           0       -0.747896   -1.555294    0.000000
      3          1           0        0.851230   -1.562548    0.000000
      4          8           0        0.054257    1.064813    0.000000
      5          1           0       -0.225281    2.006813    0.000000
      6          1           0       -0.746172    0.494884    0.000000
 ---------------------------------------------------------------------

 SCF Done:  E(RHF) =  -33.6084223907     A.U. after   11 cycles
 E2 =    -0.2321075554D+00 EUMP2 =    -0.33840529946080D+02
 CCSD(T)
 CCSD(T)= -0.33857450901D+02

 The electronic state is 1-A'.
 Alpha  occ. eigenvalues --   -1.36641  -1.30319  -0.72603  -0.69045  -0.53488
 Alpha  occ. eigenvalues --   -0.51056  -0.48165  -0.44658
 Alpha virt. eigenvalues --    0.19461   0.27852   0.30072   0.34914   0.78314
 Alpha virt. eigenvalues --    0.84655   0.89907   0.95594   0.99403   1.14724
 Alpha virt. eigenvalues --    1.19202   1.23154   1.27336   1.32126   2.65478

 Mulliken charges:
               1
     1  O   -0.782793
     2  H    0.358289
     3  H    0.409583
     4  O   -0.674208
     5  H    0.319075
     6  H    0.370055
 Sum of Mulliken charges =   0.00000

 Dipole moment (field-independent basis, Debye):
    X=             -2.1545    Y=             -2.0012    Z=              0.0000  Tot=              2.9405
 Quadrupole moment (field-independent basis, Debye-Ang):
   XX=             -9.9398   YY=             -5.0214   ZZ=            -14.9922
   XY=             -2.3068   XZ=              0.0000   YZ=              0.0000

 MP4DQ=-33.8512126\MP4SDQ=-33.8535404\CCSD=-33.8544521\CCSD(T)=-33.8574
 Normal termination of Gaussian 16 at Sun Dec 10 06:33:04 2023.
