 Gaussian 16, Revision A.03,
 Gaussian 16:  ES64L-G16RevA.03 25-Dec-2016

 ------------------
 #p CCSD(T)/CEP-31G
 ------------------

 ------------
 H2O_H2O_2892
 ------------
 Symbolic Z-matrix:
 Charge =  0 Multiplicity = 1

                         Standard orientation:
 ---------------------------------------------------------------------
 Center     Atomic      Atomic             Coordinates (Angstroms)
 Number     Number       Type             X           Y           Z
 ---------------------------------------------------------------------
      1          8           0        0.051283   -2.298135    0.000000
      2          1           0       -0.749367   -2.867753    0.000000
      3          1           0        0.849772   -2.870779    0.000000
      4          8           0        0.051283    2.361646    0.000000
      5          1           0       -0.105472    3.331664    0.000000
      6          1           0       -0.815468    1.898777    0.000000
 ---------------------------------------------------------------------

 SCF Done:  E(RHF) =  -33.6510272530     A.U. after   11 cycles
 E2 =    -0.2284747317D+00 EUMP2 =    -0.33879501984712D+02
 CCSD(T)
 CCSD(T)= -0.33896524840D+02

 The electronic state is 1-A'.
 Alpha  occ. eigenvalues --   -1.35296  -1.34394  -0.70928  -0.69993  -0.54989
 Alpha  occ. eigenvalues --   -0.54075  -0.49856  -0.48957
 Alpha virt. eigenvalues --    0.20349   0.21428   0.30659   0.31571   0.80691
 Alpha virt. eigenvalues --    0.81585   0.82933   0.85131   0.86862   0.88446
 Alpha virt. eigenvalues --    1.17573   1.18486   1.22020   1.22987   2.57611

 Mulliken charges:
               1
     1  O   -0.738533
     2  H    0.366261
     3  H    0.372304
     4  O   -0.737120
     5  H    0.363054
     6  H    0.374033
 Sum of Mulliken charges =  -0.00000

 Dipole moment (field-independent basis, Debye):
    X=             -2.3546    Y=             -1.5084    Z=              0.0000  Tot=              2.7964
 Quadrupole moment (field-independent basis, Debye-Ang):
   XX=             -9.7428   YY=              7.1874   ZZ=            -14.9883
   XY=             -5.0033   XZ=              0.0000   YZ=              0.0000

 P4DQ=-33.8908728\MP4SDQ=-33.8929042\CCSD=-33.8939584\CCSD(T)=-33.89652
 Normal termination of Gaussian 16 at Sun Dec 10 06:32:04 2023.
