 Gaussian 16, Revision A.03,
 Gaussian 16:  ES64L-G16RevA.03 25-Dec-2016

 ------------------
 #p CCSD(T)/CEP-31G
 ------------------

 ------------
 H2O_H2O_1098
 ------------
 Symbolic Z-matrix:
 Charge =  0 Multiplicity = 1

                         Standard orientation:
 ---------------------------------------------------------------------
 Center     Atomic      Atomic             Coordinates (Angstroms)
 Number     Number       Type             X           Y           Z
 ---------------------------------------------------------------------
      1          8           0        0.057182   -1.317563    0.000000
      2          1           0       -0.744428   -1.885830    0.000000
      3          1           0        0.854703   -1.891553    0.000000
      4          8           0        0.057182    1.423910    0.000000
      5          1           0       -0.457441    2.260971    0.000000
      6          1           0       -0.567740    0.665636    0.000000
 ---------------------------------------------------------------------

 SCF Done:  E(RHF) =  -33.6528199518     A.U. after   11 cycles
 E2 =    -0.2295731313D+00 EUMP2 =    -0.33882393083152D+02
 CCSD(T)
 CCSD(T)= -0.33899324420D+02

 The electronic state is 1-A'.
 Alpha  occ. eigenvalues --   -1.36640  -1.31820  -0.72296  -0.68001  -0.56104
 Alpha  occ. eigenvalues --   -0.51662  -0.51254  -0.46414
 Alpha virt. eigenvalues --    0.18912   0.25954   0.29589   0.36012   0.77103
 Alpha virt. eigenvalues --    0.78550   0.86887   0.87364   0.94643   1.11845
 Alpha virt. eigenvalues --    1.17589   1.19931   1.22633   1.30683   2.57666

 Mulliken charges:
               1
     1  O   -0.765208
     2  H    0.367372
     3  H    0.399762
     4  O   -0.739102
     5  H    0.339784
     6  H    0.397390
 Sum of Mulliken charges =   0.00000

 Dipole moment (field-independent basis, Debye):
    X=             -2.5032    Y=             -2.7612    Z=              0.0000  Tot=              3.7269
 Quadrupole moment (field-independent basis, Debye-Ang):
   XX=            -10.1166   YY=             -3.1299   ZZ=            -15.0037
   XY=             -3.8792   XZ=              0.0000   YZ=              0.0000

 MP4DQ=-33.8934602\MP4SDQ=-33.8956006\CCSD=-33.896603\CCSD(T)=-33.89932
 Normal termination of Gaussian 16 at Sun Dec 10 06:45:17 2023.
