 Gaussian 16, Revision A.03,
 Gaussian 16:  ES64L-G16RevA.03 25-Dec-2016

 ------------------
 #p CCSD(T)/CEP-31G
 ------------------

 -----------
 H2O_H2O_657
 -----------
 Symbolic Z-matrix:
 Charge =  0 Multiplicity = 1

                         Standard orientation:
 ---------------------------------------------------------------------
 Center     Atomic      Atomic             Coordinates (Angstroms)
 Number     Number       Type             X           Y           Z
 ---------------------------------------------------------------------
      1          8           0        0.025272   -1.142945    0.000000
      2          1           0       -0.775379   -1.712563    0.000000
      3          1           0        0.823760   -1.715590    0.000000
      4          8           0        0.025272    1.154630    0.000000
      5          1           0        0.491418    2.019623    0.000000
      6          1           0       -0.944145    1.315056    0.000000
 ---------------------------------------------------------------------

 SCF Done:  E(RHF) =  -33.6236091207     A.U. after   11 cycles
 E2 =    -0.2306591394D+00 EUMP2 =    -0.33854268260106D+02
 CCSD(T)
 CCSD(T)= -0.33871656062D+02

 The electronic state is 1-A'.
 Alpha  occ. eigenvalues --   -1.33000  -1.31574  -0.68477  -0.67363  -0.55831
 Alpha  occ. eigenvalues --   -0.47804  -0.46211  -0.45487
 Alpha virt. eigenvalues --    0.21208   0.25024   0.32565   0.33039   0.79546
 Alpha virt. eigenvalues --    0.80027   0.89601   0.94500   1.01469   1.13161
 Alpha virt. eigenvalues --    1.19704   1.22941   1.24513   1.27443   2.52796

 Mulliken charges:
               1
     1  O   -0.711507
     2  H    0.343649
     3  H    0.363025
     4  O   -0.692166
     5  H    0.348711
     6  H    0.348288
 Sum of Mulliken charges =  -0.00000

 Dipole moment (field-independent basis, Debye):
    X=             -1.0465    Y=             -0.2781    Z=              0.0000  Tot=              1.0828
 Quadrupole moment (field-independent basis, Debye-Ang):
   XX=             -8.6503   YY=             -1.5558   ZZ=            -15.0023
   XY=             -0.7689   XZ=              0.0000   YZ=              0.0000

 MP4DQ=-33.8656465\MP4SDQ=-33.867802\CCSD=-33.8688752\CCSD(T)=-33.87165
 Normal termination of Gaussian 16 at Sun Dec 10 06:37:01 2023.
