 Gaussian 16, Revision A.03,
 Gaussian 16:  ES64L-G16RevA.03 25-Dec-2016

 ------------------
 #p CCSD(T)/CEP-31G
 ------------------

 -----------
 H2O_H2O_564
 -----------
 Symbolic Z-matrix:
 Charge =  0 Multiplicity = 1

                         Standard orientation:
 ---------------------------------------------------------------------
 Center     Atomic      Atomic             Coordinates (Angstroms)
 Number     Number       Type             X           Y           Z
 ---------------------------------------------------------------------
      1          8           0        0.045390   -1.072009    0.000000
      2          1           0       -0.756212   -1.640287    0.000000
      3          1           0        0.842920   -1.645988    0.000000
      4          8           0        0.045390    1.116376    0.000000
      5          1           0        0.082530    2.098275    0.000000
      6          1           0       -0.895484    0.833068    0.000000
 ---------------------------------------------------------------------

 SCF Done:  E(RHF) =  -33.6227825534     A.U. after   11 cycles
 E2 =    -0.2312440482D+00 EUMP2 =    -0.33854026601578D+02
 CCSD(T)
 CCSD(T)= -0.33871350484D+02

 The electronic state is 1-A'.
 Alpha  occ. eigenvalues --   -1.34345  -1.31244  -0.69970  -0.67691  -0.55554
 Alpha  occ. eigenvalues --   -0.49069  -0.47204  -0.45374
 Alpha virt. eigenvalues --    0.20283   0.26237   0.31544   0.33393   0.78951
 Alpha virt. eigenvalues --    0.84104   0.89668   0.95796   0.98794   1.14266
 Alpha virt. eigenvalues --    1.18966   1.22657   1.24482   1.31542   2.55921

 Mulliken charges:
               1
     1  O   -0.747849
     2  H    0.348615
     3  H    0.383580
     4  O   -0.678491
     5  H    0.337914
     6  H    0.356230
 Sum of Mulliken charges =  -0.00000

 Dipole moment (field-independent basis, Debye):
    X=             -1.8562    Y=             -1.0896    Z=              0.0000  Tot=              2.1523
 Quadrupole moment (field-independent basis, Debye-Ang):
   XX=             -9.4588   YY=             -3.0634   ZZ=            -14.9970
   XY=             -1.6924   XZ=              0.0000   YZ=              0.0000

 MP4DQ=-33.8652587\MP4SDQ=-33.8674885\CCSD=-33.8685122\CCSD(T)=-33.8713
 Normal termination of Gaussian 16 at Sun Dec 10 06:35:17 2023.
