 Gaussian 16, Revision A.03,
 Gaussian 16:  ES64L-G16RevA.03 25-Dec-2016

 ------------------
 #p CCSD(T)/CEP-31G
 ------------------

 ------------
 H2O_H2O_1553
 ------------
 Symbolic Z-matrix:
 Charge =  0 Multiplicity = 1

                         Standard orientation:
 ---------------------------------------------------------------------
 Center     Atomic      Atomic             Coordinates (Angstroms)
 Number     Number       Type             X           Y           Z
 ---------------------------------------------------------------------
      1          8           0        0.011143   -1.626760    0.000000
      2          1           0       -0.788764   -2.197421    0.000000
      3          1           0        0.810377   -2.198363    0.000000
      4          8           0        0.011143    1.628942    0.000000
      5          1           0        0.684350    2.344692    0.000000
      6          1           0       -0.884249    2.033639    0.000000
 ---------------------------------------------------------------------

 SCF Done:  E(RHF) =  -33.6431967797     A.U. after   11 cycles
 E2 =    -0.2290300122D+00 EUMP2 =    -0.33872226791911D+02
 CCSD(T)
 CCSD(T)= -0.33889510329D+02

 The electronic state is 1-A'.
 Alpha  occ. eigenvalues --   -1.33566  -1.33454  -0.69180  -0.69069  -0.53633
 Alpha  occ. eigenvalues --   -0.51850  -0.48120  -0.47807
 Alpha virt. eigenvalues --    0.21153   0.22570   0.31891   0.32237   0.76692
 Alpha virt. eigenvalues --    0.80462   0.84097   0.84736   0.94211   1.04330
 Alpha virt. eigenvalues --    1.19007   1.19227   1.23443   1.23945   2.59180

 Mulliken charges:
               1
     1  O   -0.713939
     2  H    0.355205
     3  H    0.358733
     4  O   -0.713390
     5  H    0.354882
     6  H    0.358509
 Sum of Mulliken charges =   0.00000

 Dipole moment (field-independent basis, Debye):
    X=             -0.5026    Y=             -0.0544    Z=              0.0000  Tot=              0.5056
 Quadrupole moment (field-independent basis, Debye-Ang):
   XX=             -8.2276   YY=              4.7424   ZZ=            -14.9835
   XY=             -0.5348   XZ=              0.0000   YZ=              0.0000

 \MP4DQ=-33.8837451\MP4SDQ=-33.8858237\CCSD=-33.8868914\CCSD(T)=-33.889
 Normal termination of Gaussian 16 at Sun Dec 10 06:53:46 2023.
