 Gaussian 16, Revision A.03,
 Gaussian 16:  ES64L-G16RevA.03 25-Dec-2016

 ------------------
 #p CCSD(T)/CEP-31G
 ------------------

 ------------
 H2O_H2O_3677
 ------------
 Symbolic Z-matrix:
 Charge =  0 Multiplicity = 1

                         Standard orientation:
 ---------------------------------------------------------------------
 Center     Atomic      Atomic             Coordinates (Angstroms)
 Number     Number       Type             X           Y           Z
 ---------------------------------------------------------------------
      1          8           0        0.007455   -2.757569    0.000000
      2          1           0       -0.792249   -3.328515    0.000000
      3          1           0        0.806893   -3.328887    0.000000
      4          8           0        0.007455    2.758542    0.000000
      5          1           0        0.725794    3.428986    0.000000
      6          1           0       -0.859717    3.220625    0.000000
 ---------------------------------------------------------------------

 SCF Done:  E(RHF) =  -33.6500022640     A.U. after   11 cycles
 E2 =    -0.2284770645D+00 EUMP2 =    -0.33878479328525D+02
 CCSD(T)
 CCSD(T)= -0.33895531041D+02

 The electronic state is 1-A'.
 Alpha  occ. eigenvalues --   -1.34811  -1.34801  -0.70436  -0.70426  -0.54447
 Alpha  occ. eigenvalues --   -0.54432  -0.49355  -0.49346
 Alpha virt. eigenvalues --    0.20855   0.20880   0.31091   0.31101   0.81196
 Alpha virt. eigenvalues --    0.81210   0.84264   0.84554   0.87429   0.87457
 Alpha virt. eigenvalues --    1.18015   1.18025   1.22488   1.22498   2.58072

 Mulliken charges:
               1
     1  O   -0.734815
     2  H    0.367122
     3  H    0.367692
     4  O   -0.734793
     5  H    0.367015
     6  H    0.367778
 Sum of Mulliken charges =   0.00000

 Dipole moment (field-independent basis, Debye):
    X=             -0.3435    Y=             -0.0229    Z=              0.0000  Tot=              0.3443
 Quadrupole moment (field-independent basis, Debye-Ang):
   XX=             -8.0838   YY=             17.1250   ZZ=            -14.9861
   XY=             -0.7223   XZ=              0.0000   YZ=              0.0000

 P4DQ=-33.8898728\MP4SDQ=-33.8919053\CCSD=-33.8929639\CCSD(T)=-33.89553
 Normal termination of Gaussian 16 at Sun Dec 10 06:46:08 2023.
