 Gaussian 16, Revision A.03,
 Gaussian 16:  ES64L-G16RevA.03 25-Dec-2016

 ------------------
 #p CCSD(T)/CEP-31G
 ------------------

 -----------
 H2O_H2O_427
 -----------
 Symbolic Z-matrix:
 Charge =  0 Multiplicity = 1

                         Standard orientation:
 ---------------------------------------------------------------------
 Center     Atomic      Atomic             Coordinates (Angstroms)
 Number     Number       Type             X           Y           Z
 ---------------------------------------------------------------------
      1          8           0        0.007455   -1.029104    0.000000
      2          1           0       -0.792472   -1.599737    0.000000
      3          1           0        0.806670   -1.600734    0.000000
      4          8           0        0.007455    1.030072    0.000000
      5          1           0        0.726056    1.700235    0.000000
      6          1           0       -0.859536    1.492492    0.000000
 ---------------------------------------------------------------------

 SCF Done:  E(RHF) =  -33.5986981333     A.U. after   11 cycles
 E2 =    -0.2320420559D+00 EUMP2 =    -0.33830740189217D+02
 CCSD(T)
 CCSD(T)= -0.33847933284D+02

 The electronic state is 1-A'.
 Alpha  occ. eigenvalues --   -1.33040  -1.30587  -0.68211  -0.66492  -0.58283
 Alpha  occ. eigenvalues --   -0.47975  -0.44234  -0.41922
 Alpha virt. eigenvalues --    0.21561   0.25846   0.32858   0.33403   0.78322
 Alpha virt. eigenvalues --    0.80663   0.90240   0.96092   1.03283   1.20017
 Alpha virt. eigenvalues --    1.20696   1.22891   1.24211   1.27399   2.48953

 Mulliken charges:
               1
     1  O   -0.699078
     2  H    0.345206
     3  H    0.353212
     4  O   -0.696612
     5  H    0.350189
     6  H    0.347083
 Sum of Mulliken charges =  -0.00000

 Dipole moment (field-independent basis, Debye):
    X=             -0.2922    Y=             -0.0227    Z=              0.0000  Tot=              0.2930
 Quadrupole moment (field-independent basis, Debye-Ang):
   XX=             -8.3607   YY=             -3.3455   ZZ=            -15.0235
   XY=             -0.1686   XZ=              0.0000   YZ=              0.0000

 4DQ=-33.8417583\MP4SDQ=-33.8439935\CCSD=-33.8450027\CCSD(T)=-33.847933
 Normal termination of Gaussian 16 at Sun Dec 10 06:32:45 2023.
