 Gaussian 16, Revision A.03,
 Gaussian 16:  ES64L-G16RevA.03 25-Dec-2016

 ------------------
 #p CCSD(T)/CEP-31G
 ------------------

 ------------
 H2O_H2O_4516
 ------------
 Symbolic Z-matrix:
 Charge =  0 Multiplicity = 1

                         Standard orientation:
 ---------------------------------------------------------------------
 Center     Atomic      Atomic             Coordinates (Angstroms)
 Number     Number       Type             X           Y           Z
 ---------------------------------------------------------------------
      1          8           0        0.049499   -3.165917    0.000000
      2          1           0       -0.750832   -3.735982    0.000000
      3          1           0        0.848308   -3.738114    0.000000
      4          8           0        0.049499    3.222898    0.000000
      5          1           0       -0.044026    4.201039    0.000000
      6          1           0       -0.845442    2.817207    0.000000
 ---------------------------------------------------------------------

 SCF Done:  E(RHF) =  -33.6513930021     A.U. after   11 cycles
 E2 =    -0.2284063105D+00 EUMP2 =    -0.33879799312620D+02
 CCSD(T)
 CCSD(T)= -0.33896810948D+02

 The electronic state is 1-A'.
 Alpha  occ. eigenvalues --   -1.35386  -1.34969  -0.71017  -0.70591  -0.55098
 Alpha  occ. eigenvalues --   -0.54678  -0.49951  -0.49535
 Alpha virt. eigenvalues --    0.20364   0.20790   0.30601   0.31018   0.80601
 Alpha virt. eigenvalues --    0.81013   0.83664   0.84079   0.86761   0.87226
 Alpha virt. eigenvalues --    1.17499   1.17913   1.21960   1.22379   2.57526

 Mulliken charges:
               1
     1  O   -0.739723
     2  H    0.368645
     3  H    0.371078
     4  O   -0.739406
     5  H    0.367479
     6  H    0.371927
 Sum of Mulliken charges =   0.00000

 Dipole moment (field-independent basis, Debye):
    X=             -2.2849    Y=             -1.3325    Z=              0.0000  Tot=              2.6450
 Quadrupole moment (field-independent basis, Debye-Ang):
   XX=             -9.6288   YY=             14.7917   ZZ=            -14.9880
   XY=             -6.6725   XZ=              0.0000   YZ=              0.0000

 P4DQ=-33.8911637\MP4SDQ=-33.8931925\CCSD=-33.8942485\CCSD(T)=-33.89681
 Normal termination of Gaussian 16 at Sun Dec 10 07:02:34 2023.
