 Gaussian 16, Revision A.03,
 Gaussian 16:  ES64L-G16RevA.03 25-Dec-2016

 ------------------
 #p CCSD(T)/CEP-31G
 ------------------

 ------------
 H2O_H2O_1682
 ------------
 Symbolic Z-matrix:
 Charge =  0 Multiplicity = 1

                         Standard orientation:
 ---------------------------------------------------------------------
 Center     Atomic      Atomic             Coordinates (Angstroms)
 Number     Number       Type             X           Y           Z
 ---------------------------------------------------------------------
      1          8           0        0.025268   -1.688062    0.000000
      2          1           0       -0.775035   -2.258167    0.000000
      3          1           0        0.824105   -2.260220    0.000000
      4          8           0        0.025268    1.699777    0.000000
      5          1           0        0.490887    2.565054    0.000000
      6          1           0       -0.944247    1.859613    0.000000
 ---------------------------------------------------------------------

 SCF Done:  E(RHF) =  -33.6450884246     A.U. after   11 cycles
 E2 =    -0.2289537614D+00 EUMP2 =    -0.33874042186000D+02
 CCSD(T)
 CCSD(T)= -0.33891267741D+02

 The electronic state is 1-A'.
 Alpha  occ. eigenvalues --   -1.33910  -1.33588  -0.69531  -0.69189  -0.53755
 Alpha  occ. eigenvalues --   -0.52417  -0.48424  -0.48035
 Alpha virt. eigenvalues --    0.20924   0.22448   0.31749   0.32057   0.76148
 Alpha virt. eigenvalues --    0.80583   0.84067   0.84867   0.91755   1.03574
 Alpha virt. eigenvalues --    1.18724   1.19215   1.23299   1.23646   2.58537

 Mulliken charges:
               1
     1  O   -0.719389
     2  H    0.356151
     3  H    0.363314
     4  O   -0.717214
     5  H    0.354444
     6  H    0.362694
 Sum of Mulliken charges =  -0.00000

 Dipole moment (field-independent basis, Debye):
    X=             -1.1425    Y=             -0.2903    Z=              0.0000  Tot=              1.1788
 Quadrupole moment (field-independent basis, Debye-Ang):
   XX=             -8.5272   YY=              5.0413   ZZ=            -14.9841
   XY=             -1.3522   XZ=              0.0000   YZ=              0.0000

 \MP4DQ=-33.8855253\MP4SDQ=-33.8875987\CCSD=-33.8886589\CCSD(T)=-33.891
 Normal termination of Gaussian 16 at Sun Dec 10 06:56:09 2023.
