 Gaussian 16, Revision A.03,
 Gaussian 16:  ES64L-G16RevA.03 25-Dec-2016

 ------------------
 #p CCSD(T)/CEP-31G
 ------------------

 ------------
 H2O_H2O_4373
 ------------
 Symbolic Z-matrix:
 Charge =  0 Multiplicity = 1

                         Standard orientation:
 ---------------------------------------------------------------------
 Center     Atomic      Atomic             Coordinates (Angstroms)
 Number     Number       Type             X           Y           Z
 ---------------------------------------------------------------------
      1          8           0        0.057075   -3.059208    0.000000
      2          1           0       -0.743395   -3.629079    0.000000
      3          1           0        0.855745   -3.631600    0.000000
      4          8           0        0.057075    3.165784    0.000000
      5          1           0       -0.459223    4.001812    0.000000
      6          1           0       -0.566327    2.406259    0.000000
 ---------------------------------------------------------------------

 SCF Done:  E(RHF) =  -33.6520549775     A.U. after   11 cycles
 E2 =    -0.2283716952D+00 EUMP2 =    -0.33880426672722D+02
 CCSD(T)
 CCSD(T)= -0.33897418971D+02

 The electronic state is 1-A'.
 Alpha  occ. eigenvalues --   -1.35708  -1.34897  -0.71342  -0.70517  -0.55458
 Alpha  occ. eigenvalues --   -0.54634  -0.50284  -0.49472
 Alpha virt. eigenvalues --    0.20078   0.20913   0.30320   0.31151   0.80268
 Alpha virt. eigenvalues --    0.81066   0.83264   0.84092   0.86388   0.87256
 Alpha virt. eigenvalues --    1.17205   1.18013   1.21661   1.22486   2.57215

 Mulliken charges:
               1
     1  O   -0.742084
     2  H    0.369635
     3  H    0.372449
     4  O   -0.741926
     5  H    0.367512
     6  H    0.374414
 Sum of Mulliken charges =   0.00000

 Dipole moment (field-independent basis, Debye):
    X=             -2.6331    Y=             -2.4946    Z=              0.0000  Tot=              3.6271
 Quadrupole moment (field-independent basis, Debye-Ang):
   XX=            -10.1561   YY=              7.2810   ZZ=            -14.9893
   XY=             -8.3960   XZ=              0.0000   YZ=              0.0000

 \MP4DQ=-33.8917769\MP4SDQ=-33.8938038\CCSD=-33.8948585\CCSD(T)=-33.897
 Normal termination of Gaussian 16 at Sun Dec 10 06:58:44 2023.
