 Gaussian 16, Revision A.03,
 Gaussian 16:  ES64L-G16RevA.03 25-Dec-2016

 ------------------
 #p CCSD(T)/CEP-31G
 ------------------

 ------------
 H2O_H2O_4556
 ------------
 Symbolic Z-matrix:
 Charge =  0 Multiplicity = 1

                         Standard orientation:
 ---------------------------------------------------------------------
 Center     Atomic      Atomic             Coordinates (Angstroms)
 Number     Number       Type             X           Y           Z
 ---------------------------------------------------------------------
      1          8           0        0.021859   -3.218746    0.000000
      2          1           0       -0.778045   -3.789411    0.000000
      3          1           0        0.821096   -3.790345    0.000000
      4          8           0        0.021859    3.227416    0.000000
      5          1           0        0.542490    4.060752    0.000000
      6          1           0       -0.935282    3.449649    0.000000
 ---------------------------------------------------------------------

 SCF Done:  E(RHF) =  -33.6507797349     A.U. after   11 cycles
 E2 =    -0.2284327894D+00 EUMP2 =    -0.33879212524239D+02
 CCSD(T)
 CCSD(T)= -0.33896241927D+02

 The electronic state is 1-A'.
 Alpha  occ. eigenvalues --   -1.35072  -1.35010  -0.70700  -0.70636  -0.54751
 Alpha  occ. eigenvalues --   -0.54688  -0.49628  -0.49566
 Alpha virt. eigenvalues --    0.20643   0.20707   0.30876   0.30937   0.80925
 Alpha virt. eigenvalues --    0.80987   0.84047   0.84109   0.87122   0.87195
 Alpha virt. eigenvalues --    1.17786   1.17848   1.22252   1.22315   2.57828

 Mulliken charges:
               1
     1  O   -0.737525
     2  H    0.368222
     3  H    0.369303
     4  O   -0.737437
     5  H    0.367934
     6  H    0.369503
 Sum of Mulliken charges =   0.00000

 Dipole moment (field-independent basis, Debye):
    X=             -1.0092    Y=             -0.2027    Z=              0.0000  Tot=              1.0293
 Quadrupole moment (field-independent basis, Debye-Ang):
   XX=             -8.3472   YY=             21.1740   ZZ=            -14.9870
   XY=             -2.6334   XZ=              0.0000   YZ=              0.0000

 \MP4DQ=-33.8905899\MP4SDQ=-33.8926203\CCSD=-33.8936776\CCSD(T)=-33.896
 Normal termination of Gaussian 16 at Sun Dec 10 07:03:39 2023.
