 Gaussian 16, Revision A.03,
 Gaussian 16:  ES64L-G16RevA.03 25-Dec-2016

 ------------------
 #p CCSD(T)/CEP-31G
 ------------------

 ------------
 H2O_H2O_4050
 ------------
 Symbolic Z-matrix:
 Charge =  0 Multiplicity = 1

                         Standard orientation:
 ---------------------------------------------------------------------
 Center     Atomic      Atomic             Coordinates (Angstroms)
 Number     Number       Type             X           Y           Z
 ---------------------------------------------------------------------
      1          8           0        0.000000   -0.000000    2.957536
      2          1           0        0.000000    0.799571    3.528668
      3          1           0       -0.000000   -0.799571    3.528668
      4          8           0        0.000000   -0.000000   -2.957536
      5          1           0       -0.000000   -0.799571   -3.528668
      6          1           0        0.000000    0.799571   -3.528668
 ---------------------------------------------------------------------

 SCF Done:  E(RHF) =  -33.6503276631     A.U. after   10 cycles
 E2 =    -0.2284570113D+00 EUMP2 =    -0.33878784674323D+02
 CCSD(T)
 CCSD(T)= -0.33895827013D+02

 The electronic state is 1-AG.
 Alpha  occ. eigenvalues --   -1.34904  -1.34904  -0.70531  -0.70531  -0.54559
 Alpha  occ. eigenvalues --   -0.54556  -0.49454  -0.49454
 Alpha virt. eigenvalues --    0.20783   0.20790   0.31016   0.31017   0.81099
 Alpha virt. eigenvalues --    0.81101   0.84231   0.84308   0.87319   0.87325
 Alpha virt. eigenvalues --    1.17935   1.17935   1.22405   1.22406   2.57985

 Mulliken charges:
               1
     1  O   -0.735938
     2  H    0.367969
     3  H    0.367969
     4  O   -0.735938
     5  H    0.367969
     6  H    0.367969
 Sum of Mulliken charges =  -0.00000

 Dipole moment (field-independent basis, Debye):
    X=             -0.0000    Y=              0.0000    Z=             -0.0000  Tot=              0.0000
 Quadrupole moment (field-independent basis, Debye-Ang):
   XX=            -14.9864   YY=             -8.0426   ZZ=             19.3575
   XY=              0.0000   XZ=              0.0000   YZ=             -0.0000

 -33.8901714\MP4SDQ=-33.892203\CCSD=-33.8932611\CCSD(T)=-33.895827\RMSD
 Normal termination of Gaussian 16 at Sun Dec 10 06:53:00 2023.
