 Gaussian 16, Revision A.03,
 Gaussian 16:  ES64L-G16RevA.03 25-Dec-2016

 ------------------
 #p CCSD(T)/CEP-31G
 ------------------

 ------------
 H2O_H2O_2449
 ------------
 Symbolic Z-matrix:
 Charge =  0 Multiplicity = 1

                         Standard orientation:
 ---------------------------------------------------------------------
 Center     Atomic      Atomic             Coordinates (Angstroms)
 Number     Number       Type             X           Y           Z
 ---------------------------------------------------------------------
      1          8           0        0.057247   -2.031413    0.000000
      2          1           0       -0.743666   -2.600661    0.000000
      3          1           0        0.855472   -2.604426    0.000000
      4          8           0        0.057247    2.145370    0.000000
      5          1           0       -0.512001    2.946284    0.000000
      6          1           0       -0.515765    1.347146    0.000000
 ---------------------------------------------------------------------

 SCF Done:  E(RHF) =  -33.6533879165     A.U. after   11 cycles
 E2 =    -0.2284632424D+00 EUMP2 =    -0.33881851158972D+02
 CCSD(T)
 CCSD(T)= -0.33898812030D+02

 The electronic state is 1-A'.
 Alpha  occ. eigenvalues --   -1.36030  -1.33952  -0.71671  -0.69530  -0.55860
 Alpha  occ. eigenvalues --   -0.53713  -0.50624  -0.48544
 Alpha virt. eigenvalues --    0.19381   0.22334   0.30016   0.32313   0.79896
 Alpha virt. eigenvalues --    0.81666   0.82003   0.85478   0.85970   0.89881
 Alpha virt. eigenvalues --    1.16928   1.19303   1.21324   1.24976   2.56450

 Mulliken charges:
               1
     1  O   -0.746175
     2  H    0.369189
     3  H    0.377622
     4  O   -0.745948
     5  H    0.361144
     6  H    0.384168
 Sum of Mulliken charges =   0.00000

 Dipole moment (field-independent basis, Debye):
    X=             -2.6196    Y=             -2.7486    Z=              0.0000  Tot=              3.7969
 Quadrupole moment (field-independent basis, Debye-Ang):
   XX=            -10.1552   YY=              0.6409   ZZ=            -14.9926
   XY=             -5.8827   XZ=              0.0000   YZ=              0.0000

 P4DQ=-33.8931602\MP4SDQ=-33.895199\CCSD=-33.8962416\CCSD(T)=-33.898812
 Normal termination of Gaussian 16 at Sun Dec 10 07:11:28 2023.
