 Gaussian 16, Revision A.03,
 Gaussian 16:  ES64L-G16RevA.03 25-Dec-2016

 ------------------
 #p CCSD(T)/CEP-31G
 ------------------

 ------------
 H2O_H2O_4185
 ------------
 Symbolic Z-matrix:
 Charge =  0 Multiplicity = 1

                         Standard orientation:
 ---------------------------------------------------------------------
 Center     Atomic      Atomic             Coordinates (Angstroms)
 Number     Number       Type             X           Y           Z
 ---------------------------------------------------------------------
      1          8           0        0.034780   -3.011234    0.000000
      2          1           0       -0.765356   -3.581574    0.000000
      3          1           0        0.833785   -3.583157    0.000000
      4          8           0        0.034780    3.034769    0.000000
      5          1           0        0.322370    3.974343    0.000000
      6          1           0       -0.947279    3.002103    0.000000
 ---------------------------------------------------------------------

 SCF Done:  E(RHF) =  -33.6507926419     A.U. after   11 cycles
 E2 =    -0.2284375843D+00 EUMP2 =    -0.33879230226147D+02
 CCSD(T)
 CCSD(T)= -0.33896259229D+02

 The electronic state is 1-A'.
 Alpha  occ. eigenvalues --   -1.35112  -1.34918  -0.70740  -0.70541  -0.54791
 Alpha  occ. eigenvalues --   -0.54597  -0.49668  -0.49475
 Alpha virt. eigenvalues --    0.20605   0.20801   0.30838   0.31028   0.80885
 Alpha virt. eigenvalues --    0.81076   0.84005   0.84198   0.87080   0.87308
 Alpha virt. eigenvalues --    1.17748   1.17939   1.22214   1.22407   2.57789

 Mulliken charges:
               1
     1  O   -0.737592
     2  H    0.367774
     3  H    0.369818
     4  O   -0.737318
     5  H    0.367099
     6  H    0.370219
 Sum of Mulliken charges =   0.00000

 Dipole moment (field-independent basis, Debye):
    X=             -1.6046    Y=             -0.5512    Z=              0.0000  Tot=              1.6966
 Quadrupole moment (field-independent basis, Debye-Ang):
   XX=             -8.8238   YY=             17.4412   ZZ=            -14.9871
   XY=             -4.0399   XZ=              0.0000   YZ=              0.0000

 \MP4DQ=-33.8906073\MP4SDQ=-33.8926377\CCSD=-33.8936948\CCSD(T)=-33.896
 Normal termination of Gaussian 16 at Sun Dec 10 06:55:27 2023.
