 Gaussian 16, Revision A.03,
 Gaussian 16:  ES64L-G16RevA.03 25-Dec-2016

 ------------------
 #p CCSD(T)/CEP-31G
 ------------------

 ------------
 H2O_H2O_1890
 ------------
 Symbolic Z-matrix:
 Charge =  0 Multiplicity = 1

                         Standard orientation:
 ---------------------------------------------------------------------
 Center     Atomic      Atomic             Coordinates (Angstroms)
 Number     Number       Type             X           Y           Z
 ---------------------------------------------------------------------
      1          8           0        0.047545   -1.773337    0.000000
      2          1           0       -0.753322   -2.342650    0.000000
      3          1           0        0.845816   -2.346285    0.000000
      4          8           0        0.047545    1.823886    0.000000
      5          1           0        0.019117    2.806077    0.000000
      6          1           0       -0.872339    1.478461    0.000000
 ---------------------------------------------------------------------

 SCF Done:  E(RHF) =  -33.6492233309     A.U. after   11 cycles
 E2 =    -0.2287919189D+00 EUMP2 =    -0.33878015249803D+02
 CCSD(T)
 CCSD(T)= -0.33895112071D+02

 The electronic state is 1-A'.
 Alpha  occ. eigenvalues --   -1.34898  -1.33657  -0.70530  -0.69225  -0.54531
 Alpha  occ. eigenvalues --   -0.53176  -0.49436  -0.48199
 Alpha virt. eigenvalues --    0.20144   0.22560   0.30911   0.32201   0.76349
 Alpha virt. eigenvalues --    0.80385   0.83077   0.85728   0.88049   1.00615
 Alpha virt. eigenvalues --    1.17876   1.19670   1.22299   1.24019   2.57257

 Mulliken charges:
               1
     1  O   -0.732482
     2  H    0.360779
     3  H    0.372161
     4  O   -0.728122
     5  H    0.355054
     6  H    0.372610
 Sum of Mulliken charges =   0.00000

 Dipole moment (field-independent basis, Debye):
    X=             -2.1561    Y=             -1.2385    Z=              0.0000  Tot=              2.4865
 Quadrupole moment (field-independent basis, Debye-Ang):
   XX=             -9.5128   YY=              3.8484   ZZ=            -14.9876
   XY=             -3.3166   XZ=              0.0000   YZ=              0.0000

 1\MP4DQ=-33.8894131\MP4SDQ=-33.8914727\CCSD=-33.8925203\CCSD(T)=-33.89
 Normal termination of Gaussian 16 at Sun Dec 10 06:59:59 2023.
