 Gaussian 16, Revision A.03,
 Gaussian 16:  ES64L-G16RevA.03 25-Dec-2016

 ------------------
 #p CCSD(T)/CEP-31G
 ------------------

 ------------
 H2O_H2O_1680
 ------------
 Symbolic Z-matrix:
 Charge =  0 Multiplicity = 1

                         Standard orientation:
 ---------------------------------------------------------------------
 Center     Atomic      Atomic             Coordinates (Angstroms)
 Number     Number       Type             X           Y           Z
 ---------------------------------------------------------------------
      1          8           0        0.018361   -1.691151    0.000000
      2          1           0       -0.781742   -2.261537    0.000000
      3          1           0        0.817399   -2.263029    0.000000
      4          8           0        0.018361    1.697179    0.000000
      5          1           0        0.592659    2.494479    0.000000
      6          1           0       -0.922096    1.981864    0.000000
 ---------------------------------------------------------------------

 SCF Done:  E(RHF) =  -33.6445734935     A.U. after   11 cycles
 E2 =    -0.2289510316D+00 EUMP2 =    -0.33873524525145D+02
 CCSD(T)
 CCSD(T)= -0.33890762359D+02

 The electronic state is 1-A'.
 Alpha  occ. eigenvalues --   -1.33779  -1.33605  -0.69398  -0.69213  -0.53682
 Alpha  occ. eigenvalues --   -0.52311  -0.48305  -0.48023
 Alpha virt. eigenvalues --    0.21041   0.22402   0.31801   0.32078   0.76406
 Alpha virt. eigenvalues --    0.80658   0.84119   0.84854   0.92393   1.02686
 Alpha virt. eigenvalues --    1.18839   1.19105   1.23326   1.23715   2.58582

 Mulliken charges:
               1
     1  O   -0.717659
     2  H    0.356240
     3  H    0.361456
     4  O   -0.716483
     5  H    0.355309
     6  H    0.361137
 Sum of Mulliken charges =   0.00000

 Dipole moment (field-independent basis, Debye):
    X=             -0.8308    Y=             -0.1495    Z=              0.0000  Tot=              0.8442
 Quadrupole moment (field-independent basis, Debye-Ang):
   XX=             -8.3439   YY=              5.3184   ZZ=            -14.9836
   XY=             -0.9523   XZ=              0.0000   YZ=              0.0000

 \MP4DQ=-33.8850176\MP4SDQ=-33.8870904\CCSD=-33.8881527\CCSD(T)=-33.890
 Normal termination of Gaussian 16 at Sun Dec 10 06:56:07 2023.
