 Gaussian 16, Revision A.03,
 Gaussian 16:  ES64L-G16RevA.03 25-Dec-2016

 ------------------
 #p CCSD(T)/CEP-31G
 ------------------

 ------------
 H2O_H2O_3408
 ------------
 Symbolic Z-matrix:
 Charge =  0 Multiplicity = 1

                         Standard orientation:
 ---------------------------------------------------------------------
 Center     Atomic      Atomic             Coordinates (Angstroms)
 Number     Number       Type             X           Y           Z
 ---------------------------------------------------------------------
      1          8           0        0.028564   -2.603560    0.000000
      2          1           0       -0.771545   -3.173939    0.000000
      3          1           0        0.827597   -3.175445    0.000000
      4          8           0        0.028564    2.618810    0.000000
      5          1           0        0.436290    3.512827    0.000000
      6          1           0       -0.949362    2.714560    0.000000
 ---------------------------------------------------------------------

 SCF Done:  E(RHF) =  -33.6500320900     A.U. after   11 cycles
 E2 =    -0.2284854937D+00 EUMP2 =    -0.33878517583719D+02
 CCSD(T)
 CCSD(T)= -0.33895568613D+02

 The electronic state is 1-A'.
 Alpha  occ. eigenvalues --   -1.34866  -1.34696  -0.70492  -0.70317  -0.54502
 Alpha  occ. eigenvalues --   -0.54331  -0.49411  -0.49242
 Alpha virt. eigenvalues --    0.20803   0.20986   0.31039   0.31203   0.81140
 Alpha virt. eigenvalues --    0.81309   0.84096   0.84742   0.87375   0.87610
 Alpha virt. eigenvalues --    1.17961   1.18129   1.22435   1.22602   2.58020

 Mulliken charges:
               1
     1  O   -0.734960
     2  H    0.366217
     3  H    0.368743
     4  O   -0.734575
     5  H    0.365510
     6  H    0.369065
 Sum of Mulliken charges =  -0.00000

 Dipole moment (field-independent basis, Debye):
    X=             -1.3149    Y=             -0.3594    Z=              0.0000  Tot=              1.3631
 Quadrupole moment (field-independent basis, Debye-Ang):
   XX=             -8.5765   YY=             14.2547   ZZ=            -14.9863
   XY=             -2.7087   XZ=              0.0000   YZ=              0.0000

 MP4DQ=-33.8899105\MP4SDQ=-33.8919431\CCSD=-33.8930011\CCSD(T)=-33.8955
 Normal termination of Gaussian 16 at Sun Dec 10 06:41:12 2023.
