 Gaussian 16, Revision A.03,
 Gaussian 16:  ES64L-G16RevA.03 25-Dec-2016

 ------------------
 #p CCSD(T)/CEP-31G
 ------------------

 ------------
 H2O_H2O_4512
 ------------
 Symbolic Z-matrix:
 Charge =  0 Multiplicity = 1

                         Standard orientation:
 ---------------------------------------------------------------------
 Center     Atomic      Atomic             Coordinates (Angstroms)
 Number     Number       Type             X           Y           Z
 ---------------------------------------------------------------------
      1          8           0        0.040403   -3.178740    0.000000
      2          1           0       -0.759789   -3.749002    0.000000
      3          1           0        0.839352   -3.750742    0.000000
      4          8           0        0.040403    3.212108    0.000000
      5          1           0        0.202989    4.181166    0.000000
      6          1           0       -0.929006    3.051632    0.000000
 ---------------------------------------------------------------------

 SCF Done:  E(RHF) =  -33.6510804825     A.U. after   11 cycles
 E2 =    -0.2284210258D+00 EUMP2 =    -0.33879501508288D+02
 CCSD(T)
 CCSD(T)= -0.33896522229D+02

 The electronic state is 1-A'.
 Alpha  occ. eigenvalues --   -1.35229  -1.34984  -0.70859  -0.70608  -0.54925
 Alpha  occ. eigenvalues --   -0.54679  -0.49790  -0.49545
 Alpha virt. eigenvalues --    0.20503   0.20752   0.30738   0.30980   0.80763
 Alpha virt. eigenvalues --    0.81005   0.83856   0.84097   0.86942   0.87222
 Alpha virt. eigenvalues --    1.17642   1.17885   1.22106   1.22350   2.57677

 Mulliken charges:
               1
     1  O   -0.738605
     2  H    0.368292
     3  H    0.370313
     4  O   -0.738340
     5  H    0.367531
     6  H    0.370809
 Sum of Mulliken charges =  -0.00000

 Dipole moment (field-independent basis, Debye):
    X=             -1.8651    Y=             -0.7802    Z=              0.0000  Tot=              2.0217
 Quadrupole moment (field-independent basis, Debye-Ang):
   XX=             -9.0969   YY=             17.8711   ZZ=            -14.9875
   XY=             -5.1393   XZ=              0.0000   YZ=              0.0000

 \MP4DQ=-33.8908726\MP4SDQ=-33.8929022\CCSD=-33.8939588\CCSD(T)=-33.896
 Normal termination of Gaussian 16 at Sun Dec 10 07:02:23 2023.
