 Gaussian 16, Revision A.03,
 Gaussian 16:  ES64L-G16RevA.03 25-Dec-2016

 ------------------
 #p CCSD(T)/CEP-31G
 ------------------

 ------------
 H2O_H2O_2484
 ------------
 Symbolic Z-matrix:
 Charge =  0 Multiplicity = 1

                         Standard orientation:
 ---------------------------------------------------------------------
 Center     Atomic      Atomic             Coordinates (Angstroms)
 Number     Number       Type             X           Y           Z
 ---------------------------------------------------------------------
      1          8           0        0.031743   -2.109483    0.000000
      2          1           0       -0.768564   -2.679584    0.000000
      3          1           0        0.830577   -2.681645    0.000000
      4          8           0        0.031743    2.128652    0.000000
      5          1           0        0.380442    3.047300    0.000000
      6          1           0       -0.950340    2.160579    0.000000
 ---------------------------------------------------------------------

 SCF Done:  E(RHF) =  -33.6487349443     A.U. after   11 cycles
 E2 =    -0.2286061467D+00 EUMP2 =    -0.33877341091040D+02
 CCSD(T)
 CCSD(T)= -0.33894431090D+02

 The electronic state is 1-A'.
 Alpha  occ. eigenvalues --   -1.34577  -1.34247  -0.70201  -0.69856  -0.54168
 Alpha  occ. eigenvalues --   -0.53764  -0.49104  -0.48776
 Alpha virt. eigenvalues --    0.20860   0.21515   0.31259   0.31568   0.81280
 Alpha virt. eigenvalues --    0.81294   0.81932   0.86406   0.87900   0.90642
 Alpha virt. eigenvalues --    1.18198   1.18529   1.22686   1.23019   2.58221

 Mulliken charges:
               1
     1  O   -0.730584
     2  H    0.362836
     3  H    0.367784
     4  O   -0.729391
     5  H    0.361357
     6  H    0.367998
 Sum of Mulliken charges =  -0.00000

 Dipole moment (field-independent basis, Debye):
    X=             -1.4529    Y=             -0.4592    Z=              0.0000  Tot=              1.5237
 Quadrupole moment (field-independent basis, Debye-Ang):
   XX=             -8.7161   YY=              8.9983   ZZ=            -14.9855
   XY=             -2.3521   XZ=              0.0000   YZ=              0.0000

 MP4DQ=-33.888758\MP4SDQ=-33.8907976\CCSD=-33.8918551\CCSD(T)=-33.89443
 Normal termination of Gaussian 16 at Sun Dec 10 07:12:06 2023.
