 Gaussian 16, Revision A.03,
 Gaussian 16:  ES64L-G16RevA.03 25-Dec-2016

 ------------------
 #p CCSD(T)/CEP-31G
 ------------------

 ------------
 H2O_H2O_3554
 ------------
 Symbolic Z-matrix:
 Charge =  0 Multiplicity = 1

                         Standard orientation:
 ---------------------------------------------------------------------
 Center     Atomic      Atomic             Coordinates (Angstroms)
 Number     Number       Type             X           Y           Z
 ---------------------------------------------------------------------
      1          8           0        0.014783   -2.689512    0.000000
      2          1           0       -0.785058   -3.260266    0.000000
      3          1           0        0.814084   -3.261022    0.000000
      4          8           0        0.014783    2.693390    0.000000
      5          1           0        0.639649    3.451711    0.000000
      6          1           0       -0.905201    3.038552    0.000000
 ---------------------------------------------------------------------

 SCF Done:  E(RHF) =  -33.6499303239     A.U. after   11 cycles
 E2 =    -0.2284834101D+00 EUMP2 =    -0.33878413734013D+02
 CCSD(T)
 CCSD(T)= -0.33895467561D+02

 The electronic state is 1-A'.
 Alpha  occ. eigenvalues --   -1.34800  -1.34759  -0.70425  -0.70383  -0.54431
 Alpha  occ. eigenvalues --   -0.54387  -0.49343  -0.49303
 Alpha virt. eigenvalues --    0.20864   0.20917   0.31099   0.31138   0.81208
 Alpha virt. eigenvalues --    0.81252   0.84228   0.84658   0.87446   0.87511
 Alpha virt. eigenvalues --    1.18023   1.18063   1.22497   1.22537   2.58084

 Mulliken charges:
               1
     1  O   -0.734575
     2  H    0.366684
     3  H    0.367892
     4  O   -0.734480
     5  H    0.366427
     6  H    0.368053
 Sum of Mulliken charges =  -0.00000

 Dipole moment (field-independent basis, Debye):
    X=             -0.6809    Y=             -0.0913    Z=              0.0000  Tot=              0.6870
 Quadrupole moment (field-independent basis, Debye-Ang):
   XX=             -8.1906   YY=             16.1426   ZZ=            -14.9861
   XY=             -1.4017   XZ=              0.0000   YZ=              0.0000

 \MP4DQ=-33.8898087\MP4SDQ=-33.8918415\CCSD=-33.8929\CCSD(T)=-33.895467
 Normal termination of Gaussian 16 at Sun Dec 10 06:43:52 2023.
