 Gaussian 16, Revision A.03,
 Gaussian 16:  ES64L-G16RevA.03 25-Dec-2016

 ------------------
 #p CCSD(T)/CEP-31G
 ------------------

 -----------
 H2O_H2O_256
 -----------
 Symbolic Z-matrix:
 Charge =  0 Multiplicity = 1

                         Standard orientation:
 ---------------------------------------------------------------------
 Center     Atomic      Atomic             Coordinates (Angstroms)
 Number     Number       Type             X           Y           Z
 ---------------------------------------------------------------------
      1          8           0        0.021865   -0.931882    0.000000
      2          1           0       -0.778852   -1.501406    0.000000
      3          1           0        0.820286   -1.504620    0.000000
      4          8           0        0.021865    0.940489    0.000000
      5          1           0        0.543684    1.773082    0.000000
      6          1           0       -0.934958    1.164087    0.000000
 ---------------------------------------------------------------------

 SCF Done:  E(RHF) =  -33.5673104008     A.U. after   11 cycles
 E2 =    -0.2338851844D+00 EUMP2 =    -0.33801195585224D+02
 CCSD(T)
 CCSD(T)= -0.33818180527D+02

 The electronic state is 1-A'.
 Alpha  occ. eigenvalues --   -1.34283  -1.29874  -0.69213  -0.66421  -0.60421
 Alpha  occ. eigenvalues --   -0.49213  -0.43469  -0.38702
 Alpha virt. eigenvalues --    0.21213   0.27003   0.32322   0.33518   0.80571
 Alpha virt. eigenvalues --    0.81354   0.90004   0.93165   1.03550   1.19956
 Alpha virt. eigenvalues --    1.21734   1.23288   1.27453   1.30986   2.49025

 Mulliken charges:
               1
     1  O   -0.712671
     2  H    0.339245
     3  H    0.366983
     4  O   -0.686880
     5  H    0.350603
     6  H    0.342721
 Sum of Mulliken charges =  -0.00000

 Dipole moment (field-independent basis, Debye):
    X=             -0.8241    Y=             -0.2119    Z=              0.0000  Tot=              0.8509
 Quadrupole moment (field-independent basis, Debye-Ang):
   XX=             -8.6558   YY=             -5.1229   ZZ=            -15.0231
   XY=             -0.4943   XZ=              0.0000   YZ=              0.0000

 MP4DQ=-33.8117758\MP4SDQ=-33.8141861\CCSD=-33.8150754\CCSD(T)=-33.8181
 Normal termination of Gaussian 16 at Sun Dec 10 06:29:33 2023.
