 Gaussian 16, Revision A.03,
 Gaussian 16:  ES64L-G16RevA.03 25-Dec-2016

 ------------------
 #p CCSD(T)/CEP-31G
 ------------------

 ------------
 H2O_H2O_1738
 ------------
 Symbolic Z-matrix:
 Charge =  0 Multiplicity = 1

                         Standard orientation:
 ---------------------------------------------------------------------
 Center     Atomic      Atomic             Coordinates (Angstroms)
 Number     Number       Type             X           Y           Z
 ---------------------------------------------------------------------
      1          8           0        0.042982   -1.699982    0.000000
      2          1           0       -0.757815   -2.269394    0.000000
      3          1           0        0.841323   -2.272832    0.000000
      4          8           0        0.042982    1.738710    0.000000
      5          1           0        0.142878    2.716220    0.000000
      6          1           0       -0.914093    1.516190    0.000000
 ---------------------------------------------------------------------

 SCF Done:  E(RHF) =  -33.6477564971     A.U. after   11 cycles
 E2 =    -0.2289066023D+00 EUMP2 =    -0.33876663099349D+02
 CCSD(T)
 CCSD(T)= -0.33893814147D+02

 The electronic state is 1-A'.
 Alpha  occ. eigenvalues --   -1.34573  -1.33540  -0.70202  -0.69112  -0.54228
 Alpha  occ. eigenvalues --   -0.52875  -0.49097  -0.48058
 Alpha virt. eigenvalues --    0.20344   0.22675   0.31190   0.32209   0.75598
 Alpha virt. eigenvalues --    0.80295   0.83663   0.85324   0.89283   1.04138
 Alpha virt. eigenvalues --    1.18143   1.19825   1.22634   1.23931   2.57709

 Mulliken charges:
               1
     1  O   -0.728000
     2  H    0.358371
     3  H    0.369988
     4  O   -0.723051
     5  H    0.353327
     6  H    0.369366
 Sum of Mulliken charges =  -0.00000

 Dipole moment (field-independent basis, Debye):
    X=             -1.9422    Y=             -0.9551    Z=              0.0000  Tot=              2.1644
 Quadrupole moment (field-independent basis, Debye-Ang):
   XX=             -9.2623   YY=              3.8565   ZZ=            -14.9864
   XY=             -2.6933   XZ=              0.0000   YZ=              0.0000

 \MP4DQ=-33.8880916\MP4SDQ=-33.890162\CCSD=-33.8912125\CCSD(T)=-33.8938
 Normal termination of Gaussian 16 at Sun Dec 10 06:57:11 2023.
