 Gaussian 16, Revision A.03,
 Gaussian 16:  ES64L-G16RevA.03 25-Dec-2016

 ------------------
 #p CCSD(T)/CEP-31G
 ------------------

 ------------
 H2O_H2O_3315
 ------------
 Symbolic Z-matrix:
 Charge =  0 Multiplicity = 1

                         Standard orientation:
 ---------------------------------------------------------------------
 Center     Atomic      Atomic             Coordinates (Angstroms)
 Number     Number       Type             X           Y           Z
 ---------------------------------------------------------------------
      1          8           0        0.047528   -2.531170    0.000000
      2          1           0       -0.752955   -3.101023    0.000000
      3          1           0        0.846185   -3.103580    0.000000
      4          8           0        0.047528    2.581784    0.000000
      5          1           0        0.018438    3.563955    0.000000
      6          1           0       -0.872123    2.235738    0.000000
 ---------------------------------------------------------------------

 SCF Done:  E(RHF) =  -33.6508496829     A.U. after   11 cycles
 E2 =    -0.2284570710D+00 EUMP2 =    -0.33879306753899D+02
 CCSD(T)
 CCSD(T)= -0.33896334329D+02

 The electronic state is 1-A'.
 Alpha  occ. eigenvalues --   -1.35206  -1.34615  -0.70835  -0.70226  -0.54888
 Alpha  occ. eigenvalues --   -0.54293  -0.49763  -0.49174
 Alpha virt. eigenvalues --    0.20501   0.21128   0.30748   0.31331   0.80790
 Alpha virt. eigenvalues --    0.81369   0.83718   0.84629   0.86978   0.87734
 Alpha virt. eigenvalues --    1.17657   1.18241   1.22121   1.22715   2.57692

 Mulliken charges:
               1
     1  O   -0.737871
     2  H    0.366749
     3  H    0.371124
     4  O   -0.736969
     5  H    0.364759
     6  H    0.372207
 Sum of Mulliken charges =   0.00000

 Dipole moment (field-independent basis, Debye):
    X=             -2.1869    Y=             -1.1943    Z=              0.0000  Tot=              2.4918
 Quadrupole moment (field-independent basis, Debye-Ang):
   XX=             -9.5046   YY=             10.3012   ZZ=            -14.9876
   XY=             -4.9276   XZ=              0.0000   YZ=              0.0000

 9\MP4DQ=-33.8906824\MP4SDQ=-33.892713\CCSD=-33.893769\CCSD(T)=-33.8963
 Normal termination of Gaussian 16 at Sun Dec 10 06:39:32 2023.
