 Gaussian 16, Revision A.03,
 Gaussian 16:  ES64L-G16RevA.03 25-Dec-2016

 ------------------
 #p CCSD(T)/CEP-31G
 ------------------

 ------------
 H2O_H2O_3475
 ------------
 Symbolic Z-matrix:
 Charge =  0 Multiplicity = 1

                         Standard orientation:
 ---------------------------------------------------------------------
 Center     Atomic      Atomic             Coordinates (Angstroms)
 Number     Number       Type             X           Y           Z
 ---------------------------------------------------------------------
      1          8           0        0.000000   -0.000000    2.651730
      2          1           0        0.000000    0.799571    3.222862
      3          1           0       -0.000000   -0.799571    3.222862
      4          8           0        0.000000   -0.000000   -2.651730
      5          1           0       -0.000000   -0.799571   -3.222862
      6          1           0        0.000000    0.799571   -3.222862
 ---------------------------------------------------------------------

 SCF Done:  E(RHF) =  -33.6497549293     A.U. after   10 cycles
 E2 =    -0.2284914344D+00 EUMP2 =    -0.33878246363710D+02
 CCSD(T)
 CCSD(T)= -0.33895305219D+02

 The electronic state is 1-AG.
 Alpha  occ. eigenvalues --   -1.34738  -1.34738  -0.70363  -0.70363  -0.54368
 Alpha  occ. eigenvalues --   -0.54346  -0.49280  -0.49278
 Alpha virt. eigenvalues --    0.20902   0.20942   0.31146   0.31154   0.81262
 Alpha virt. eigenvalues --    0.81285   0.84227   0.84790   0.87498   0.87552
 Alpha virt. eigenvalues --    1.18078   1.18078   1.22549   1.22557   2.58134

 Mulliken charges:
               1
     1  O   -0.733961
     2  H    0.366981
     3  H    0.366981
     4  O   -0.733961
     5  H    0.366981
     6  H    0.366981
 Sum of Mulliken charges =  -0.00000

 Dipole moment (field-independent basis, Debye):
    X=             -0.0000    Y=              0.0000    Z=              0.0000  Tot=              0.0000
 Quadrupole moment (field-independent basis, Debye-Ang):
   XX=            -14.9859   YY=             -8.0516   ZZ=             16.0747
   XY=              0.0000   XZ=              0.0000   YZ=             -0.0000

 33.889645\MP4SDQ=-33.8916782\CCSD=-33.8927371\CCSD(T)=-33.8953052\RMSD
 Normal termination of Gaussian 16 at Sun Dec 10 06:42:26 2023.
