 Gaussian 16, Revision A.03,
 Gaussian 16:  ES64L-G16RevA.03 25-Dec-2016

 ------------------
 #p CCSD(T)/CEP-31G
 ------------------

 -----------
 H2O_H2O_454
 -----------
 Symbolic Z-matrix:
 Charge =  0 Multiplicity = 1

                         Standard orientation:
 ---------------------------------------------------------------------
 Center     Atomic      Atomic             Coordinates (Angstroms)
 Number     Number       Type             X           Y           Z
 ---------------------------------------------------------------------
      1          8           0        0.014784   -1.040831    0.000000
      2          1           0       -0.785483   -1.610987    0.000000
      3          1           0        0.813658   -1.612938    0.000000
      4          8           0        0.014784    1.044687    0.000000
      5          1           0        0.640217    1.802539    0.000000
      6          1           0       -0.904941    1.390536    0.000000
 ---------------------------------------------------------------------

 SCF Done:  E(RHF) =  -33.6031042060     A.U. after   11 cycles
 E2 =    -0.2318092047D+00 EUMP2 =    -0.33834913410657D+02
 CCSD(T)
 CCSD(T)= -0.33852146980D+02

 The electronic state is 1-A'.
 Alpha  occ. eigenvalues --   -1.33053  -1.30734  -0.68296  -0.66654  -0.57855
 Alpha  occ. eigenvalues --   -0.47971  -0.44423  -0.42632
 Alpha virt. eigenvalues --    0.21465   0.25765   0.32780   0.33338   0.78844
 Alpha virt. eigenvalues --    0.80470   0.90187   0.97213   1.01852   1.18460
 Alpha virt. eigenvalues --    1.20205   1.23091   1.24974   1.27423   2.49428

 Mulliken charges:
               1
     1  O   -0.703566
     2  H    0.343002
     3  H    0.358053
     4  O   -0.694183
     5  H    0.350905
     6  H    0.345789
 Sum of Mulliken charges =  -0.00000

 Dipole moment (field-independent basis, Debye):
    X=             -0.5841    Y=             -0.0905    Z=              0.0000  Tot=              0.5910
 Quadrupole moment (field-independent basis, Debye-Ang):
   XX=             -8.4488   YY=             -3.1282   ZZ=            -15.0190
   XY=             -0.3537   XZ=              0.0000   YZ=              0.0000

 MP4DQ=-33.8459979\MP4SDQ=-33.8482206\CCSD=-33.8492419\CCSD(T)=-33.8521
 Normal termination of Gaussian 16 at Sun Dec 10 06:33:15 2023.
