 Gaussian 16, Revision A.03,
 Gaussian 16:  ES64L-G16RevA.03 25-Dec-2016

 ------------------
 #p CCSD(T)/CEP-31G
 ------------------

 -----------
 H2O_H2O_618
 -----------
 Symbolic Z-matrix:
 Charge =  0 Multiplicity = 1

                         Standard orientation:
 ---------------------------------------------------------------------
 Center     Atomic      Atomic             Coordinates (Angstroms)
 Number     Number       Type             X           Y           Z
 ---------------------------------------------------------------------
      1          8           0        0.052908   -1.084632    0.000000
      2          1           0       -0.748973   -1.652516    0.000000
      3          1           0        0.850156   -1.659003    0.000000
      4          8           0        0.052908    1.154717    0.000000
      5          1           0       -0.164880    2.112880    0.000000
      6          1           0       -0.782835    0.637960    0.000000
 ---------------------------------------------------------------------

 SCF Done:  E(RHF) =  -33.6296953535     A.U. after   11 cycles
 E2 =    -0.2311137572D+00 EUMP2 =    -0.33860809110636D+02
 CCSD(T)
 CCSD(T)= -0.33877953560D+02

 The electronic state is 1-A'.
 Alpha  occ. eigenvalues --   -1.35529  -1.31099  -0.71263  -0.68168  -0.54421
 Alpha  occ. eigenvalues --   -0.50124  -0.49388  -0.45459
 Alpha virt. eigenvalues --    0.19652   0.26787   0.30592   0.34313   0.78005
 Alpha virt. eigenvalues --    0.84507   0.89441   0.95203   0.97115   1.14213
 Alpha virt. eigenvalues --    1.18895   1.21699   1.25036   1.31434   2.63739

 Mulliken charges:
               1
     1  O   -0.765054
     2  H    0.356028
     3  H    0.396953
     4  O   -0.687618
     5  H    0.329311
     6  H    0.370379
 Sum of Mulliken charges =  -0.00000

 Dipole moment (field-independent basis, Debye):
    X=             -2.1815    Y=             -1.7865    Z=              0.0000  Tot=              2.8197
 Quadrupole moment (field-independent basis, Debye-Ang):
   XX=             -9.8579   YY=             -3.6015   ZZ=            -14.9978
   XY=             -2.3972   XZ=              0.0000   YZ=              0.0000

 \MP4DQ=-33.8718714\MP4SDQ=-33.8741093\CCSD=-33.8751004\CCSD(T)=-33.877
 Normal termination of Gaussian 16 at Sun Dec 10 06:36:18 2023.
