 Gaussian 16, Revision A.03,
 Gaussian 16:  ES64L-G16RevA.03 25-Dec-2016

 ------------------
 #p CCSD(T)/CEP-31G
 ------------------

 -----------
 H2O_H2O_596
 -----------
 Symbolic Z-matrix:
 Charge =  0 Multiplicity = 1

                         Standard orientation:
 ---------------------------------------------------------------------
 Center     Atomic      Atomic             Coordinates (Angstroms)
 Number     Number       Type             X           Y           Z
 ---------------------------------------------------------------------
      1          8           0        0.056216   -1.059732    0.000000
      2          1           0       -0.745839   -1.627371    0.000000
      3          1           0        0.853288   -1.634346    0.000000
      4          8           0        0.056216    1.151184    0.000000
      5          1           0       -0.344043    2.048569    0.000000
      6          1           0       -0.662859    0.481528    0.000000
 ---------------------------------------------------------------------

 SCF Done:  E(RHF) =  -33.6283370733     A.U. after   11 cycles
 E2 =    -0.2311742546D+00 EUMP2 =    -0.33859511327932D+02
 CCSD(T)
 CCSD(T)= -0.33876286017D+02

 The electronic state is 1-A'.
 Alpha  occ. eigenvalues --   -1.36933  -1.30537  -0.72756  -0.68959  -0.53476
 Alpha  occ. eigenvalues --   -0.51407  -0.50215  -0.44990
 Alpha virt. eigenvalues --    0.19124   0.27585   0.29587   0.35980   0.77285
 Alpha virt. eigenvalues --    0.84470   0.89600   0.93634   0.98359   1.13805
 Alpha virt. eigenvalues --    1.18940   1.20863   1.26811   1.31329   2.73695

 Mulliken charges:
               1
     1  O   -0.782235
     2  H    0.363975
     3  H    0.413877
     4  O   -0.698136
     5  H    0.322014
     6  H    0.380505
 Sum of Mulliken charges =   0.00000

 Dipole moment (field-independent basis, Debye):
    X=             -2.3007    Y=             -2.4288    Z=              0.0000  Tot=              3.3455
 Quadrupole moment (field-independent basis, Debye-Ang):
   XX=            -10.0507   YY=             -4.6627   ZZ=            -15.0007
   XY=             -2.8403   XZ=              0.0000   YZ=              0.0000

 \MP4DQ=-33.8701649\MP4SDQ=-33.8724319\CCSD=-33.8733607\CCSD(T)=-33.876
 Normal termination of Gaussian 16 at Sun Dec 10 06:35:53 2023.
