 Gaussian 16, Revision A.03,
 Gaussian 16:  ES64L-G16RevA.03 25-Dec-2016

 ------------------
 #p CCSD(T)/CEP-31G
 ------------------

 ------------
 H2O_H2O_4789
 ------------
 Symbolic Z-matrix:
 Charge =  0 Multiplicity = 1

                         Standard orientation:
 ---------------------------------------------------------------------
 Center     Atomic      Atomic             Coordinates (Angstroms)
 Number     Number       Type             X           Y           Z
 ---------------------------------------------------------------------
      1          8           0        0.045337   -3.318904    0.000000
      2          1           0       -0.754900   -3.889103    0.000000
      3          1           0        0.844241   -3.890969    0.000000
      4          8           0        0.045337    3.363488    0.000000
      5          1           0        0.080122    4.345474    0.000000
      6          1           0       -0.894855    3.077927    0.000000
 ---------------------------------------------------------------------

 SCF Done:  E(RHF) =  -33.6513027477     A.U. after   11 cycles
 E2 =    -0.2284081545D+00 EUMP2 =    -0.33879710902245D+02
 CCSD(T)
 CCSD(T)= -0.33896725224D+02

 The electronic state is 1-A'.
 Alpha  occ. eigenvalues --   -1.35330  -1.35032  -0.70960  -0.70656  -0.55038
 Alpha  occ. eigenvalues --   -0.54738  -0.49894  -0.49597
 Alpha virt. eigenvalues --    0.20415   0.20718   0.30651   0.30947   0.80659
 Alpha virt. eigenvalues --    0.80953   0.83730   0.84025   0.86824   0.87157
 Alpha virt. eigenvalues --    1.17551   1.17847   1.22013   1.22311   2.57580

 Mulliken charges:
               1
     1  O   -0.739392
     2  H    0.368704
     3  H    0.370688
     4  O   -0.739147
     5  H    0.367861
     6  H    0.371286
 Sum of Mulliken charges =   0.00000

 Dipole moment (field-independent basis, Debye):
    X=             -2.0936    Y=             -1.0412    Z=              0.0000  Tot=              2.3382
 Quadrupole moment (field-independent basis, Debye-Ang):
   XX=             -9.3718   YY=             17.6893   ZZ=            -14.9878
   XY=             -6.2339   XZ=              0.0000   YZ=              0.0000

 \MP4DQ=-33.8910773\MP4SDQ=-33.8931063\CCSD=-33.8941626\CCSD(T)=-33.896
 Normal termination of Gaussian 16 at Sun Dec 10 07:07:55 2023.
