 Gaussian 16, Revision A.03,
 Gaussian 16:  ES64L-G16RevA.03 25-Dec-2016

 ------------------
 #p CCSD(T)/CEP-31G
 ------------------

 ------------
 H2O_H2O_2315
 ------------
 Symbolic Z-matrix:
 Charge =  0 Multiplicity = 1

                         Standard orientation:
 ---------------------------------------------------------------------
 Center     Atomic      Atomic             Coordinates (Angstroms)
 Number     Number       Type             X           Y           Z
 ---------------------------------------------------------------------
      1          8           0        0.047539   -1.999355    0.000000
      2          1           0       -0.753184   -2.568871    0.000000
      3          1           0        0.845955   -2.572100    0.000000
      4          8           0        0.047539    2.049928    0.000000
      5          1           0        0.018861    3.032111    0.000000
      6          1           0       -0.872258    1.704270    0.000000
 ---------------------------------------------------------------------

 SCF Done:  E(RHF) =  -33.6499933265     A.U. after   11 cycles
 E2 =    -0.2286057643D+00 EUMP2 =    -0.33878599090742D+02
 CCSD(T)
 CCSD(T)= -0.33895655432D+02

 The electronic state is 1-A'.
 Alpha  occ. eigenvalues --   -1.35015  -1.34048  -0.70645  -0.69633  -0.54654
 Alpha  occ. eigenvalues --   -0.53657  -0.49560  -0.48598
 Alpha virt. eigenvalues --    0.20345   0.21913   0.30856   0.31857   0.79785
 Alpha virt. eigenvalues --    0.80813   0.82115   0.85868   0.87305   0.93006
 Alpha virt. eigenvalues --    1.17808   1.18899   1.22221   1.23392   2.57719

 Mulliken charges:
               1
     1  O   -0.734957
     2  H    0.363421
     3  H    0.371710
     4  O   -0.732357
     5  H    0.359429
     6  H    0.372754
 Sum of Mulliken charges =   0.00000

 Dipole moment (field-independent basis, Debye):
    X=             -2.1712    Y=             -1.2181    Z=              0.0000  Tot=              2.4896
 Quadrupole moment (field-independent basis, Debye-Ang):
   XX=             -9.5080   YY=              5.7999   ZZ=            -14.9875
   XY=             -3.7920   XZ=              0.0000   YZ=              0.0000

 7\MP4DQ=-33.889987\MP4SDQ=-33.8920276\CCSD=-33.8930795\CCSD(T)=-33.895
 Normal termination of Gaussian 16 at Sun Dec 10 07:09:04 2023.
