 Gaussian 16, Revision A.03,
 Gaussian 16:  ES64L-G16RevA.03 25-Dec-2016

 ------------------
 #p CCSD(T)/CEP-31G
 ------------------

 ------------
 H2O_H2O_1898
 ------------
 Symbolic Z-matrix:
 Charge =  0 Multiplicity = 1

                         Standard orientation:
 ---------------------------------------------------------------------
 Center     Atomic      Atomic             Coordinates (Angstroms)
 Number     Number       Type             X           Y           Z
 ---------------------------------------------------------------------
      1          8           0        0.057137   -1.742982    0.000000
      2          1           0       -0.743991   -2.311928    0.000000
      3          1           0        0.855145   -2.316295    0.000000
      4          8           0        0.057137    1.849426    0.000000
      5          1           0       -0.458195    2.686049    0.000000
      6          1           0       -0.567142    1.090622    0.000000
 ---------------------------------------------------------------------

 SCF Done:  E(RHF) =  -33.6537778663     A.U. after   11 cycles
 E2 =    -0.2286884781D+00 EUMP2 =    -0.33882466344386D+02
 CCSD(T)
 CCSD(T)= -0.33899446583D+02

 The electronic state is 1-A'.
 Alpha  occ. eigenvalues --   -1.36093  -1.33378  -0.71737  -0.68938  -0.55949
 Alpha  occ. eigenvalues --   -0.53141  -0.50691  -0.47976
 Alpha virt. eigenvalues --    0.19102   0.23393   0.29933   0.33259   0.78434
 Alpha virt. eigenvalues --    0.79411   0.83003   0.85833   0.86830   0.97520
 Alpha virt. eigenvalues --    1.16824   1.20108   1.21355   1.27495   2.54482

 Mulliken charges:
               1
     1  O   -0.747577
     2  H    0.367821
     3  H    0.381137
     4  O   -0.746063
     5  H    0.355726
     6  H    0.388956
 Sum of Mulliken charges =   0.00000

 Dipole moment (field-independent basis, Debye):
    X=             -2.5954    Y=             -2.6258    Z=              0.0000  Tot=              3.6920
 Quadrupole moment (field-independent basis, Debye-Ang):
   XX=            -10.1364   YY=             -0.3497   ZZ=            -14.9942
   XY=             -4.9832   XZ=              0.0000   YZ=              0.0000

 1\MP4DQ=-33.8937546\MP4SDQ=-33.8958166\CCSD=-33.8968518\CCSD(T)=-33.89
 Normal termination of Gaussian 16 at Sun Dec 10 07:00:13 2023.
