 Gaussian 16, Revision A.03,
 Gaussian 16:  ES64L-G16RevA.03 25-Dec-2016

 ------------------
 #p CCSD(T)/CEP-31G
 ------------------

 ------------
 H2O_H2O_4362
 ------------
 Symbolic Z-matrix:
 Charge =  0 Multiplicity = 1

                         Standard orientation:
 ---------------------------------------------------------------------
 Center     Atomic      Atomic             Coordinates (Angstroms)
 Number     Number       Type             X           Y           Z
 ---------------------------------------------------------------------
      1          8           0        0.040404   -3.098966    0.000000
      2          1           0       -0.759804   -3.669205    0.000000
      3          1           0        0.839337   -3.670990    0.000000
      4          8           0        0.040404    3.132332    0.000000
      5          1           0        0.203016    4.101385    0.000000
      6          1           0       -0.929010    2.971883    0.000000
 ---------------------------------------------------------------------

 SCF Done:  E(RHF) =  -33.6510224664     A.U. after   11 cycles
 E2 =    -0.2284253867D+00 EUMP2 =    -0.33879447853098D+02
 CCSD(T)
 CCSD(T)= -0.33896470232D+02

 The electronic state is 1-A'.
 Alpha  occ. eigenvalues --   -1.35210  -1.34952  -0.70839  -0.70575  -0.54902
 Alpha  occ. eigenvalues --   -0.54643  -0.49770  -0.49512
 Alpha virt. eigenvalues --    0.20519   0.20782   0.30754   0.31008   0.80784
 Alpha virt. eigenvalues --    0.81038   0.83882   0.84136   0.86965   0.87262
 Alpha virt. eigenvalues --    1.17659   1.17915   1.22124   1.22381   2.57695

 Mulliken charges:
               1
     1  O   -0.738404
     2  H    0.368117
     3  H    0.370287
     4  O   -0.738106
     5  H    0.367303
     6  H    0.370803
 Sum of Mulliken charges =  -0.00000

 Dipole moment (field-independent basis, Debye):
    X=             -1.8646    Y=             -0.7807    Z=              0.0000  Tot=              2.0215
 Quadrupole moment (field-independent basis, Debye-Ang):
   XX=             -9.0973   YY=             17.1424   ZZ=            -14.9874
   XY=             -4.9921   XZ=              0.0000   YZ=              0.0000

 P4DQ=-33.8908201\MP4SDQ=-33.8928499\CCSD=-33.8939066\CCSD(T)=-33.89647
 Normal termination of Gaussian 16 at Sun Dec 10 06:58:33 2023.
