 Gaussian 16, Revision A.03,
 Gaussian 16:  ES64L-G16RevA.03 25-Dec-2016

 ------------------
 #p CCSD(T)/CEP-31G
 ------------------

 -----------
 H2O_H2O_696
 -----------
 Symbolic Z-matrix:
 Charge =  0 Multiplicity = 1

                         Standard orientation:
 ---------------------------------------------------------------------
 Center     Atomic      Atomic             Coordinates (Angstroms)
 Number     Number       Type             X           Y           Z
 ---------------------------------------------------------------------
      1          8           0        0.056207   -1.112904    0.000000
      2          1           0       -0.745734   -1.680703    0.000000
      3          1           0        0.853394   -1.687358    0.000000
      4          8           0        0.056207    1.204378    0.000000
      5          1           0       -0.344231    2.101683    0.000000
      6          1           0       -0.662734    0.534580    0.000000
 ---------------------------------------------------------------------

 SCF Done:  E(RHF) =  -33.6370803932     A.U. after   11 cycles
 E2 =    -0.2307457712D+00 EUMP2 =    -0.33867826164396D+02
 CCSD(T)
 CCSD(T)= -0.33884701168D+02

 The electronic state is 1-A'.
 Alpha  occ. eigenvalues --   -1.36598  -1.30898  -0.72339  -0.68517  -0.54204
 Alpha  occ. eigenvalues --   -0.51140  -0.50630  -0.45383
 Alpha virt. eigenvalues --    0.19147   0.27132   0.29737   0.35772   0.77131
 Alpha virt. eigenvalues --    0.84010   0.89178   0.91943   0.97780   1.13508
 Alpha virt. eigenvalues --    1.19223   1.20195   1.25721   1.31064   2.74287

 Mulliken charges:
               1
     1  O   -0.775473
     2  H    0.363518
     3  H    0.408660
     4  O   -0.706391
     5  H    0.326670
     6  H    0.383017
 Sum of Mulliken charges =   0.00000

 Dipole moment (field-independent basis, Debye):
    X=             -2.3422    Y=             -2.4096    Z=              0.0000  Tot=              3.3604
 Quadrupole moment (field-independent basis, Debye-Ang):
   XX=            -10.0510   YY=             -4.1077   ZZ=            -15.0028
   XY=             -2.9906   XZ=              0.0000   YZ=              0.0000

 \MP4DQ=-33.8786504\MP4SDQ=-33.8808803\CCSD=-33.88184\CCSD(T)=-33.88470
 Normal termination of Gaussian 16 at Sun Dec 10 06:37:45 2023.
