 Gaussian 16, Revision A.03,
 Gaussian 16:  ES64L-G16RevA.03 25-Dec-2016

 ------------------
 #p CCSD(T)/CEP-31G
 ------------------

 ------------
 H2O_H2O_4326
 ------------
 Symbolic Z-matrix:
 Charge =  0 Multiplicity = 1

                         Standard orientation:
 ---------------------------------------------------------------------
 Center     Atomic      Atomic             Coordinates (Angstroms)
 Number     Number       Type             X           Y           Z
 ---------------------------------------------------------------------
      1          8           0        0.003735   -3.103659    0.000000
      2          1           0       -0.795895   -3.674708    0.000000
      3          1           0        0.803247   -3.674873    0.000000
      4          8           0        0.003735    3.103902    0.000000
      5          1           0        0.764306    3.726028    0.000000
      6          1           0       -0.831424    3.621604    0.000000
 ---------------------------------------------------------------------

 SCF Done:  E(RHF) =  -33.6505323353     A.U. after   10 cycles
 E2 =    -0.2284450459D+00 EUMP2 =    -0.33878977381180D+02
 CCSD(T)
 CCSD(T)= -0.33896013862D+02

 The electronic state is 1-A'.
 Alpha  occ. eigenvalues --   -1.34970  -1.34968  -0.70597  -0.70595  -0.54635
 Alpha  occ. eigenvalues --   -0.54633  -0.49522  -0.49521
 Alpha virt. eigenvalues --    0.20731   0.20734   0.30963   0.30965   0.81031
 Alpha virt. eigenvalues --    0.81033   0.84167   0.84193   0.87242   0.87245
 Alpha virt. eigenvalues --    1.17878   1.17880   1.22346   1.22348   2.57925

 Mulliken charges:
               1
     1  O   -0.736650
     2  H    0.368222
     3  H    0.368428
     4  O   -0.736647
     5  H    0.368181
     6  H    0.368466
 Sum of Mulliken charges =   0.00000

 Dipole moment (field-independent basis, Debye):
    X=             -0.1724    Y=             -0.0057    Z=              0.0000  Tot=              0.1725
 Quadrupole moment (field-independent basis, Debye-Ang):
   XX=             -8.0485   YY=             20.8957   ZZ=            -14.9866
   XY=             -0.4196   XZ=              0.0000   YZ=              0.0000

 \MP4DQ=-33.8903599\MP4SDQ=-33.8923909\CCSD=-33.8934487\CCSD(T)=-33.896
 Normal termination of Gaussian 16 at Sun Dec 10 06:57:55 2023.
