 Gaussian 16, Revision A.03,
 Gaussian 16:  ES64L-G16RevA.03 25-Dec-2016

 ------------------
 #p CCSD(T)/CEP-31G
 ------------------

 -----------
 H2O_H2O_732
 -----------
 Symbolic Z-matrix:
 Charge =  0 Multiplicity = 1

                         Standard orientation:
 ---------------------------------------------------------------------
 Center     Atomic      Atomic             Coordinates (Angstroms)
 Number     Number       Type             X           Y           Z
 ---------------------------------------------------------------------
      1          8           0        0.025271   -1.182831    0.000000
      2          1           0       -0.775343   -1.752500    0.000000
      3          1           0        0.823796   -1.755425    0.000000
      4          8           0        0.025271    1.194519    0.000000
      5          1           0        0.491362    2.059542    0.000000
      6          1           0       -0.944156    1.354884    0.000000
 ---------------------------------------------------------------------

 SCF Done:  E(RHF) =  -33.6277619505     A.U. after   11 cycles
 E2 =    -0.2303816490D+00 EUMP2 =    -0.33858143599489D+02
 CCSD(T)
 CCSD(T)= -0.33875554174D+02

 The electronic state is 1-A'.
 Alpha  occ. eigenvalues --   -1.32990  -1.31813  -0.68502  -0.67548  -0.55369
 Alpha  occ. eigenvalues --   -0.47755  -0.47076  -0.45786
 Alpha virt. eigenvalues --    0.21197   0.24740   0.32531   0.32960   0.79387
 Alpha virt. eigenvalues --    0.80092   0.89289   0.92056   1.01738   1.12738
 Alpha virt. eigenvalues --    1.19618   1.22776   1.24349   1.26926   2.53934

 Mulliken charges:
               1
     1  O   -0.710554
     2  H    0.344374
     3  H    0.362207
     4  O   -0.693918
     5  H    0.348223
     6  H    0.349668
 Sum of Mulliken charges =   0.00000

 Dipole moment (field-independent basis, Debye):
    X=             -1.0604    Y=             -0.2801    Z=              0.0000  Tot=              1.0967
 Quadrupole moment (field-independent basis, Debye-Ang):
   XX=             -8.6379   YY=             -0.9918   ZZ=            -14.9988
   XY=             -0.8111   XZ=              0.0000   YZ=              0.0000

 4DQ=-33.8695811\MP4SDQ=-33.8717209\CCSD=-33.8728029\CCSD(T)=-33.875554
 Normal termination of Gaussian 16 at Sun Dec 10 06:38:25 2023.
