 Gaussian 16, Revision A.03,
 Gaussian 16:  ES64L-G16RevA.03 25-Dec-2016

 ------------------
 #p CCSD(T)/CEP-31G
 ------------------

 -----------
 H2O_H2O_782
 -----------
 Symbolic Z-matrix:
 Charge =  0 Multiplicity = 1

                         Standard orientation:
 ---------------------------------------------------------------------
 Center     Atomic      Atomic             Coordinates (Angstroms)
 Number     Number       Type             X           Y           Z
 ---------------------------------------------------------------------
      1          8           0        0.025271   -1.209422    0.000000
      2          1           0       -0.775321   -1.779123    0.000000
      3          1           0        0.823819   -1.781984    0.000000
      4          8           0        0.025271    1.221112    0.000000
      5          1           0        0.491328    2.086153    0.000000
      6          1           0       -0.944163    1.381438    0.000000
 ---------------------------------------------------------------------

 SCF Done:  E(RHF) =  -33.6300201245     A.U. after   11 cycles
 E2 =    -0.2302235165D+00 EUMP2 =    -0.33860243640999D+02
 CCSD(T)
 CCSD(T)= -0.33877663742D+02

 The electronic state is 1-A'.
 Alpha  occ. eigenvalues --   -1.33003  -1.31960  -0.68534  -0.67668  -0.55107
 Alpha  occ. eigenvalues --   -0.47742  -0.47595  -0.45972
 Alpha virt. eigenvalues --    0.21187   0.24563   0.32500   0.32909   0.79315
 Alpha virt. eigenvalues --    0.80182   0.89053   0.90425   1.01615   1.12705
 Alpha virt. eigenvalues --    1.19559   1.22663   1.24273   1.26565   2.54668

 Mulliken charges:
               1
     1  O   -0.710099
     2  H    0.344883
     3  H    0.361771
     4  O   -0.695119
     5  H    0.347982
     6  H    0.350583
 Sum of Mulliken charges =   0.00000

 Dipole moment (field-independent basis, Debye):
    X=             -1.0688    Y=             -0.2816    Z=              0.0000  Tot=              1.1053
 Quadrupole moment (field-independent basis, Debye-Ang):
   XX=             -8.6301   YY=             -0.6277   ZZ=            -14.9967
   XY=             -0.8397   XZ=              0.0000   YZ=              0.0000

 MP4DQ=-33.8717118\MP4SDQ=-33.8738436\CCSD=-33.8749293\CCSD(T)=-33.8776
 Normal termination of Gaussian 16 at Sun Dec 10 06:39:22 2023.
