 Gaussian 16, Revision A.03,
 Gaussian 16:  ES64L-G16RevA.03 25-Dec-2016

 ------------------
 #p CCSD(T)/CEP-31G
 ------------------

 -----------
 H2O_H2O_500
 -----------
 Symbolic Z-matrix:
 Charge =  0 Multiplicity = 1

                         Standard orientation:
 ---------------------------------------------------------------------
 Center     Atomic      Atomic             Coordinates (Angstroms)
 Number     Number       Type             X           Y           Z
 ---------------------------------------------------------------------
      1          8           0        0.000000   -0.000000    1.069517
      2          1           0        0.000000    0.799571    1.640649
      3          1           0       -0.000000   -0.799571    1.640649
      4          8           0        0.000000   -0.000000   -1.069517
      5          1           0       -0.000000   -0.799571   -1.640649
      6          1           0        0.000000    0.799571   -1.640649
 ---------------------------------------------------------------------

 SCF Done:  E(RHF) =  -33.6077689944     A.U. after   10 cycles
 E2 =    -0.2314898683D+00 EUMP2 =    -0.33839258862752D+02
 CCSD(T)
 CCSD(T)= -0.33856523648D+02

 The electronic state is 1-AG.
 Alpha  occ. eigenvalues --   -1.32827  -1.30882  -0.68097  -0.66715  -0.57377
 Alpha  occ. eigenvalues --   -0.47722  -0.44588  -0.43210
 Alpha virt. eigenvalues --    0.21604   0.25459   0.32919   0.33330   0.78108
 Alpha virt. eigenvalues --    0.80350   0.90158   0.97990   1.01209   1.18730
 Alpha virt. eigenvalues --    1.20107   1.22770   1.23299   1.27027   2.49915

 Mulliken charges:
               1
     1  O   -0.697428
     2  H    0.348714
     3  H    0.348714
     4  O   -0.697428
     5  H    0.348714
     6  H    0.348714
 Sum of Mulliken charges =  -0.00000

 Dipole moment (field-independent basis, Debye):
    X=             -0.0000    Y=              0.0000    Z=             -0.0000  Tot=              0.0000
 Quadrupole moment (field-independent basis, Debye-Ang):
   XX=            -15.0183   YY=             -8.3095   ZZ=             -2.6558
   XY=              0.0000   XZ=             -0.0000   YZ=             -0.0000

 3.8504175\MP4SDQ=-33.8526079\CCSD=-33.8536472\CCSD(T)=-33.8565236\RMSD
 Normal termination of Gaussian 16 at Sun Dec 10 06:34:06 2023.
