 Gaussian 16, Revision A.03,
 Gaussian 16:  ES64L-G16RevA.03 25-Dec-2016

 ------------------
 #p CCSD(T)/CEP-31G
 ------------------

 -----------
 H2O_H2O_201
 -----------
 Symbolic Z-matrix:
 Charge =  0 Multiplicity = 1

                         Standard orientation:
 ---------------------------------------------------------------------
 Center     Atomic      Atomic             Coordinates (Angstroms)
 Number     Number       Type             X           Y           Z
 ---------------------------------------------------------------------
      1          8           0        0.003735   -0.909835    0.000000
      2          1           0       -0.796037   -1.480684    0.000000
      3          1           0        0.803105   -1.481249    0.000000
      4          8           0        0.003735    0.910076    0.000000
      5          1           0        0.764461    1.532012    0.000000
      6          1           0       -0.831295    1.427987    0.000000
 ---------------------------------------------------------------------

 SCF Done:  E(RHF) =  -33.5487524778     A.U. after   11 cycles
 E2 =    -0.2349578176D+00 EUMP2 =    -0.33783710295322D+02
 CCSD(T)
 CCSD(T)= -0.33800513293D+02

 The electronic state is 1-A'.
 Alpha  occ. eigenvalues --   -1.34453  -1.29549  -0.68972  -0.65730  -0.62368
 Alpha  occ. eigenvalues --   -0.49415  -0.43035  -0.36418
 Alpha virt. eigenvalues --    0.21453   0.27253   0.32425   0.33653   0.78823
 Alpha virt. eigenvalues --    0.81820   0.89914   0.90400   1.07093   1.20425
 Alpha virt. eigenvalues --    1.20946   1.24260   1.28170   1.31623   2.48530

 Mulliken charges:
               1
     1  O   -0.696627
     2  H    0.345472
     3  H    0.350979
     4  O   -0.695868
     5  H    0.348931
     6  H    0.347112
 Sum of Mulliken charges =   0.00000

 Dipole moment (field-independent basis, Debye):
    X=             -0.1387    Y=             -0.0062    Z=              0.0000  Tot=              0.1388
 Quadrupole moment (field-independent basis, Debye-Ang):
   XX=             -8.4276   YY=             -5.7026   ZZ=            -15.0384
   XY=             -0.0773   XZ=              0.0000   YZ=              0.0000

 MP4DQ=-33.7939899\MP4SDQ=-33.796481\CCSD=-33.7973036\CCSD(T)=-33.80051
 Normal termination of Gaussian 16 at Sun Dec 10 06:28:30 2023.
