 Gaussian 16, Revision A.03,
 Gaussian 16:  ES64L-G16RevA.03 25-Dec-2016

 ------------------
 #p CCSD(T)/CEP-31G
 ------------------

 ------------
 H2O_H2O_1309
 ------------
 Symbolic Z-matrix:
 Charge =  0 Multiplicity = 1

                         Standard orientation:
 ---------------------------------------------------------------------
 Center     Atomic      Atomic             Coordinates (Angstroms)
 Number     Number       Type             X           Y           Z
 ---------------------------------------------------------------------
      1          8           0        0.031748   -1.484593    0.000000
      2          1           0       -0.768866   -2.054262    0.000000
      3          1           0        0.830274   -2.057185    0.000000
      4          8           0        0.031748    1.503727    0.000000
      5          1           0        0.380943    2.422187    0.000000
      6          1           0       -0.950317    1.536184    0.000000
 ---------------------------------------------------------------------

 SCF Done:  E(RHF) =  -33.6426871115     A.U. after   11 cycles
 E2 =    -0.2292825622D+00 EUMP2 =    -0.33871969673670D+02
 CCSD(T)
 CCSD(T)= -0.33889295715D+02

 The electronic state is 1-A'.
 Alpha  occ. eigenvalues --   -1.33726  -1.33059  -0.69345  -0.68650  -0.53935
 Alpha  occ. eigenvalues --   -0.51339  -0.48262  -0.47440
 Alpha virt. eigenvalues --    0.20822   0.23245   0.31881   0.32420   0.77629
 Alpha virt. eigenvalues --    0.79649   0.83111   0.85916   0.94340   1.12199
 Alpha virt. eigenvalues --    1.18828   1.20919   1.23564   1.24091   2.59473

 Mulliken charges:
               1
     1  O   -0.716378
     2  H    0.351745
     3  H    0.364142
     4  O   -0.709420
     5  H    0.349059
     6  H    0.360853
 Sum of Mulliken charges =  -0.00000

 Dipole moment (field-independent basis, Debye):
    X=             -1.4131    Y=             -0.4771    Z=              0.0000  Tot=              1.4915
 Quadrupole moment (field-independent basis, Debye-Ang):
   XX=             -8.7825   YY=              2.5199   ZZ=            -14.9857
   XY=             -1.5000   XZ=              0.0000   YZ=              0.0000

 MP4DQ=-33.8834897\MP4SDQ=-33.885588\CCSD=-33.8866583\CCSD(T)=-33.88929
 Normal termination of Gaussian 16 at Sun Dec 10 06:49:13 2023.
