 Gaussian 16, Revision A.03,
 Gaussian 16:  ES64L-G16RevA.03 25-Dec-2016

 ------------------
 #p CCSD(T)/CEP-31G
 ------------------

 ------------
 H2O_H2O_1450
 ------------
 Symbolic Z-matrix:
 Charge =  0 Multiplicity = 1

                         Standard orientation:
 ---------------------------------------------------------------------
 Center     Atomic      Atomic             Coordinates (Angstroms)
 Number     Number       Type             X           Y           Z
 ---------------------------------------------------------------------
      1          8           0        0.000000   -0.000000    1.574762
      2          1           0        0.000000    0.799571    2.145894
      3          1           0       -0.000000   -0.799571    2.145894
      4          8           0        0.000000   -0.000000   -1.574762
      5          1           0       -0.000000   -0.799571   -2.145894
      6          1           0        0.000000    0.799571   -2.145894
 ---------------------------------------------------------------------

 SCF Done:  E(RHF) =  -33.6419872250     A.U. after   10 cycles
 E2 =    -0.2291015666D+00 EUMP2 =    -0.33871088791565D+02
 CCSD(T)
 CCSD(T)= -0.33888408925D+02

 The electronic state is 1-AG.
 Alpha  occ. eigenvalues --   -1.33421  -1.33298  -0.69029  -0.68919  -0.53628
 Alpha  occ. eigenvalues --   -0.51436  -0.47988  -0.47608
 Alpha virt. eigenvalues --    0.21239   0.22723   0.31965   0.32367   0.77293
 Alpha virt. eigenvalues --    0.80284   0.83375   0.85273   0.95903   1.05393
 Alpha virt. eigenvalues --    1.19120   1.19369   1.23571   1.24125   2.59988

 Mulliken charges:
               1
     1  O   -0.710964
     2  H    0.355482
     3  H    0.355482
     4  O   -0.710964
     5  H    0.355482
     6  H    0.355482
 Sum of Mulliken charges =  -0.00000

 Dipole moment (field-independent basis, Debye):
    X=             -0.0000    Y=              0.0000    Z=             -0.0000  Tot=              0.0000
 Quadrupole moment (field-independent basis, Debye-Ang):
   XX=            -14.9837   YY=             -8.1645   ZZ=              4.2142
   XY=              0.0000   XZ=             -0.0000   YZ=             -0.0000

 33.8826266\MP4SDQ=-33.8847088\CCSD=-33.8857818\CCSD(T)=-33.8884089\RMS
 Normal termination of Gaussian 16 at Sun Dec 10 06:51:51 2023.
