 Gaussian 16, Revision A.03,
 Gaussian 16:  ES64L-G16RevA.03 25-Dec-2016

 ------------------
 #p CCSD(T)/CEP-31G
 ------------------

 ------------
 H2O_H2O_2627
 ------------
 Symbolic Z-matrix:
 Charge =  0 Multiplicity = 1

                         Standard orientation:
 ---------------------------------------------------------------------
 Center     Atomic      Atomic             Coordinates (Angstroms)
 Number     Number       Type             X           Y           Z
 ---------------------------------------------------------------------
      1          8           0        0.007455   -2.199141    0.000000
      2          1           0       -0.792283   -2.770040    0.000000
      3          1           0        0.806859   -2.770506    0.000000
      4          8           0        0.007455    2.200114    0.000000
      5          1           0        0.725833    2.870515    0.000000
      6          1           0       -0.859689    2.662247    0.000000
 ---------------------------------------------------------------------

 SCF Done:  E(RHF) =  -33.6482983599     A.U. after   11 cycles
 E2 =    -0.2285926758D+00 EUMP2 =    -0.33876891035688D+02
 CCSD(T)
 CCSD(T)= -0.33893992450D+02

 The electronic state is 1-A'.
 Alpha  occ. eigenvalues --   -1.34386  -1.34370  -0.70008  -0.69991  -0.54007
 Alpha  occ. eigenvalues --   -0.53805  -0.48912  -0.48884
 Alpha virt. eigenvalues --    0.21043   0.21363   0.31391   0.31470   0.81464
 Alpha virt. eigenvalues --    0.81836   0.82328   0.87378   0.87995   0.88529
 Alpha virt. eigenvalues --    1.18371   1.18386   1.22816   1.22924   2.58368

 Mulliken charges:
               1
     1  O   -0.729004
     2  H    0.363974
     3  H    0.365030
     4  O   -0.728943
     5  H    0.363816
     6  H    0.365125
 Sum of Mulliken charges =  -0.00000

 Dipole moment (field-independent basis, Debye):
    X=             -0.3418    Y=             -0.0232    Z=              0.0000  Tot=              0.3426
 Quadrupole moment (field-independent basis, Debye-Ang):
   XX=             -8.1105   YY=             11.1194   ZZ=            -14.9847
   XY=             -0.5366   XZ=              0.0000   YZ=              0.0000

 DQ=-33.8883181\MP4SDQ=-33.890357\CCSD=-33.891417\CCSD(T)=-33.8939924\R
 Normal termination of Gaussian 16 at Sun Dec 10 06:27:05 2023.
