 Gaussian 16, Revision A.03,
 Gaussian 16:  ES64L-G16RevA.03 25-Dec-2016

 ------------------
 #p CCSD(T)/CEP-31G
 ------------------

 ------------
 H2O_H2O_2318
 ------------
 Symbolic Z-matrix:
 Charge =  0 Multiplicity = 1

                         Standard orientation:
 ---------------------------------------------------------------------
 Center     Atomic      Atomic             Coordinates (Angstroms)
 Number     Number       Type             X           Y           Z
 ---------------------------------------------------------------------
      1          8           0        0.052845   -1.988654    0.000000
      2          1           0       -0.748006   -2.557990    0.000000
      3          1           0        0.851132   -2.561579    0.000000
      4          8           0        0.052845    2.058931    0.000000
      5          1           0       -0.166680    3.016696    0.000000
      6          1           0       -0.781961    1.540658    0.000000
 ---------------------------------------------------------------------

 SCF Done:  E(RHF) =  -33.6510852878     A.U. after   11 cycles
 E2 =    -0.2285696595D+00 EUMP2 =    -0.33879654947352D+02
 CCSD(T)
 CCSD(T)= -0.33896680617D+02

 The electronic state is 1-A'.
 Alpha  occ. eigenvalues --   -1.35345  -1.33988  -0.70979  -0.69565  -0.55040
 Alpha  occ. eigenvalues --   -0.53658  -0.49905  -0.48553
 Alpha virt. eigenvalues --    0.20007   0.22099   0.30565   0.32017   0.79921
 Alpha virt. eigenvalues --    0.80514   0.82109   0.85745   0.86801   0.92647
 Alpha virt. eigenvalues --    1.17520   1.19110   1.21901   1.23772   2.57297

 Mulliken charges:
               1
     1  O   -0.738636
     2  H    0.364912
     3  H    0.374020
     4  O   -0.736135
     5  H    0.359449
     6  H    0.376390
 Sum of Mulliken charges =  -0.00000

 Dipole moment (field-independent basis, Debye):
    X=             -2.4141    Y=             -1.6947    Z=              0.0000  Tot=              2.9496
 Quadrupole moment (field-independent basis, Debye-Ang):
   XX=             -9.8441   YY=              4.2222   ZZ=            -14.9891
   XY=             -4.5426   XZ=              0.0000   YZ=              0.0000

 2\MP4DQ=-33.8910182\MP4SDQ=-33.8930579\CCSD=-33.8941065\CCSD(T)=-33.89
 Normal termination of Gaussian 16 at Sun Dec 10 07:09:07 2023.
