 Gaussian 16, Revision A.03,
 Gaussian 16:  ES64L-G16RevA.03 25-Dec-2016

 ------------------
 #p CCSD(T)/CEP-31G
 ------------------

 -----------
 H2O_H2O_863
 -----------
 Symbolic Z-matrix:
 Charge =  0 Multiplicity = 1

                         Standard orientation:
 ---------------------------------------------------------------------
 Center     Atomic      Atomic             Coordinates (Angstroms)
 Number     Number       Type             X           Y           Z
 ---------------------------------------------------------------------
      1          8           0        0.042997   -1.234661    0.000000
      2          1           0       -0.758254   -1.803434    0.000000
      3          1           0        0.840881   -1.808148    0.000000
      4          8           0        0.042997    1.273320    0.000000
      5          1           0        0.143673    2.250750    0.000000
      6          1           0       -0.914255    1.051564    0.000000
 ---------------------------------------------------------------------

 SCF Done:  E(RHF) =  -33.6377669210     A.U. after   11 cycles
 E2 =    -0.2301221332D+00 EUMP2 =    -0.33867889054193D+02
 CCSD(T)
 CCSD(T)= -0.33885263942D+02

 The electronic state is 1-A'.
 Alpha  occ. eigenvalues --   -1.33971  -1.32110  -0.69592  -0.67859  -0.54758
 Alpha  occ. eigenvalues --   -0.49597  -0.48599  -0.46398
 Alpha virt. eigenvalues --    0.20409   0.24914   0.31701   0.32995   0.78618
 Alpha virt. eigenvalues --    0.83101   0.87578   0.88418   0.96096   1.15799
 Alpha virt. eigenvalues --    1.18867   1.22346   1.23467   1.29496   2.57854

 Mulliken charges:
               1
     1  O   -0.729806
     2  H    0.349276
     3  H    0.374317
     4  O   -0.696161
     5  H    0.342365
     6  H    0.360009
 Sum of Mulliken charges =   0.00000

 Dipole moment (field-independent basis, Debye):
    X=             -1.8413    Y=             -0.9573    Z=              0.0000  Tot=              2.0753
 Quadrupole moment (field-independent basis, Debye-Ang):
   XX=             -9.3133   YY=             -0.9066   ZZ=            -14.9925
   XY=             -1.8339   XZ=              0.0000   YZ=              0.0000

 P4DQ=-33.8793324\MP4SDQ=-33.8814832\CCSD=-33.882551\CCSD(T)=-33.885263
 Normal termination of Gaussian 16 at Sun Dec 10 06:40:53 2023.
