 Gaussian 16, Revision A.03,
 Gaussian 16:  ES64L-G16RevA.03 25-Dec-2016

 ------------------
 #p CCSD(T)/CEP-31G
 ------------------

 ----------
 H2O_H2O_12
 ----------
 Symbolic Z-matrix:
 Charge =  0 Multiplicity = 1

                         Standard orientation:
 ---------------------------------------------------------------------
 Center     Atomic      Atomic             Coordinates (Angstroms)
 Number     Number       Type             X           Y           Z
 ---------------------------------------------------------------------
      1          8           0        0.040457   -0.785614    0.000000
      2          1           0       -0.761581   -1.353275    0.000000
      3          1           0        0.837546   -1.360206    0.000000
      4          8           0        0.040457    0.818719    0.000000
      5          1           0        0.206187    1.787243    0.000000
      6          1           0       -0.929468    0.661391    0.000000
 ---------------------------------------------------------------------

 SCF Done:  E(RHF) =  -33.4642985129     A.U. after   12 cycles
 E2 =    -0.2389949914D+00 EUMP2 =    -0.33703293504255D+02
 CCSD(T)
 CCSD(T)= -0.33719840588D+02

 The electronic state is 1-A'.
 Alpha  occ. eigenvalues --   -1.39977  -1.28615  -0.74643  -0.70244  -0.59677
 Alpha  occ. eigenvalues --   -0.53711  -0.42662  -0.33383
 Alpha virt. eigenvalues --    0.20049   0.28940   0.31150   0.33484   0.81400
 Alpha virt. eigenvalues --    0.84272   0.88593   0.92607   0.97384   1.20163
 Alpha virt. eigenvalues --    1.21489   1.24936   1.26079   1.41017   2.59280

 Mulliken charges:
               1
     1  O   -0.731553
     2  H    0.328335
     3  H    0.390396
     4  O   -0.643473
     5  H    0.309273
     6  H    0.347022
 Sum of Mulliken charges =  -0.00000

 Dipole moment (field-independent basis, Debye):
    X=             -1.4256    Y=             -0.9228    Z=              0.0000  Tot=              1.6982
 Quadrupole moment (field-independent basis, Debye-Ang):
   XX=             -9.3379   YY=             -8.4756   ZZ=            -14.9323
   XY=             -1.0351   XZ=              0.0000   YZ=              0.0000

 DQ=-33.7128175\MP4SDQ=-33.7157083\CCSD=-33.7161648\CCSD(T)=-33.7198406
 Normal termination of Gaussian 16 at Sun Dec 10 06:24:57 2023.
