 Gaussian 16, Revision A.03,
 Gaussian 16:  ES64L-G16RevA.03 25-Dec-2016

 ------------------
 #p CCSD(T)/CEP-31G
 ------------------

 -----------
 H2O_H2O_833
 -----------
 Symbolic Z-matrix:
 Charge =  0 Multiplicity = 1

                         Standard orientation:
 ---------------------------------------------------------------------
 Center     Atomic      Atomic             Coordinates (Angstroms)
 Number     Number       Type             X           Y           Z
 ---------------------------------------------------------------------
      1          8           0        0.028572   -1.234112    0.000000
      2          1           0       -0.772129   -1.803660    0.000000
      3          1           0        0.827010   -1.806826    0.000000
      4          8           0        0.028572    1.249303    0.000000
      5          1           0        0.437226    2.142896    0.000000
      6          1           0       -0.949254    1.346069    0.000000
 ---------------------------------------------------------------------

 SCF Done:  E(RHF) =  -33.6326539750     A.U. after   11 cycles
 E2 =    -0.2300928630D+00 EUMP2 =    -0.33862746837981D+02
 CCSD(T)
 CCSD(T)= -0.33880170261D+02

 The electronic state is 1-A'.
 Alpha  occ. eigenvalues --   -1.33134  -1.32110  -0.68693  -0.67797  -0.54878
 Alpha  occ. eigenvalues --   -0.48252  -0.47839  -0.46190
 Alpha virt. eigenvalues --    0.21069   0.24462   0.32375   0.32850   0.79189
 Alpha virt. eigenvalues --    0.80719   0.88607   0.88760   1.00502   1.13372
 Alpha virt. eigenvalues --    1.19409   1.22609   1.24174   1.26746   2.55483

 Mulliken charges:
               1
     1  O   -0.712771
     2  H    0.345601
     3  H    0.363472
     4  O   -0.695726
     5  H    0.347195
     6  H    0.352229
 Sum of Mulliken charges =  -0.00000

 Dipole moment (field-independent basis, Debye):
    X=             -1.2180    Y=             -0.3688    Z=              0.0000  Tot=              1.2726
 Quadrupole moment (field-independent basis, Debye-Ang):
   XX=             -8.7254   YY=             -0.3587   ZZ=            -14.9943
   XY=             -1.0111   XZ=              0.0000   YZ=              0.0000

 P4DQ=-33.8742363\MP4SDQ=-33.8763662\CCSD=-33.8774521\CCSD(T)=-33.88017
 Normal termination of Gaussian 16 at Sun Dec 10 06:40:20 2023.
