 Gaussian 16, Revision A.03,
 Gaussian 16:  ES64L-G16RevA.03 25-Dec-2016

 ------------------
 #p CCSD(T)/CEP-31G
 ------------------

 ------------
 H2O_H2O_1859
 ------------
 Symbolic Z-matrix:
 Charge =  0 Multiplicity = 1

                         Standard orientation:
 ---------------------------------------------------------------------
 Center     Atomic      Atomic             Coordinates (Angstroms)
 Number     Number       Type             X           Y           Z
 ---------------------------------------------------------------------
      1          8           0        0.031745   -1.777093    0.000000
      2          1           0       -0.768698   -2.347002    0.000000
      3          1           0        0.830442   -2.349447    0.000000
      4          8           0        0.031745    1.796246    0.000000
      5          1           0        0.380665    2.714811    0.000000
      6          1           0       -0.950330    1.828409    0.000000
 ---------------------------------------------------------------------

 SCF Done:  E(RHF) =  -33.6467049103     A.U. after   11 cycles
 E2 =    -0.2288464697D+00 EUMP2 =    -0.33875551380034D+02
 CCSD(T)
 CCSD(T)= -0.33892718599D+02

 The electronic state is 1-A'.
 Alpha  occ. eigenvalues --   -1.34219  -1.33749  -0.69843  -0.69345  -0.53903
 Alpha  occ. eigenvalues --   -0.52923  -0.48731  -0.48242
 Alpha virt. eigenvalues --    0.20774   0.22247   0.31522   0.31951   0.76563
 Alpha virt. eigenvalues --    0.80792   0.83330   0.85564   0.89955   1.00482
 Alpha virt. eigenvalues --    1.18473   1.19085   1.23019   1.23497   2.58121

 Mulliken charges:
               1
     1  O   -0.724135
     2  H    0.358245
     3  H    0.366047
     4  O   -0.721607
     5  H    0.355826
     6  H    0.365624
 Sum of Mulliken charges =   0.00000

 Dipole moment (field-independent basis, Debye):
    X=             -1.4403    Y=             -0.4705    Z=              0.0000  Tot=              1.5152
 Quadrupole moment (field-independent basis, Debye-Ang):
   XX=             -8.7411   YY=              5.6333   ZZ=            -14.9847
   XY=             -1.8937   XZ=              0.0000   YZ=              0.0000

 \MP4DQ=-33.8870025\MP4SDQ=-33.8890655\CCSD=-33.8901211\CCSD(T)=-33.892
 Normal termination of Gaussian 16 at Sun Dec 10 06:59:25 2023.
