 Gaussian 16, Revision A.03,
 Gaussian 16:  ES64L-G16RevA.03 25-Dec-2016

 ------------------
 #p CCSD(T)/CEP-31G
 ------------------

 ------------
 H2O_H2O_3426
 ------------
 Symbolic Z-matrix:
 Charge =  0 Multiplicity = 1

                         Standard orientation:
 ---------------------------------------------------------------------
 Center     Atomic      Atomic             Coordinates (Angstroms)
 Number     Number       Type             X           Y           Z
 ---------------------------------------------------------------------
      1          8           0        0.003735   -2.625006    0.000000
      2          1           0       -0.795906   -3.196040    0.000000
      3          1           0        0.803236   -3.196236    0.000000
      4          8           0        0.003735    2.625250    0.000000
      5          1           0        0.764318    3.247361    0.000000
      6          1           0       -0.831414    3.142967    0.000000
 ---------------------------------------------------------------------

 SCF Done:  E(RHF) =  -33.6496982661     A.U. after   10 cycles
 E2 =    -0.2284951470D+00 EUMP2 =    -0.33878193413097D+02
 CCSD(T)
 CCSD(T)= -0.33895253915D+02

 The electronic state is 1-A'.
 Alpha  occ. eigenvalues --   -1.34724  -1.34721  -0.70349  -0.70346  -0.54350
 Alpha  occ. eigenvalues --   -0.54325  -0.49264  -0.49261
 Alpha virt. eigenvalues --    0.20911   0.20958   0.31158   0.31167   0.81276
 Alpha virt. eigenvalues --    0.81304   0.84203   0.84860   0.87513   0.87577
 Alpha virt. eigenvalues --    1.18090   1.18092   1.22562   1.22572   2.58149

 Mulliken charges:
               1
     1  O   -0.733768
     2  H    0.366720
     3  H    0.367047
     4  O   -0.733761
     5  H    0.366666
     6  H    0.367095
 Sum of Mulliken charges =   0.00000

 Dipole moment (field-independent basis, Debye):
    X=             -0.1720    Y=             -0.0057    Z=              0.0000  Tot=              0.1721
 Quadrupole moment (field-independent basis, Debye-Ang):
   XX=             -8.0616   YY=             15.7667   ZZ=            -14.9858
   XY=             -0.3387   XZ=              0.0000   YZ=              0.0000

 \MP4DQ=-33.8895932\MP4SDQ=-33.8916266\CCSD=-33.8926855\CCSD(T)=-33.895
 Normal termination of Gaussian 16 at Sun Dec 10 06:41:32 2023.
