 Gaussian 16, Revision A.03,
 Gaussian 16:  ES64L-G16RevA.03 25-Dec-2016

 ------------------
 #p CCSD(T)/CEP-31G
 ------------------

 -----------
 H2O_H2O_242
 -----------
 Symbolic Z-matrix:
 Charge =  0 Multiplicity = 1

                         Standard orientation:
 ---------------------------------------------------------------------
 Center     Atomic      Atomic             Coordinates (Angstroms)
 Number     Number       Type             X           Y           Z
 ---------------------------------------------------------------------
      1          8           0        0.051375   -0.888924    0.000000
      2          1           0       -0.750922   -1.456219    0.000000
      3          1           0        0.848201   -1.463879    0.000000
      4          8           0        0.051375    0.952138    0.000000
      5          1           0       -0.102569    1.922605    0.000000
      6          1           0       -0.816714    0.491782    0.000000
 ---------------------------------------------------------------------

 SCF Done:  E(RHF) =  -33.5625615102     A.U. after   11 cycles
 E2 =    -0.2339592128D+00 EUMP2 =    -0.33796520722947D+02
 CCSD(T)
 CCSD(T)= -0.33813484510D+02

 The electronic state is 1-A'.
 Alpha  occ. eigenvalues --   -1.37435  -1.29638  -0.73501  -0.69429  -0.54662
 Alpha  occ. eigenvalues --   -0.51593  -0.43856  -0.43501
 Alpha virt. eigenvalues --    0.19734   0.28566   0.30385   0.34074   0.79758
 Alpha virt. eigenvalues --    0.84400   0.89783   0.95841   0.98355   1.17479
 Alpha virt. eigenvalues --    1.20622   1.25607   1.28681   1.34235   2.61445

 Mulliken charges:
               1
     1  O   -0.782936
     2  H    0.351132
     3  H    0.407320
     4  O   -0.647542
     5  H    0.312956
     6  H    0.359069
 Sum of Mulliken charges =  -0.00000

 Dipole moment (field-independent basis, Debye):
    X=             -1.9330    Y=             -1.6194    Z=              0.0000  Tot=              2.5217
 Quadrupole moment (field-independent basis, Debye-Ang):
   XX=             -9.7928   YY=             -6.2183   ZZ=            -14.9705
   XY=             -1.7330   XZ=              0.0000   YZ=              0.0000

 P4DQ=-33.8070001\MP4SDQ=-33.8094859\CCSD=-33.8102998\CCSD(T)=-33.81348
 Normal termination of Gaussian 16 at Sun Dec 10 06:29:17 2023.
