 Gaussian 16, Revision A.03,
 Gaussian 16:  ES64L-G16RevA.03 25-Dec-2016

 ------------------
 #p CCSD(T)/CEP-31G
 ------------------

 ------------
 H2O_H2O_2095
 ------------
 Symbolic Z-matrix:
 Charge =  0 Multiplicity = 1

                         Standard orientation:
 ---------------------------------------------------------------------
 Center     Atomic      Atomic             Coordinates (Angstroms)
 Number     Number       Type             X           Y           Z
 ---------------------------------------------------------------------
      1          8           0        0.055273   -1.861328    0.000000
      2          1           0       -0.745721   -2.430463    0.000000
      3          1           0        0.853416   -2.434453    0.000000
      4          8           0        0.055273    1.945715    0.000000
      5          1           0       -0.287158    2.866718    0.000000
      6          1           0       -0.704898    1.323102    0.000000
 ---------------------------------------------------------------------

 SCF Done:  E(RHF) =  -33.6519273396     A.U. after   11 cycles
 E2 =    -0.2286247177D+00 EUMP2 =    -0.33880552057257D+02
 CCSD(T)
 CCSD(T)= -0.33897563698D+02

 The electronic state is 1-A'.
 Alpha  occ. eigenvalues --   -1.35601  -1.33725  -0.71239  -0.69287  -0.55342
 Alpha  occ. eigenvalues --   -0.53426  -0.50173  -0.48302
 Alpha virt. eigenvalues --    0.19602   0.22634   0.30325   0.32420   0.78569
 Alpha virt. eigenvalues --    0.80103   0.82501   0.85861   0.86570   0.95410
 Alpha virt. eigenvalues --    1.17280   1.19670   1.21672   1.24951   2.56349

 Mulliken charges:
               1
     1  O   -0.741306
     2  H    0.365440
     3  H    0.376565
     4  O   -0.738724
     5  H    0.357514
     6  H    0.380511
 Sum of Mulliken charges =  -0.00000

 Dipole moment (field-independent basis, Debye):
    X=             -2.5180    Y=             -2.0558    Z=              0.0000  Tot=              3.2506
 Quadrupole moment (field-independent basis, Debye-Ang):
   XX=            -10.0080   YY=              2.1826   ZZ=            -14.9908
   XY=             -4.7011   XZ=              0.0000   YZ=              0.0000

 3\MP4DQ=-33.8918912\MP4SDQ=-33.8939399\CCSD=-33.8949827\CCSD(T)=-33.89
 Normal termination of Gaussian 16 at Sun Dec 10 07:05:06 2023.
