 Gaussian 16, Revision A.03,
 Gaussian 16:  ES64L-G16RevA.03 25-Dec-2016

 ------------------
 #p CCSD(T)/CEP-31G
 ------------------

 ------------
 H2O_H2O_2928
 ------------
 Symbolic Z-matrix:
 Charge =  0 Multiplicity = 1

                         Standard orientation:
 ---------------------------------------------------------------------
 Center     Atomic      Atomic             Coordinates (Angstroms)
 Number     Number       Type             X           Y           Z
 ---------------------------------------------------------------------
      1          8           0        0.011143   -2.358033    0.000000
      2          1           0       -0.788660   -2.928840    0.000000
      3          1           0        0.810481   -2.929490    0.000000
      4          8           0        0.011143    2.360219    0.000000
      5          1           0        0.684219    3.076092    0.000000
      6          1           0       -0.884323    2.764752    0.000000
 ---------------------------------------------------------------------

 SCF Done:  E(RHF) =  -33.6489831265     A.U. after   11 cycles
 E2 =    -0.2285439017D+00 EUMP2 =    -0.33877527028246D+02
 CCSD(T)
 CCSD(T)= -0.33894608385D+02

 The electronic state is 1-A'.
 Alpha  occ. eigenvalues --   -1.34549  -1.34519  -0.70173  -0.70141  -0.54157
 Alpha  occ. eigenvalues --   -0.54055  -0.49080  -0.49049
 Alpha virt. eigenvalues --    0.20997   0.21171   0.31289   0.31333   0.81409
 Alpha virt. eigenvalues --    0.81563   0.83469   0.86126   0.87645   0.87978
 Alpha virt. eigenvalues --    1.18235   1.18264   1.22707   1.22760   2.58312

 Mulliken charges:
               1
     1  O   -0.731334
     2  H    0.365015
     3  H    0.366320
     4  O   -0.731235
     5  H    0.364784
     6  H    0.366450
 Sum of Mulliken charges =   0.00000

 Dipole moment (field-independent basis, Debye):
    X=             -0.5119    Y=             -0.0519    Z=              0.0000  Tot=              0.5145
 Quadrupole moment (field-independent basis, Debye-Ang):
   XX=             -8.1439   YY=             12.7488   ZZ=            -14.9852
   XY=             -0.8848   XZ=              0.0000   YZ=              0.0000

 MP4DQ=-33.8889412\MP4SDQ=-33.890977\CCSD=-33.8920366\CCSD(T)=-33.89460
 Normal termination of Gaussian 16 at Sun Dec 10 06:32:42 2023.
