 Gaussian 16, Revision A.03,
 Gaussian 16:  ES64L-G16RevA.03 25-Dec-2016

 ------------------
 #p CCSD(T)/CEP-31G
 ------------------

 -----------
 H2O_H2O_390
 -----------
 Symbolic Z-matrix:
 Charge =  0 Multiplicity = 1

                         Standard orientation:
 ---------------------------------------------------------------------
 Center     Atomic      Atomic             Coordinates (Angstroms)
 Number     Number       Type             X           Y           Z
 ---------------------------------------------------------------------
      1          8           0        0.047591   -0.975672    0.000000
      2          1           0       -0.754306   -1.543534    0.000000
      3          1           0        0.844823   -1.550065    0.000000
      4          8           0        0.047591    1.026049    0.000000
      5          1           0        0.020942    2.008290    0.000000
      6          1           0       -0.872918    0.682291    0.000000
 ---------------------------------------------------------------------

 SCF Done:  E(RHF) =  -33.6012212421     A.U. after   11 cycles
 E2 =    -0.2324122596D+00 EUMP2 =    -0.33833633501675D+02
 CCSD(T)
 CCSD(T)= -0.33850846365D+02

 The electronic state is 1-A'.
 Alpha  occ. eigenvalues --   -1.35270  -1.30526  -0.70999  -0.68112  -0.55774
 Alpha  occ. eigenvalues --   -0.49919  -0.45245  -0.44618
 Alpha virt. eigenvalues --    0.20109   0.27266   0.31193   0.33652   0.79478
 Alpha virt. eigenvalues --    0.84801   0.89913   0.96640   0.99305   1.15967
 Alpha virt. eigenvalues --    1.19288   1.24429   1.25808   1.32385   2.56392

 Mulliken charges:
               1
     1  O   -0.764201
     2  H    0.349196
     3  H    0.392578
     4  O   -0.663731
     5  H    0.330743
     6  H    0.355415
 Sum of Mulliken charges =  -0.00000

 Dipole moment (field-independent basis, Debye):
    X=             -1.8718    Y=             -1.2469    Z=              0.0000  Tot=              2.2491
 Quadrupole moment (field-independent basis, Debye-Ang):
   XX=             -9.5860   YY=             -4.5639   ZZ=            -14.9928
   XY=             -1.6490   XZ=              0.0000   YZ=              0.0000

 \MP4DQ=-33.8445932\MP4SDQ=-33.8469231\CCSD=-33.8478717\CCSD(T)=-33.850
 Normal termination of Gaussian 16 at Sun Dec 10 06:32:04 2023.
