 Gaussian 16, Revision A.03,
 Gaussian 16:  ES64L-G16RevA.03 25-Dec-2016

 ------------------
 #p CCSD(T)/CEP-31G
 ------------------

 ------------
 H2O_H2O_3092
 ------------
 Symbolic Z-matrix:
 Charge =  0 Multiplicity = 1

                         Standard orientation:
 ---------------------------------------------------------------------
 Center     Atomic      Atomic             Coordinates (Angstroms)
 Number     Number       Type             X           Y           Z
 ---------------------------------------------------------------------
      1          8           0        0.051281   -2.404498    0.000000
      2          1           0       -0.749323   -2.974181    0.000000
      3          1           0        0.849817   -2.977076    0.000000
      4          8           0        0.051281    2.468017    0.000000
      5          1           0       -0.105555    3.438022    0.000000
      6          1           0       -0.815432    2.005077    0.000000
 ---------------------------------------------------------------------

 SCF Done:  E(RHF) =  -33.6511106444     A.U. after   11 cycles
 E2 =    -0.2284563931D+00 EUMP2 =    -0.33879567037558D+02
 CCSD(T)
 CCSD(T)= -0.33896587208D+02

 The electronic state is 1-A'.
 Alpha  occ. eigenvalues --   -1.35317  -1.34497  -0.70948  -0.70101  -0.55015
 Alpha  occ. eigenvalues --   -0.54184  -0.49878  -0.49060
 Alpha virt. eigenvalues --    0.20375   0.21294   0.30649   0.31472   0.80674
 Alpha virt. eigenvalues --    0.81479   0.83353   0.84840   0.86842   0.87990
 Alpha virt. eigenvalues --    1.17556   1.18376   1.22012   1.22863   2.57584

 Mulliken charges:
               1
     1  O   -0.738811
     2  H    0.366742
     3  H    0.372083
     4  O   -0.737664
     5  H    0.363934
     6  H    0.373716
 Sum of Mulliken charges =   0.00000

 Dipole moment (field-independent basis, Debye):
    X=             -2.3572    Y=             -1.5037    Z=              0.0000  Tot=              2.7960
 Quadrupole moment (field-independent basis, Debye-Ang):
   XX=             -9.7431   YY=              8.0196   ZZ=            -14.9882
   XY=             -5.2497   XZ=              0.0000   YZ=              0.0000

 MP4DQ=-33.8909367\MP4SDQ=-33.8929671\CCSD=-33.894022\CCSD(T)=-33.89658
 Normal termination of Gaussian 16 at Sun Dec 10 06:35:34 2023.
