 Gaussian 16, Revision A.03,
 Gaussian 16:  ES64L-G16RevA.03 25-Dec-2016

 ------------------
 #p CCSD(T)/CEP-31G
 ------------------

 ------------
 H2O_H2O_4039
 ------------
 Symbolic Z-matrix:
 Charge =  0 Multiplicity = 1

                         Standard orientation:
 ---------------------------------------------------------------------
 Center     Atomic      Atomic             Coordinates (Angstroms)
 Number     Number       Type             X           Y           Z
 ---------------------------------------------------------------------
      1          8           0        0.045341   -2.920035    0.000000
      2          1           0       -0.754987   -3.490106    0.000000
      3          1           0        0.844154   -3.492226    0.000000
      4          8           0        0.045341    2.964604    0.000000
      5          1           0        0.080281    3.946584    0.000000
      6          1           0       -0.894897    2.679191    0.000000
 ---------------------------------------------------------------------

 SCF Done:  E(RHF) =  -33.6510667307     A.U. after   11 cycles
 E2 =    -0.2284281912D+00 EUMP2 =    -0.33879494921953D+02
 CCSD(T)
 CCSD(T)= -0.33896515989D+02

 The electronic state is 1-A'.
 Alpha  occ. eigenvalues --   -1.35251  -1.34863  -0.70880  -0.70482  -0.54945
 Alpha  occ. eigenvalues --   -0.54555  -0.49811  -0.49424
 Alpha virt. eigenvalues --    0.20481   0.20877   0.30716   0.31100   0.80742
 Alpha virt. eigenvalues --    0.81123   0.83833   0.84222   0.86920   0.87368
 Alpha virt. eigenvalues --    1.17621   1.18005   1.22085   1.22472   2.57655

 Mulliken charges:
               1
     1  O   -0.738579
     2  H    0.367872
     3  H    0.370707
     4  O   -0.738132
     5  H    0.366670
     6  H    0.371462
 Sum of Mulliken charges =  -0.00000

 Dipole moment (field-independent basis, Debye):
    X=             -2.0910    Y=             -1.0450    Z=              0.0000  Tot=              2.3376
 Quadrupole moment (field-independent basis, Debye-Ang):
   XX=             -9.3725   YY=             14.2542   ZZ=            -14.9876
   XY=             -5.4077   XZ=              0.0000   YZ=              0.0000

 \MP4DQ=-33.8908662\MP4SDQ=-33.8928959\CCSD=-33.8939523\CCSD(T)=-33.896
 Normal termination of Gaussian 16 at Sun Dec 10 06:52:47 2023.
