 Gaussian 16, Revision A.03,
 Gaussian 16:  ES64L-G16RevA.03 25-Dec-2016

 ------------------
 #p CCSD(T)/CEP-31G
 ------------------

 ------------
 H2O_H2O_2061
 ------------
 Symbolic Z-matrix:
 Charge =  0 Multiplicity = 1

                         Standard orientation:
 ---------------------------------------------------------------------
 Center     Atomic      Atomic             Coordinates (Angstroms)
 Number     Number       Type             X           Y           Z
 ---------------------------------------------------------------------
      1          8           0        0.037682   -1.878538    0.000000
      2          1           0       -0.762866   -2.448299    0.000000
      3          1           0        0.836273   -2.451038    0.000000
      4          8           0        0.037682    1.906755    0.000000
      5          1           0        0.263896    2.862963    0.000000
      6          1           0       -0.940208    1.810635    0.000000
 ---------------------------------------------------------------------

 SCF Done:  E(RHF) =  -33.6481244328     A.U. after   11 cycles
 E2 =    -0.2287363718D+00 EUMP2 =    -0.33876860804578D+02
 CCSD(T)
 CCSD(T)= -0.33893977001D+02

 The electronic state is 1-A'.
 Alpha  occ. eigenvalues --   -1.34524  -1.33907  -0.70150  -0.69499  -0.54133
 Alpha  occ. eigenvalues --   -0.53325  -0.49046  -0.48428
 Alpha virt. eigenvalues --    0.20643   0.22044   0.31273   0.31869   0.77812
 Alpha virt. eigenvalues --    0.80937   0.82678   0.85967   0.88573   0.96884
 Alpha virt. eigenvalues --    1.18224   1.18951   1.22707   1.23390   2.57973

 Mulliken charges:
               1
     1  O   -0.728644
     2  H    0.360443
     3  H    0.368376
     4  O   -0.726042
     5  H    0.357538
     6  H    0.368330
 Sum of Mulliken charges =   0.00000

 Dipole moment (field-independent basis, Debye):
    X=             -1.7152    Y=             -0.6864    Z=              0.0000  Tot=              1.8474
 Quadrupole moment (field-independent basis, Debye-Ang):
   XX=             -8.9871   YY=              6.1563   ZZ=            -14.9856
   XY=             -2.5240   XZ=              0.0000   YZ=              0.0000

 \MP4DQ=-33.8882847\MP4SDQ=-33.8903365\CCSD=-33.8913901\CCSD(T)=-33.893
 Normal termination of Gaussian 16 at Sun Dec 10 07:04:30 2023.
