 Gaussian 16, Revision A.03,
 Gaussian 16:  ES64L-G16RevA.03 25-Dec-2016

 ------------------
 #p CCSD(T)/CEP-31G
 ------------------

 ------------
 H2O_H2O_1875
 ------------
 Symbolic Z-matrix:
 Charge =  0 Multiplicity = 1

                         Standard orientation:
 ---------------------------------------------------------------------
 Center     Atomic      Atomic             Coordinates (Angstroms)
 Number     Number       Type             X           Y           Z
 ---------------------------------------------------------------------
      1          8           0        0.000000   -0.000000    1.800792
      2          1           0        0.000000    0.799571    2.371924
      3          1           0       -0.000000   -0.799571    2.371924
      4          8           0        0.000000   -0.000000   -1.800792
      5          1           0       -0.000000   -0.799571   -2.371924
      6          1           0        0.000000    0.799571   -2.371924
 ---------------------------------------------------------------------

 SCF Done:  E(RHF) =  -33.6453799802     A.U. after   10 cycles
 E2 =    -0.2288382492D+00 EUMP2 =    -0.33874218229412D+02
 CCSD(T)
 CCSD(T)= -0.33891417716D+02

 The electronic state is 1-AG.
 Alpha  occ. eigenvalues --   -1.33851  -1.33816  -0.69471  -0.69433  -0.53661
 Alpha  occ. eigenvalues --   -0.52695  -0.48388  -0.48240
 Alpha virt. eigenvalues --    0.21113   0.22094   0.31680   0.31985   0.77395
 Alpha virt. eigenvalues --    0.81056   0.83403   0.85912   0.91514   0.97679
 Alpha virt. eigenvalues --    1.18798   1.18838   1.23128   1.23601   2.58241

 Mulliken charges:
               1
     1  O   -0.719603
     2  H    0.359801
     3  H    0.359801
     4  O   -0.719603
     5  H    0.359801
     6  H    0.359801
 Sum of Mulliken charges =  -0.00000

 Dipole moment (field-independent basis, Debye):
    X=             -0.0000    Y=              0.0000    Z=              0.0000  Tot=              0.0000
 Quadrupole moment (field-independent basis, Debye-Ang):
   XX=            -14.9834   YY=             -8.1202   ZZ=              6.8049
   XY=              0.0000   XZ=              0.0000   YZ=             -0.0000

 3.885696\MP4SDQ=-33.8877578\CCSD=-33.8888188\CCSD(T)=-33.8914177\RMSD=
 Normal termination of Gaussian 16 at Sun Dec 10 06:59:43 2023.
