 Gaussian 16, Revision A.03,
 Gaussian 16:  ES64L-G16RevA.03 25-Dec-2016

 ------------------
 #p CCSD(T)/CEP-31G
 ------------------

 ------------
 H2O_H2O_4541
 ------------
 Symbolic Z-matrix:
 Charge =  0 Multiplicity = 1

                         Standard orientation:
 ---------------------------------------------------------------------
 Center     Atomic      Atomic             Coordinates (Angstroms)
 Number     Number       Type             X           Y           Z
 ---------------------------------------------------------------------
      1          8           0        0.049499   -3.179212    0.000000
      2          1           0       -0.750829   -3.749282    0.000000
      3          1           0        0.848311   -3.751405    0.000000
      4          8           0        0.049499    3.236194    0.000000
      5          1           0       -0.044031    4.214335    0.000000
      6          1           0       -0.845440    2.830498    0.000000
 ---------------------------------------------------------------------

 SCF Done:  E(RHF) =  -33.6513980921     A.U. after   11 cycles
 E2 =    -0.2284058307D+00 EUMP2 =    -0.33879803922738D+02
 CCSD(T)
 CCSD(T)= -0.33896815416D+02

 The electronic state is 1-A'.
 Alpha  occ. eigenvalues --   -1.35388  -1.34974  -0.71019  -0.70596  -0.55101
 Alpha  occ. eigenvalues --   -0.54684  -0.49953  -0.49540
 Alpha virt. eigenvalues --    0.20362   0.20785   0.30600   0.31013   0.80599
 Alpha virt. eigenvalues --    0.81007   0.83661   0.84073   0.86759   0.87220
 Alpha virt. eigenvalues --    1.17498   1.17908   1.21959   1.22374   2.57524

 Mulliken charges:
               1
     1  O   -0.739740
     2  H    0.368668
     3  H    0.371073
     4  O   -0.739429
     5  H    0.367516
     6  H    0.371914
 Sum of Mulliken charges =   0.00000

 Dipole moment (field-independent basis, Debye):
    X=             -2.2850    Y=             -1.3323    Z=              0.0000  Tot=              2.6450
 Quadrupole moment (field-independent basis, Debye-Ang):
   XX=             -9.6289   YY=             14.8984   ZZ=            -14.9880
   XY=             -6.7026   XZ=              0.0000   YZ=              0.0000

 6\MP4DQ=-33.8911683\MP4SDQ=-33.893197\CCSD=-33.894253\CCSD(T)=-33.8968
 Normal termination of Gaussian 16 at Sun Dec 10 07:03:23 2023.
