 Gaussian 16, Revision A.03,
 Gaussian 16:  ES64L-G16RevA.03 25-Dec-2016

 ------------------
 #p CCSD(T)/CEP-31G
 ------------------

 ------------
 H2O_H2O_2425
 ------------
 Symbolic Z-matrix:
 Charge =  0 Multiplicity = 1

                         Standard orientation:
 ---------------------------------------------------------------------
 Center     Atomic      Atomic             Coordinates (Angstroms)
 Number     Number       Type             X           Y           Z
 ---------------------------------------------------------------------
      1          8           0        0.000000   -0.000000    2.093302
      2          1           0        0.000000    0.799571    2.664434
      3          1           0       -0.000000   -0.799571    2.664434
      4          8           0        0.000000   -0.000000   -2.093302
      5          1           0       -0.000000   -0.799571   -2.664434
      6          1           0        0.000000    0.799571   -2.664434
 ---------------------------------------------------------------------

 SCF Done:  E(RHF) =  -33.6477113832     A.U. after   10 cycles
 E2 =    -0.2286379683D+00 EUMP2 =    -0.33876349351568D+02
 CCSD(T)
 CCSD(T)= -0.33893468388D+02

 The electronic state is 1-AG.
 Alpha  occ. eigenvalues --   -1.34258  -1.34251  -0.69880  -0.69871  -0.53902
 Alpha  occ. eigenvalues --   -0.53587  -0.48786  -0.48747
 Alpha virt. eigenvalues --    0.21068   0.21521   0.31460   0.31588   0.81186
 Alpha virt. eigenvalues --    0.81458   0.82102   0.87379   0.88879   0.89737
 Alpha virt. eigenvalues --    1.18477   1.18480   1.22887   1.23069   2.58353

 Mulliken charges:
               1
     1  O   -0.727020
     2  H    0.363510
     3  H    0.363510
     4  O   -0.727020
     5  H    0.363510
     6  H    0.363510
 Sum of Mulliken charges =  -0.00000

 Dipole moment (field-independent basis, Debye):
    X=             -0.0000    Y=              0.0000    Z=             -0.0000  Tot=              0.0000
 Quadrupole moment (field-independent basis, Debye-Ang):
   XX=            -14.9843   YY=             -8.0842   ZZ=             10.0290
   XY=              0.0000   XZ=              0.0000   YZ=             -0.0000

 -33.8877867\MP4SDQ=-33.8898291\CCSD=-33.8908891\CCSD(T)=-33.8934684\RM
 Normal termination of Gaussian 16 at Sun Dec 10 07:11:02 2023.
