 Gaussian 16, Revision A.03,
 Gaussian 16:  ES64L-G16RevA.03 25-Dec-2016

 ------------------
 #p CCSD(T)/CEP-31G
 ------------------

 ------------
 H2O_H2O_3587
 ------------
 Symbolic Z-matrix:
 Charge =  0 Multiplicity = 1

                         Standard orientation:
 ---------------------------------------------------------------------
 Center     Atomic      Atomic             Coordinates (Angstroms)
 Number     Number       Type             X           Y           Z
 ---------------------------------------------------------------------
      1          8           0        0.040407   -2.686800    0.000000
      2          1           0       -0.759898   -3.256903    0.000000
      3          1           0        0.839243   -3.258960    0.000000
      4          8           0        0.040407    2.720152    0.000000
      5          1           0        0.203184    3.689177    0.000000
      6          1           0       -0.929034    2.559868    0.000000
 ---------------------------------------------------------------------

 SCF Done:  E(RHF) =  -33.6506071611     A.U. after   11 cycles
 E2 =    -0.2284580431D+00 EUMP2 =    -0.33879065204144D+02
 CCSD(T)
 CCSD(T)= -0.33896099639D+02

 The electronic state is 1-A'.
 Alpha  occ. eigenvalues --   -1.35084  -1.34738  -0.70712  -0.70355  -0.54752
 Alpha  occ. eigenvalues --   -0.54405  -0.49637  -0.49292
 Alpha virt. eigenvalues --    0.20620   0.20976   0.30856   0.31194   0.80916
 Alpha virt. eigenvalues --    0.81255   0.83988   0.84456   0.87119   0.87545
 Alpha virt. eigenvalues --    1.17768   1.18110   1.22236   1.22580   2.57813

 Mulliken charges:
               1
     1  O   -0.736981
     2  H    0.366880
     3  H    0.370101
     4  O   -0.736400
     5  H    0.365685
     6  H    0.370714
 Sum of Mulliken charges =   0.00000

 Dipole moment (field-independent basis, Debye):
    X=             -1.8612    Y=             -0.7847    Z=              0.0000  Tot=              2.0198
 Quadrupole moment (field-independent basis, Debye-Ang):
   XX=             -9.1003   YY=             13.3659   ZZ=            -14.9871
   XY=             -4.2345   XZ=              0.0000   YZ=              0.0000

 \MP4DQ=-33.8904461\MP4SDQ=-33.8924771\CCSD=-33.8935341\CCSD(T)=-33.896
 Normal termination of Gaussian 16 at Sun Dec 10 06:44:28 2023.
