 Gaussian 16, Revision A.03,
 Gaussian 16:  ES64L-G16RevA.03 25-Dec-2016

 ------------------
 #p CCSD(T)/CEP-31G
 ------------------

 -----------
 H2O_H2O_493
 -----------
 Symbolic Z-matrix:
 Charge =  0 Multiplicity = 1

                         Standard orientation:
 ---------------------------------------------------------------------
 Center     Atomic      Atomic             Coordinates (Angstroms)
 Number     Number       Type             X           Y           Z
 ---------------------------------------------------------------------
      1          8           0        0.052917   -1.018167    0.000000
      2          1           0       -0.749110   -1.585845    0.000000
      3          1           0        0.850018   -1.592742    0.000000
      4          8           0        0.052917    1.088225    0.000000
      5          1           0       -0.164626    2.046443    0.000000
      6          1           0       -0.782958    0.571680    0.000000
 ---------------------------------------------------------------------

 SCF Done:  E(RHF) =  -33.6164406647     A.U. after   11 cycles
 E2 =    -0.2317810456D+00 EUMP2 =    -0.33848221710311D+02
 CCSD(T)
 CCSD(T)= -0.33865298312D+02

 The electronic state is 1-A'.
 Alpha  occ. eigenvalues --   -1.35920  -1.30665  -0.71753  -0.68539  -0.54194
 Alpha  occ. eigenvalues --   -0.50459  -0.48219  -0.44971
 Alpha virt. eigenvalues --    0.19641   0.27366   0.30478   0.34431   0.78381
 Alpha virt. eigenvalues --    0.84717   0.89795   0.95886   0.99050   1.14426
 Alpha virt. eigenvalues --    1.19002   1.22810   1.26141   1.31999   2.62841

 Mulliken charges:
               1
     1  O   -0.774018
     2  H    0.355882
     3  H    0.401920
     4  O   -0.676018
     5  H    0.324594
     6  H    0.367640
 Sum of Mulliken charges =  -0.00000

 Dipole moment (field-independent basis, Debye):
    X=             -2.1278    Y=             -1.7898    Z=              0.0000  Tot=              2.7805
 Quadrupole moment (field-independent basis, Debye-Ang):
   XX=             -9.8629   YY=             -4.4191   ZZ=            -14.9951
   XY=             -2.2258   XZ=              0.0000   YZ=              0.0000

 MP4DQ=-33.8591182\MP4SDQ=-33.8614098\CCSD=-33.8623618\CCSD(T)=-33.8652
 Normal termination of Gaussian 16 at Sun Dec 10 06:33:58 2023.
