 Gaussian 16, Revision A.03,
 Gaussian 16:  ES64L-G16RevA.03 25-Dec-2016

 ------------------
 #p CCSD(T)/CEP-31G
 ------------------

 ------------
 H2O_H2O_4910
 ------------
 Symbolic Z-matrix:
 Charge =  0 Multiplicity = 1

                         Standard orientation:
 ---------------------------------------------------------------------
 Center     Atomic      Atomic             Coordinates (Angstroms)
 Number     Number       Type             X           Y           Z
 ---------------------------------------------------------------------
      1          8           0        0.034779   -3.396811    0.000000
      2          1           0       -0.765294   -3.967240    0.000000
      3          1           0        0.833848   -3.968645    0.000000
      4          8           0        0.034779    3.420354    0.000000
      5          1           0        0.322264    4.359960    0.000000
      6          1           0       -0.947277    3.387578    0.000000
 ---------------------------------------------------------------------

 SCF Done:  E(RHF) =  -33.6511039553     A.U. after   11 cycles
 E2 =    -0.2284161269D+00 EUMP2 =    -0.33879520082201D+02
 CCSD(T)
 CCSD(T)= -0.33896540196D+02

 The electronic state is 1-A'.
 Alpha  occ. eigenvalues --   -1.35218  -1.35066  -0.70847  -0.70692  -0.54914
 Alpha  occ. eigenvalues --   -0.54763  -0.49779  -0.49628
 Alpha virt. eigenvalues --    0.20516   0.20670   0.30751   0.30900   0.80775
 Alpha virt. eigenvalues --    0.80924   0.83865   0.84014   0.86953   0.87124
 Alpha virt. eigenvalues --    1.17655   1.17805   1.22118   1.22269   2.57689

 Mulliken charges:
               1
     1  O   -0.738676
     2  H    0.368608
     3  H    0.370068
     4  O   -0.738519
     5  H    0.368113
     6  H    0.370406
 Sum of Mulliken charges =  -0.00000

 Dipole moment (field-independent basis, Debye):
    X=             -1.6064    Y=             -0.5496    Z=              0.0000  Tot=              1.6978
 Quadrupole moment (field-independent basis, Debye-Ang):
   XX=             -8.8209   YY=             21.1380   ZZ=            -14.9874
   XY=             -4.6521   XZ=              0.0000   YZ=              0.0000

 MP4DQ=-33.8908907\MP4SDQ=-33.8929202\CCSD=-33.893977\CCSD(T)=-33.89654
 Normal termination of Gaussian 16 at Sun Dec 10 07:10:10 2023.
