 Gaussian 16, Revision A.03,
 Gaussian 16:  ES64L-G16RevA.03 25-Dec-2016

 ------------------
 #p CCSD(T)/CEP-31G
 ------------------

 ------------
 H2O_H2O_1280
 ------------
 Symbolic Z-matrix:
 Charge =  0 Multiplicity = 1

                         Standard orientation:
 ---------------------------------------------------------------------
 Center     Atomic      Atomic             Coordinates (Angstroms)
 Number     Number       Type             X           Y           Z
 ---------------------------------------------------------------------
      1          8           0        0.018362   -1.478419    0.000000
      2          1           0       -0.781818   -2.048698    0.000000
      3          1           0        0.817323   -2.050404    0.000000
      4          8           0        0.018362    1.484442    0.000000
      5          1           0        0.592766    2.281665    0.000000
      6          1           0       -0.922057    1.769253    0.000000
 ---------------------------------------------------------------------

 SCF Done:  E(RHF) =  -33.6406731657     A.U. after   11 cycles
 E2 =    -0.2292820019D+00 EUMP2 =    -0.33869955167590D+02
 CCSD(T)
 CCSD(T)= -0.33887318755D+02

 The electronic state is 1-A'.
 Alpha  occ. eigenvalues --   -1.33337  -1.33047  -0.68942  -0.68662  -0.53800
 Alpha  occ. eigenvalues --   -0.50852  -0.47918  -0.47324
 Alpha virt. eigenvalues --    0.21170   0.23117   0.32127   0.32446   0.78600
 Alpha virt. eigenvalues --    0.79822   0.82371   0.86196   0.96934   1.09922
 Alpha virt. eigenvalues --    1.19166   1.20077   1.23889   1.24111   2.59403

 Mulliken charges:
               1
     1  O   -0.710003
     2  H    0.351154
     3  H    0.358607
     4  O   -0.707402
     5  H    0.350817
     6  H    0.356826
 Sum of Mulliken charges =  -0.00000

 Dipole moment (field-independent basis, Debye):
    X=             -0.8173    Y=             -0.1501    Z=              0.0000  Tot=              0.8310
 Quadrupole moment (field-independent basis, Debye-Ang):
   XX=             -8.3867   YY=              2.8797   ZZ=            -14.9852
   XY=             -0.7886   XZ=              0.0000   YZ=              0.0000

 \MP4DQ=-33.8815049\MP4SDQ=-33.8835975\CCSD=-33.8846763\CCSD(T)=-33.887
 Normal termination of Gaussian 16 at Sun Dec 10 06:48:41 2023.
