 Gaussian 16, Revision A.03,
 Gaussian 16:  ES64L-G16RevA.03 25-Dec-2016

 ------------------
 #p CCSD(T)/CEP-31G
 ------------------

 ------------
 H2O_H2O_3858
 ------------
 Symbolic Z-matrix:
 Charge =  0 Multiplicity = 1

                         Standard orientation:
 ---------------------------------------------------------------------
 Center     Atomic      Atomic             Coordinates (Angstroms)
 Number     Number       Type             X           Y           Z
 ---------------------------------------------------------------------
      1          8           0        0.028563   -2.842884    0.000000
      2          1           0       -0.771500   -3.413327    0.000000
      3          1           0        0.827641   -3.414706    0.000000
      4          8           0        0.028563    2.858139    0.000000
      5          1           0        0.436218    3.752187    0.000000
      6          1           0       -0.949370    2.953811    0.000000
 ---------------------------------------------------------------------

 SCF Done:  E(RHF) =  -33.6504405717     A.U. after   11 cycles
 E2 =    -0.2284574232D+00 EUMP2 =    -0.33878897994906D+02
 CCSD(T)
 CCSD(T)= -0.33895937138D+02

 The electronic state is 1-A'.
 Alpha  occ. eigenvalues --   -1.34981  -1.34840  -0.70609  -0.70462  -0.54640
 Alpha  occ. eigenvalues --   -0.54499  -0.49532  -0.49391
 Alpha virt. eigenvalues --    0.20715   0.20860   0.30947   0.31085   0.81021
 Alpha virt. eigenvalues --    0.81161   0.84149   0.84346   0.87235   0.87409
 Alpha virt. eigenvalues --    1.17863   1.18003   1.22332   1.22473   2.57913

 Mulliken charges:
               1
     1  O   -0.736359
     2  H    0.367188
     3  H    0.369172
     4  O   -0.736103
     5  H    0.366619
     6  H    0.369484
 Sum of Mulliken charges =  -0.00000

 Dipole moment (field-independent basis, Debye):
    X=             -1.3168    Y=             -0.3581    Z=              0.0000  Tot=              1.3646
 Quadrupole moment (field-independent basis, Debye-Ang):
   XX=             -8.5715   YY=             16.6564   ZZ=            -14.9867
   XY=             -3.0178   XZ=              0.0000   YZ=              0.0000

 MP4DQ=-33.8902824\MP4SDQ=-33.8923138\CCSD=-33.8933714\CCSD(T)=-33.8959
 Normal termination of Gaussian 16 at Sun Dec 10 06:49:29 2023.
