 Gaussian 16, Revision A.03,
 Gaussian 16:  ES64L-G16RevA.03 25-Dec-2016

 ------------------
 #p CCSD(T)/CEP-31G
 ------------------

 ------------
 H2O_H2O_1328
 ------------
 Symbolic Z-matrix:
 Charge =  0 Multiplicity = 1

                         Standard orientation:
 ---------------------------------------------------------------------
 Center     Atomic      Atomic             Coordinates (Angstroms)
 Number     Number       Type             X           Y           Z
 ---------------------------------------------------------------------
      1          8           0        0.011143   -1.507098    0.000000
      2          1           0       -0.788791   -2.077721    0.000000
      3          1           0        0.810351   -2.078738    0.000000
      4          8           0        0.011143    1.509278    0.000000
      5          1           0        0.684383    2.224997    0.000000
      6          1           0       -0.884230    1.914017    0.000000
 ---------------------------------------------------------------------

 SCF Done:  E(RHF) =  -33.6408113079     A.U. after   11 cycles
 E2 =    -0.2292194237D+00 EUMP2 =    -0.33870030731656D+02
 CCSD(T)
 CCSD(T)= -0.33887386524D+02

 The electronic state is 1-A'.
 Alpha  occ. eigenvalues --   -1.33311  -1.33118  -0.68913  -0.68741  -0.53717
 Alpha  occ. eigenvalues --   -0.50970  -0.47895  -0.47389
 Alpha virt. eigenvalues --    0.21245   0.22973   0.32090   0.32448   0.78254
 Alpha virt. eigenvalues --    0.79988   0.82537   0.85946   0.97141   1.07992
 Alpha virt. eigenvalues --    1.19197   1.19714   1.23799   1.24187   2.59673

 Mulliken charges:
               1
     1  O   -0.709172
     2  H    0.352385
     3  H    0.356718
     4  O   -0.708301
     5  H    0.352384
     6  H    0.355986
 Sum of Mulliken charges =   0.00000

 Dipole moment (field-independent basis, Debye):
    X=             -0.4977    Y=             -0.0544    Z=              0.0000  Tot=              0.5007
 Quadrupole moment (field-independent basis, Debye-Ang):
   XX=             -8.2540   YY=              3.3392   ZZ=            -14.9846
   XY=             -0.4790   XZ=              0.0000   YZ=              0.0000

 \MP4DQ=-33.881582\MP4SDQ=-33.8836702\CCSD=-33.8847483\CCSD(T)=-33.8873
 Normal termination of Gaussian 16 at Sun Dec 10 06:49:35 2023.
