 Gaussian 16, Revision A.03,
 Gaussian 16:  ES64L-G16RevA.03 25-Dec-2016

 ------------------
 #p CCSD(T)/CEP-31G
 ------------------

 ------------
 H2O_H2O_2703
 ------------
 Symbolic Z-matrix:
 Charge =  0 Multiplicity = 1

                         Standard orientation:
 ---------------------------------------------------------------------
 Center     Atomic      Atomic             Coordinates (Angstroms)
 Number     Number       Type             X           Y           Z
 ---------------------------------------------------------------------
      1          8           0        0.011143   -2.238370    0.000000
      2          1           0       -0.788673   -2.809160    0.000000
      3          1           0        0.810469   -2.809844    0.000000
      4          8           0        0.011143    2.240555    0.000000
      5          1           0        0.684234    2.956414    0.000000
      6          1           0       -0.884314    2.645109    0.000000
 ---------------------------------------------------------------------

 SCF Done:  E(RHF) =  -33.6485227142     A.U. after   11 cycles
 E2 =    -0.2285779198D+00 EUMP2 =    -0.33877100633978D+02
 CCSD(T)
 CCSD(T)= -0.33894195489D+02

 The electronic state is 1-A'.
 Alpha  occ. eigenvalues --   -1.34442  -1.34408  -0.70064  -0.70029  -0.54053
 Alpha  occ. eigenvalues --   -0.53882  -0.48968  -0.48930
 Alpha virt. eigenvalues --    0.21027   0.21309   0.31361   0.31429   0.81450
 Alpha virt. eigenvalues --    0.81751   0.82672   0.87045   0.87804   0.88390
 Alpha virt. eigenvalues --    1.18324   1.18356   1.22785   1.22873   2.58357

 Mulliken charges:
               1
     1  O   -0.729771
     2  H    0.364135
     3  H    0.365638
     4  O   -0.729645
     5  H    0.363879
     6  H    0.365764
 Sum of Mulliken charges =   0.00000

 Dipole moment (field-independent basis, Debye):
    X=             -0.5112    Y=             -0.0521    Z=              0.0000  Tot=              0.5138
 Quadrupole moment (field-independent basis, Debye-Ang):
   XX=             -8.1511   YY=             11.4637   ZZ=            -14.9849
   XY=             -0.8258   XZ=              0.0000   YZ=              0.0000

 \MP4DQ=-33.8885235\MP4SDQ=-33.8905614\CCSD=-33.8916212\CCSD(T)=-33.894
 Normal termination of Gaussian 16 at Sun Dec 10 06:28:31 2023.
