 Gaussian 16, Revision A.03,
 Gaussian 16:  ES64L-G16RevA.03 25-Dec-2016

 ------------------
 #p CCSD(T)/CEP-31G
 ------------------

 ------------
 H2O_H2O_1601
 ------------
 Symbolic Z-matrix:
 Charge =  0 Multiplicity = 1

                         Standard orientation:
 ---------------------------------------------------------------------
 Center     Atomic      Atomic             Coordinates (Angstroms)
 Number     Number       Type             X           Y           Z
 ---------------------------------------------------------------------
      1          8           0        0.003735   -1.654405    0.000000
      2          1           0       -0.795947   -2.225382    0.000000
      3          1           0        0.803195   -2.225692    0.000000
      4          8           0        0.003735    1.654648    0.000000
      5          1           0        0.764362    2.276704    0.000000
      6          1           0       -0.831377    2.172425    0.000000
 ---------------------------------------------------------------------

 SCF Done:  E(RHF) =  -33.6434402302     A.U. after   11 cycles
 E2 =    -0.2289931983D+00 EUMP2 =    -0.33872433428527D+02
 CCSD(T)
 CCSD(T)= -0.33889705492D+02

 The electronic state is 1-A'.
 Alpha  occ. eigenvalues --   -1.33588  -1.33508  -0.69202  -0.69126  -0.53609
 Alpha  occ. eigenvalues --   -0.51968  -0.48141  -0.47867
 Alpha virt. eigenvalues --    0.21175   0.22478   0.31846   0.32223   0.76713
 Alpha virt. eigenvalues --    0.80588   0.84406   0.84516   0.93997   1.02877
 Alpha virt. eigenvalues --    1.18995   1.19132   1.23368   1.23935   2.58887

 Mulliken charges:
               1
     1  O   -0.714330
     2  H    0.356599
     3  H    0.357732
     4  O   -0.714274
     5  H    0.356543
     6  H    0.357730
 Sum of Mulliken charges =  -0.00000

 Dipole moment (field-independent basis, Debye):
    X=             -0.1688    Y=             -0.0061    Z=              0.0000  Tot=              0.1689
 Quadrupole moment (field-independent basis, Debye-Ang):
   XX=             -8.1556   YY=              5.1342   ZZ=            -14.9833
   XY=             -0.1814   XZ=              0.0000   YZ=              0.0000

 MP4DQ=-33.8839475\MP4SDQ=-33.8860231\CCSD=-33.8870899\CCSD(T)=-33.8897
 Normal termination of Gaussian 16 at Sun Dec 10 06:54:39 2023.
