 Gaussian 16, Revision A.03,
 Gaussian 16:  ES64L-G16RevA.03 25-Dec-2016

 ------------------
 #p CCSD(T)/CEP-31G
 ------------------

 -----------
 H2O_H2O_672
 -----------
 Symbolic Z-matrix:
 Charge =  0 Multiplicity = 1

                         Standard orientation:
 ---------------------------------------------------------------------
 Center     Atomic      Atomic             Coordinates (Angstroms)
 Number     Number       Type             X           Y           Z
 ---------------------------------------------------------------------
      1          8           0        0.056835   -1.095611    0.000000
      2          1           0       -0.745160   -1.663334    0.000000
      3          1           0        0.853968   -1.670142    0.000000
      4          8           0        0.056835    1.194445    0.000000
      5          1           0       -0.401349    2.063682    0.000000
      6          1           0       -0.616827    0.479123    0.000000
 ---------------------------------------------------------------------

 SCF Done:  E(RHF) =  -33.6357289775     A.U. after   11 cycles
 E2 =    -0.2307756339D+00 EUMP2 =    -0.33866504611378D+02
 CCSD(T)
 CCSD(T)= -0.33883209713D+02

 The electronic state is 1-A'.
 Alpha  occ. eigenvalues --   -1.37152  -1.30614  -0.72912  -0.68889  -0.54037
 Alpha  occ. eigenvalues --   -0.51656  -0.50565  -0.45110
 Alpha virt. eigenvalues --    0.18958   0.27471   0.29358   0.36605   0.76875
 Alpha virt. eigenvalues --    0.84082   0.89339   0.91763   0.98246   1.13267
 Alpha virt. eigenvalues --    1.19124   1.19861   1.26461   1.31186   2.75908

 Mulliken charges:
               1
     1  O   -0.782454
     2  H    0.366771
     3  H    0.415760
     4  O   -0.709972
     5  H    0.324110
     6  H    0.385786
 Sum of Mulliken charges =  -0.00000

 Dipole moment (field-independent basis, Debye):
    X=             -2.3561    Y=             -2.6456    Z=              0.0000  Tot=              3.5427
 Quadrupole moment (field-independent basis, Debye-Ang):
   XX=            -10.0868   YY=             -4.6084   ZZ=            -15.0040
   XY=             -3.1064   XZ=              0.0000   YZ=              0.0000

 4DQ=-33.8771381\MP4SDQ=-33.8793813\CCSD=-33.8803132\CCSD(T)=-33.883209
 Normal termination of Gaussian 16 at Sun Dec 10 06:37:18 2023.
