 Gaussian 16, Revision A.03,
 Gaussian 16:  ES64L-G16RevA.03 25-Dec-2016

 ------------------
 #p CCSD(T)/CEP-31G
 ------------------

 ------------
 H2O_H2O_1564
 ------------
 Symbolic Z-matrix:
 Charge =  0 Multiplicity = 1

                         Standard orientation:
 ---------------------------------------------------------------------
 Center     Atomic      Atomic             Coordinates (Angstroms)
 Number     Number       Type             X           Y           Z
 ---------------------------------------------------------------------
      1          8           0        0.045364   -1.603790    0.000000
      2          1           0       -0.755574   -2.173002    0.000000
      3          1           0        0.843563   -2.176838    0.000000
      4          8           0        0.045364    1.648262    0.000000
      5          1           0        0.081359    2.630205    0.000000
      6          1           0       -0.895179    1.363859    0.000000
 ---------------------------------------------------------------------

 SCF Done:  E(RHF) =  -33.6475089047     A.U. after   11 cycles
 E2 =    -0.2290402239D+00 EUMP2 =    -0.33876549128592D+02
 CCSD(T)
 CCSD(T)= -0.33893729029D+02

 The electronic state is 1-A'.
 Alpha  occ. eigenvalues --   -1.34618  -1.33295  -0.70250  -0.68859  -0.54317
 Alpha  occ. eigenvalues --   -0.52573  -0.49145  -0.47810
 Alpha virt. eigenvalues --    0.20191   0.23114   0.31141   0.32421   0.75413
 Alpha virt. eigenvalues --    0.79814   0.84389   0.85030   0.89781   1.08348
 Alpha virt. eigenvalues --    1.18070   1.20662   1.22618   1.24479   2.57884

 Mulliken charges:
               1
     1  O   -0.728251
     2  H    0.357216
     3  H    0.371370
     4  O   -0.721065
     5  H    0.350668
     6  H    0.370061
 Sum of Mulliken charges =   0.00000

 Dipole moment (field-independent basis, Debye):
    X=             -2.0383    Y=             -1.1044    Z=              0.0000  Tot=              2.3183
 Quadrupole moment (field-independent basis, Debye-Ang):
   XX=             -9.3967   YY=              2.6519   ZZ=            -14.9872
   XY=             -2.7380   XZ=              0.0000   YZ=              0.0000

 MP4DQ=-33.8879815\MP4SDQ=-33.8900655\CCSD=-33.891116\CCSD(T)=-33.89372
 Normal termination of Gaussian 16 at Sun Dec 10 06:53:58 2023.
