 Gaussian 16, Revision A.03,
 Gaussian 16:  ES64L-G16RevA.03 25-Dec-2016

 ------------------
 #p CCSD(T)/CEP-31G
 ------------------

 ------------
 H2O_H2O_3531
 ------------
 Symbolic Z-matrix:
 Charge =  0 Multiplicity = 1

                         Standard orientation:
 ---------------------------------------------------------------------
 Center     Atomic      Atomic             Coordinates (Angstroms)
 Number     Number       Type             X           Y           Z
 ---------------------------------------------------------------------
      1          8           0        0.021859   -2.673617    0.000000
      2          1           0       -0.778113   -3.244187    0.000000
      3          1           0        0.821029   -3.245310    0.000000
      4          8           0        0.021859    2.682281    0.000000
      5          1           0        0.542590    3.515555    0.000000
      6          1           0       -0.935255    2.904627    0.000000
 ---------------------------------------------------------------------

 SCF Done:  E(RHF) =  -33.6500106178     A.U. after   11 cycles
 E2 =    -0.2284816049D+00 EUMP2 =    -0.33878492222655D+02
 CCSD(T)
 CCSD(T)= -0.33895543778D+02

 The electronic state is 1-A'.
 Alpha  occ. eigenvalues --   -1.34838  -1.34746  -0.70464  -0.70369  -0.54472
 Alpha  occ. eigenvalues --   -0.54380  -0.49383  -0.49292
 Alpha virt. eigenvalues --    0.20832   0.20932   0.31066   0.31154   0.81169
 Alpha virt. eigenvalues --    0.81261   0.84191   0.84645   0.87405   0.87531
 Alpha virt. eigenvalues --    1.17989   1.18079   1.22462   1.22552   2.58048

 Mulliken charges:
               1
     1  O   -0.734865
     2  H    0.366528
     3  H    0.368336
     4  O   -0.734657
     5  H    0.366086
     6  H    0.368570
 Sum of Mulliken charges =   0.00000

 Dipole moment (field-independent basis, Debye):
    X=             -1.0068    Y=             -0.2039    Z=              0.0000  Tot=              1.0272
 Quadrupole moment (field-independent basis, Debye-Ang):
   XX=             -8.3576   YY=             15.5528   ZZ=            -14.9862
   XY=             -2.0928   XZ=              0.0000   YZ=              0.0000

 \MP4DQ=-33.8898855\MP4SDQ=-33.8919181\CCSD=-33.8929764\CCSD(T)=-33.895
 Normal termination of Gaussian 16 at Sun Dec 10 06:43:27 2023.
