 Gaussian 16, Revision A.03,
 Gaussian 16:  ES64L-G16RevA.03 25-Dec-2016

 ------------------
 #p CCSD(T)/CEP-31G
 ------------------

 ------------
 H2O_H2O_2066
 ------------
 Symbolic Z-matrix:
 Charge =  0 Multiplicity = 1

                         Standard orientation:
 ---------------------------------------------------------------------
 Center     Atomic      Atomic             Coordinates (Angstroms)
 Number     Number       Type             X           Y           Z
 ---------------------------------------------------------------------
      1          8           0        0.049526   -1.862965    0.000000
      2          1           0       -0.751329   -2.432295    0.000000
      3          1           0        0.847809   -2.435895    0.000000
      4          8           0        0.049526    1.919855    0.000000
      5          1           0       -0.043101    2.898082    0.000000
      6          1           0       -0.845788    1.514986    0.000000
 ---------------------------------------------------------------------

 SCF Done:  E(RHF) =  -33.6500278730     A.U. after   11 cycles
 E2 =    -0.2286887091D+00 EUMP2 =    -0.33878716582162D+02
 CCSD(T)
 CCSD(T)= -0.33895779990D+02

 The electronic state is 1-A'.
 Alpha  occ. eigenvalues --   -1.35072  -1.33810  -0.70705  -0.69381  -0.54719
 Alpha  occ. eigenvalues --   -0.53407  -0.49619  -0.48362
 Alpha virt. eigenvalues --    0.20103   0.22339   0.30774   0.32113   0.77719
 Alpha virt. eigenvalues --    0.80525   0.82581   0.85870   0.87394   0.96919
 Alpha virt. eigenvalues --    1.17742   1.19379   1.22133   1.23883   2.57273

 Mulliken charges:
               1
     1  O   -0.735052
     2  H    0.362552
     3  H    0.372893
     4  O   -0.731538
     5  H    0.357046
     6  H    0.374099
 Sum of Mulliken charges =   0.00000

 Dipole moment (field-independent basis, Debye):
    X=             -2.2538    Y=             -1.3837    Z=              0.0000  Tot=              2.6446
 Quadrupole moment (field-independent basis, Debye-Ang):
   XX=             -9.6305   YY=              4.2050   ZZ=            -14.9881
   XY=             -3.7558   XZ=              0.0000   YZ=              0.0000

 \MP4DQ=-33.8900993\MP4SDQ=-33.8921489\CCSD=-33.8931968\CCSD(T)=-33.895
 Normal termination of Gaussian 16 at Sun Dec 10 07:04:35 2023.
