 Gaussian 16, Revision A.03,
 Gaussian 16:  ES64L-G16RevA.03 25-Dec-2016

 ------------------
 #p CCSD(T)/CEP-31G
 ------------------

 -----------
 H2O_H2O_804
 -----------
 Symbolic Z-matrix:
 Charge =  0 Multiplicity = 1

                         Standard orientation:
 ---------------------------------------------------------------------
 Center     Atomic      Atomic             Coordinates (Angstroms)
 Number     Number       Type             X           Y           Z
 ---------------------------------------------------------------------
      1          8           0        0.014784   -1.226970    0.000000
      2          1           0       -0.785378   -1.797274    0.000000
      3          1           0        0.813763   -1.798930    0.000000
      4          8           0        0.014784    1.230832    0.000000
      5          1           0        0.640076    1.988800    0.000000
      6          1           0       -0.905006    1.576512    0.000000
 ---------------------------------------------------------------------

 SCF Done:  E(RHF) =  -33.6293592410     A.U. after   11 cycles
 E2 =    -0.2301398089D+00 EUMP2 =    -0.33859499049852D+02
 CCSD(T)
 CCSD(T)= -0.33876921450D+02

 The electronic state is 1-A'.
 Alpha  occ. eigenvalues --   -1.32804  -1.31966  -0.68313  -0.67664  -0.54993
 Alpha  occ. eigenvalues --   -0.47541  -0.47424  -0.45942
 Alpha virt. eigenvalues --    0.21426   0.24340   0.32655   0.32947   0.79313
 Alpha virt. eigenvalues --    0.79470   0.89015   0.90258   1.03593   1.10953
 Alpha virt. eigenvalues --    1.19707   1.22038   1.24195   1.25600   2.54896

 Mulliken charges:
               1
     1  O   -0.702619
     2  H    0.345773
     3  H    0.355705
     4  O   -0.697692
     5  H    0.349012
     6  H    0.349821
 Sum of Mulliken charges =  -0.00000

 Dipole moment (field-independent basis, Debye):
    X=             -0.6266    Y=             -0.0926    Z=              0.0000  Tot=              0.6334
 Quadrupole moment (field-independent basis, Debye-Ang):
   XX=             -8.3821   YY=             -0.2806   ZZ=            -14.9972
   XY=             -0.4648   XZ=              0.0000   YZ=              0.0000

 P4DQ=-33.8709821\MP4SDQ=-33.873099\CCSD=-33.8741897\CCSD(T)=-33.876921
 Normal termination of Gaussian 16 at Sun Dec 10 06:39:47 2023.
