 Gaussian 16, Revision A.03,
 Gaussian 16:  ES64L-G16RevA.03 25-Dec-2016

 ------------------
 #p CCSD(T)/CEP-31G
 ------------------

 ------------
 H2O_H2O_2686
 ------------
 Symbolic Z-matrix:
 Charge =  0 Multiplicity = 1

                         Standard orientation:
 ---------------------------------------------------------------------
 Center     Atomic      Atomic             Coordinates (Angstroms)
 Number     Number       Type             X           Y           Z
 ---------------------------------------------------------------------
      1          8           0        0.037678   -2.210925    0.000000
      2          1           0       -0.762724   -2.780892    0.000000
      3          1           0        0.836416   -2.783221    0.000000
      4          8           0        0.037678    2.239162    0.000000
      5          1           0        0.263647    3.195428    0.000000
      6          1           0       -0.940187    2.142792    0.000000
 ---------------------------------------------------------------------

 SCF Done:  E(RHF) =  -33.6494967221     A.U. after   11 cycles
 E2 =    -0.2285537232D+00 EUMP2 =    -0.33878050445288D+02
 CCSD(T)
 CCSD(T)= -0.33895117857D+02

 The electronic state is 1-A'.
 Alpha  occ. eigenvalues --   -1.34788  -1.34350  -0.70415  -0.69957  -0.54399
 Alpha  occ. eigenvalues --   -0.53940  -0.49326  -0.48890
 Alpha virt. eigenvalues --    0.20758   0.21391   0.31087   0.31510   0.81171
 Alpha virt. eigenvalues --    0.81707   0.82380   0.85912   0.87516   0.89299
 Alpha virt. eigenvalues --    1.18018   1.18456   1.22492   1.22938   2.58087

 Mulliken charges:
               1
     1  O   -0.733208
     2  H    0.364049
     3  H    0.369182
     4  O   -0.731923
     5  H    0.362268
     6  H    0.369631
 Sum of Mulliken charges =  -0.00000

 Dipole moment (field-independent basis, Debye):
    X=             -1.7273    Y=             -0.6729    Z=              0.0000  Tot=              1.8538
 Quadrupole moment (field-independent basis, Debye-Ang):
   XX=             -8.9724   YY=              9.3523   ZZ=            -14.9862
   XY=             -3.0761   XZ=              0.0000   YZ=              0.0000

 \MP4DQ=-33.8894531\MP4SDQ=-33.891489\CCSD=-33.892546\CCSD(T)=-33.89511
 Normal termination of Gaussian 16 at Sun Dec 10 06:28:12 2023.
