 Gaussian 16, Revision A.03,
 Gaussian 16:  ES64L-G16RevA.03 25-Dec-2016

 ------------------
 #p CCSD(T)/CEP-31G
 ------------------

 -----------
 H2O_H2O_459
 -----------
 Symbolic Z-matrix:
 Charge =  0 Multiplicity = 1

                         Standard orientation:
 ---------------------------------------------------------------------
 Center     Atomic      Atomic             Coordinates (Angstroms)
 Number     Number       Type             X           Y           Z
 ---------------------------------------------------------------------
      1          8           0        0.031756   -1.032558    0.000000
      2          1           0       -0.769310   -1.601592    0.000000
      3          1           0        0.829827   -1.605784    0.000000
      4          8           0        0.031756    1.051642    0.000000
      5          1           0        0.381678    1.969825    0.000000
      6          1           0       -0.950284    1.084877    0.000000
 ---------------------------------------------------------------------

 SCF Done:  E(RHF) =  -33.6075835663     A.U. after   11 cycles
 E2 =    -0.2317411753D+00 EUMP2 =    -0.33839324741571D+02
 CCSD(T)
 CCSD(T)= -0.33856612682D+02

 The electronic state is 1-A'.
 Alpha  occ. eigenvalues --   -1.33561  -1.30881  -0.68963  -0.67062  -0.57254
 Alpha  occ. eigenvalues --   -0.48437  -0.44697  -0.43867
 Alpha virt. eigenvalues --    0.20974   0.26065   0.32304   0.33236   0.80062
 Alpha virt. eigenvalues --    0.81584   0.90038   0.98332   0.99447   1.15964
 Alpha virt. eigenvalues --    1.19607   1.23487   1.25335   1.29884   2.50842

 Mulliken charges:
               1
     1  O   -0.725385
     2  H    0.342445
     3  H    0.371704
     4  O   -0.682364
     5  H    0.348141
     6  H    0.345460
 Sum of Mulliken charges =   0.00000

 Dipole moment (field-independent basis, Debye):
    X=             -1.2646    Y=             -0.4539    Z=              0.0000  Tot=              1.3436
 Quadrupole moment (field-independent basis, Debye-Ang):
   XX=             -8.8962   YY=             -3.2889   ZZ=            -15.0077
   XY=             -0.9005   XZ=              0.0000   YZ=              0.0000

 4DQ=-33.8504615\MP4SDQ=-33.8527047\CCSD=-33.853723\CCSD(T)=-33.8566127
 Normal termination of Gaussian 16 at Sun Dec 10 06:33:21 2023.
