 Gaussian 16, Revision A.03,
 Gaussian 16:  ES64L-G16RevA.03 25-Dec-2016

 ------------------
 #p CCSD(T)/CEP-31G
 ------------------

 -----------
 H2O_H2O_295
 -----------
 Symbolic Z-matrix:
 Charge =  0 Multiplicity = 1

                         Standard orientation:
 ---------------------------------------------------------------------
 Center     Atomic      Atomic             Coordinates (Angstroms)
 Number     Number       Type             X           Y           Z
 ---------------------------------------------------------------------
      1          8           0        0.055379   -0.904168    0.000000
      2          1           0       -0.747049   -1.471280    0.000000
      3          1           0        0.852073   -1.479306    0.000000
      4          8           0        0.055379    0.988276    0.000000
      5          1           0       -0.284726    1.910140    0.000000
      6          1           0       -0.706361    0.367584    0.000000
 ---------------------------------------------------------------------

 SCF Done:  E(RHF) =  -33.5703396444     A.U. after   11 cycles
 E2 =    -0.2333257154D+00 EUMP2 =    -0.33803665359737D+02
 CCSD(T)
 CCSD(T)= -0.33820234229D+02

 The electronic state is 1-A'.
 Alpha  occ. eigenvalues --   -1.38599  -1.29410  -0.74965  -0.70354  -0.52472
 Alpha  occ. eigenvalues --   -0.52046  -0.46398  -0.43779
 Alpha virt. eigenvalues --    0.19235   0.28970   0.29332   0.35523   0.78660
 Alpha virt. eigenvalues --    0.84224   0.90047   0.95022   0.99143   1.16313
 Alpha virt. eigenvalues --    1.19944   1.23920   1.30701   1.33212   2.69653

 Mulliken charges:
               1
     1  O   -0.795447
     2  H    0.360055
     3  H    0.424417
     4  O   -0.663485
     5  H    0.304522
     6  H    0.369938
 Sum of Mulliken charges =  -0.00000

 Dipole moment (field-independent basis, Debye):
    X=             -2.1086    Y=             -2.2624    Z=              0.0000  Tot=              3.0927
 Quadrupole moment (field-independent basis, Debye-Ang):
   XX=            -10.0029   YY=             -6.4154   ZZ=            -14.9703
   XY=             -2.2154   XZ=              0.0000   YZ=              0.0000

 MP4DQ=-33.8137863\MP4SDQ=-33.8162441\CCSD=-33.8170368\CCSD(T)=-33.8202
 Normal termination of Gaussian 16 at Sun Dec 10 06:30:17 2023.
