 Gaussian 16, Revision A.03,
 Gaussian 16:  ES64L-G16RevA.03 25-Dec-2016

 ------------------
 #p CCSD(T)/CEP-31G
 ------------------

 ------------
 H2O_H2O_1334
 ------------
 Symbolic Z-matrix:
 Charge =  0 Multiplicity = 1

                         Standard orientation:
 ---------------------------------------------------------------------
 Center     Atomic      Atomic             Coordinates (Angstroms)
 Number     Number       Type             X           Y           Z
 ---------------------------------------------------------------------
      1          8           0        0.031748   -1.497888    0.000000
      2          1           0       -0.768857   -2.067570    0.000000
      3          1           0        0.830283   -2.070468    0.000000
      4          8           0        0.031748    1.517024    0.000000
      5          1           0        0.380928    2.435490    0.000000
      6          1           0       -0.950318    1.549464    0.000000
 ---------------------------------------------------------------------

 SCF Done:  E(RHF) =  -33.6429549715     A.U. after   11 cycles
 E2 =    -0.2292549190D+00 EUMP2 =    -0.33872209890561D+02
 CCSD(T)
 CCSD(T)= -0.33889527795D+02

 The electronic state is 1-A'.
 Alpha  occ. eigenvalues --   -1.33752  -1.33098  -0.69372  -0.68688  -0.53919
 Alpha  occ. eigenvalues --   -0.51441  -0.48285  -0.47488
 Alpha virt. eigenvalues --    0.20816   0.23190   0.31862   0.32398   0.77337
 Alpha virt. eigenvalues --    0.79705   0.83238   0.85772   0.94081   1.11805
 Alpha virt. eigenvalues --    1.18808   1.20765   1.23533   1.24046   2.59554

 Mulliken charges:
               1
     1  O   -0.716668
     2  H    0.352070
     3  H    0.364191
     4  O   -0.710086
     5  H    0.349337
     6  H    0.361156
 Sum of Mulliken charges =   0.00000

 Dipole moment (field-independent basis, Debye):
    X=             -1.4150    Y=             -0.4772    Z=              0.0000  Tot=              1.4933
 Quadrupole moment (field-independent basis, Debye-Ang):
   XX=             -8.7802   YY=              2.6671   ZZ=            -14.9855
   XY=             -1.5178   XZ=              0.0000   YZ=              0.0000

 MP4DQ=-33.883727\MP4SDQ=-33.8858237\CCSD=-33.8868929\CCSD(T)=-33.88952
 Normal termination of Gaussian 16 at Sun Dec 10 06:49:41 2023.
