 Gaussian 16, Revision A.03,
 Gaussian 16:  ES64L-G16RevA.03 25-Dec-2016

 ------------------
 #p CCSD(T)/CEP-31G
 ------------------

 -----------
 H2O_H2O_569
 -----------
 Symbolic Z-matrix:
 Charge =  0 Multiplicity = 1

                         Standard orientation:
 ---------------------------------------------------------------------
 Center     Atomic      Atomic             Coordinates (Angstroms)
 Number     Number       Type             X           Y           Z
 ---------------------------------------------------------------------
      1          8           0        0.054247   -1.054258    0.000000
      2          1           0       -0.747750   -1.621979    0.000000
      3          1           0        0.851377   -1.628792    0.000000
      4          8           0        0.054247    1.131306    0.000000
      5          1           0       -0.225552    2.073230    0.000000
      6          1           0       -0.746025    0.561157    0.000000
 ---------------------------------------------------------------------

 SCF Done:  E(RHF) =  -33.6254142877     A.U. after   11 cycles
 E2 =    -0.2313619997D+00 EUMP2 =    -0.33856776287355D+02
 CCSD(T)
 CCSD(T)= -0.33873797870D+02

 The electronic state is 1-A'.
 Alpha  occ. eigenvalues --   -1.36073  -1.30799  -0.71872  -0.68516  -0.53963
 Alpha  occ. eigenvalues --   -0.50613  -0.49402  -0.45179
 Alpha virt. eigenvalues --    0.19479   0.27234   0.30243   0.34805   0.77889
 Alpha virt. eigenvalues --    0.84587   0.89617   0.95125   0.98196   1.14083
 Alpha virt. eigenvalues --    1.18901   1.21803   1.25962   1.31583   2.66164

 Mulliken charges:
               1
     1  O   -0.773729
     2  H    0.358384
     3  H    0.403785
     4  O   -0.686492
     5  H    0.325136
     6  H    0.372918
 Sum of Mulliken charges =   0.00000

 Dipole moment (field-independent basis, Debye):
    X=             -2.2138    Y=             -1.9903    Z=              0.0000  Tot=              2.9769
 Quadrupole moment (field-independent basis, Debye-Ang):
   XX=             -9.9366   YY=             -4.1906   ZZ=            -14.9980
   XY=             -2.4893   XZ=              0.0000   YZ=              0.0000

 MP4DQ=-33.8676718\MP4SDQ=-33.8699359\CCSD=-33.8708967\CCSD(T)=-33.8737
 Normal termination of Gaussian 16 at Sun Dec 10 06:35:23 2023.
