 Gaussian 16, Revision A.03,
 Gaussian 16:  ES64L-G16RevA.03 25-Dec-2016

 ------------------
 #p CCSD(T)/CEP-31G
 ------------------

 ------------
 H2O_H2O_4506
 ------------
 Symbolic Z-matrix:
 Charge =  0 Multiplicity = 1

                         Standard orientation:
 ---------------------------------------------------------------------
 Center     Atomic      Atomic             Coordinates (Angstroms)
 Number     Number       Type             X           Y           Z
 ---------------------------------------------------------------------
      1          8           0        0.021859   -3.192154    0.000000
      2          1           0       -0.778048   -3.762816    0.000000
      3          1           0        0.821093   -3.763757    0.000000
      4          8           0        0.021859    3.200824    0.000000
      5          1           0        0.542494    4.034157    0.000000
      6          1           0       -0.935281    3.423061    0.000000
 ---------------------------------------------------------------------

 SCF Done:  E(RHF) =  -33.6507534146     A.U. after   11 cycles
 E2 =    -0.2284344222D+00 EUMP2 =    -0.33879187836780D+02
 CCSD(T)
 CCSD(T)= -0.33896217991D+02

 The electronic state is 1-A'.
 Alpha  occ. eigenvalues --   -1.35063  -1.35000  -0.70691  -0.70626  -0.54741
 Alpha  occ. eigenvalues --   -0.54677  -0.49619  -0.49556
 Alpha virt. eigenvalues --    0.20651   0.20715   0.30883   0.30945   0.80935
 Alpha virt. eigenvalues --    0.80997   0.84059   0.84122   0.87133   0.87208
 Alpha virt. eigenvalues --    1.17794   1.17857   1.22260   1.22324   2.57836

 Mulliken charges:
               1
     1  O   -0.737433
     2  H    0.368163
     3  H    0.369270
     4  O   -0.737341
     5  H    0.367870
     6  H    0.369472
 Sum of Mulliken charges =  -0.00000

 Dipole moment (field-independent basis, Debye):
    X=             -1.0091    Y=             -0.2027    Z=              0.0000  Tot=              1.0292
 Quadrupole moment (field-independent basis, Debye-Ang):
   XX=             -8.3475   YY=             20.9006   ZZ=            -14.9870
   XY=             -2.6069   XZ=              0.0000   YZ=              0.0000

 \MP4DQ=-33.8905658\MP4SDQ=-33.8925962\CCSD=-33.8936536\CCSD(T)=-33.896
 Normal termination of Gaussian 16 at Sun Dec 10 07:02:04 2023.
