 Gaussian 16, Revision A.03,
 Gaussian 16:  ES64L-G16RevA.03 25-Dec-2016

 ------------------
 #p CCSD(T)/CEP-31G
 ------------------

 ------------
 H2O_H2O_1736
 ------------
 Symbolic Z-matrix:
 Charge =  0 Multiplicity = 1

                         Standard orientation:
 ---------------------------------------------------------------------
 Center     Atomic      Atomic             Coordinates (Angstroms)
 Number     Number       Type             X           Y           Z
 ---------------------------------------------------------------------
      1          8           0        0.037684   -1.705697    0.000000
      2          1           0       -0.762962   -2.275321    0.000000
      3          1           0        0.836177   -2.278335    0.000000
      4          8           0        0.037684    1.733902    0.000000
      5          1           0        0.264063    2.690071    0.000000
      6          1           0       -0.940223    1.637951    0.000000
 ---------------------------------------------------------------------

 SCF Done:  E(RHF) =  -33.6468393553     A.U. after   11 cycles
 E2 =    -0.2289167116D+00 EUMP2 =    -0.33875756066890D+02
 CCSD(T)
 CCSD(T)= -0.33892931527D+02

 The electronic state is 1-A'.
 Alpha  occ. eigenvalues --   -1.34332  -1.33584  -0.69958  -0.69166  -0.54023
 Alpha  occ. eigenvalues --   -0.52775  -0.48847  -0.48083
 Alpha virt. eigenvalues --    0.20572   0.22540   0.31409   0.32115   0.75755
 Alpha virt. eigenvalues --    0.80451   0.83730   0.85190   0.90007   1.03850
 Alpha virt. eigenvalues --    1.18358   1.19531   1.22893   1.23718   2.58067

 Mulliken charges:
               1
     1  O   -0.724975
     2  H    0.357503
     3  H    0.367709
     4  O   -0.720885
     5  H    0.353750
     6  H    0.366898
 Sum of Mulliken charges =   0.00000

 Dipole moment (field-independent basis, Debye):
    X=             -1.7037    Y=             -0.6960    Z=              0.0000  Tot=              1.8404
 Quadrupole moment (field-independent basis, Debye-Ang):
   XX=             -9.0007   YY=              4.4548   ZZ=            -14.9854
   XY=             -2.2423   XZ=              0.0000   YZ=              0.0000

 MP4DQ=-33.8872039\MP4SDQ=-33.8892746\CCSD=-33.8903284\CCSD(T)=-33.8929
 Normal termination of Gaussian 16 at Sun Dec 10 06:57:09 2023.
