 Gaussian 16, Revision A.03,
 Gaussian 16:  ES64L-G16RevA.03 25-Dec-2016

 ------------------
 #p CCSD(T)/CEP-31G
 ------------------

 ------------
 H2O_H2O_2855
 ------------
 Symbolic Z-matrix:
 Charge =  0 Multiplicity = 1

                         Standard orientation:
 ---------------------------------------------------------------------
 Center     Atomic      Atomic             Coordinates (Angstroms)
 Number     Number       Type             X           Y           Z
 ---------------------------------------------------------------------
      1          8           0        0.018360   -2.316054    0.000000
      2          1           0       -0.781600   -2.886641    0.000000
      3          1           0        0.817542   -2.887731    0.000000
      4          8           0        0.018360    2.322091    0.000000
      5          1           0        0.592458    3.119535    0.000000
      6          1           0       -0.922168    2.606540    0.000000
 ---------------------------------------------------------------------

 SCF Done:  E(RHF) =  -33.6489734577     A.U. after   11 cycles
 E2 =    -0.2285507047D+00 EUMP2 =    -0.33877524162367D+02
 CCSD(T)
 CCSD(T)= -0.33894605942D+02

 The electronic state is 1-A'.
 Alpha  occ. eigenvalues --   -1.34564  -1.34478  -0.70188  -0.70098  -0.54163
 Alpha  occ. eigenvalues --   -0.54021  -0.49094  -0.49008
 Alpha virt. eigenvalues --    0.20980   0.21212   0.31280   0.31365   0.81394
 Alpha virt. eigenvalues --    0.81603   0.83226   0.86238   0.87690   0.88155
 Alpha virt. eigenvalues --    1.18220   1.18304   1.22700   1.22793   2.58297

 Mulliken charges:
               1
     1  O   -0.731320
     2  H    0.364536
     3  H    0.366787
     4  O   -0.731034
     5  H    0.364061
     6  H    0.366970
 Sum of Mulliken charges =   0.00000

 Dipole moment (field-independent basis, Debye):
    X=             -0.8430    Y=             -0.1434    Z=              0.0000  Tot=              0.8551
 Quadrupole moment (field-independent basis, Debye-Ang):
   XX=             -8.2814   YY=             12.0262   ZZ=            -14.9853
   XY=             -1.4475   XZ=              0.0000   YZ=              0.0000

 \MP4DQ=-33.8889384\MP4SDQ=-33.8909745\CCSD=-33.8920338\CCSD(T)=-33.894
 Normal termination of Gaussian 16 at Sun Dec 10 06:31:22 2023.
