 Gaussian 16, Revision A.03,
 Gaussian 16:  ES64L-G16RevA.03 25-Dec-2016

 ------------------
 #p CCSD(T)/CEP-31G
 ------------------

 ------------
 H2O_H2O_2743
 ------------
 Symbolic Z-matrix:
 Charge =  0 Multiplicity = 1

                         Standard orientation:
 ---------------------------------------------------------------------
 Center     Atomic      Atomic             Coordinates (Angstroms)
 Number     Number       Type             X           Y           Z
 ---------------------------------------------------------------------
      1          8           0        0.052837   -2.214672    0.000000
      2          1           0       -0.747886   -2.784189    0.000000
      3          1           0        0.851253   -2.787417    0.000000
      4          8           0        0.052837    2.284973    0.000000
      5          1           0       -0.166904    3.242689    0.000000
      6          1           0       -0.781852    1.766512    0.000000
 ---------------------------------------------------------------------

 SCF Done:  E(RHF) =  -33.6512303658     A.U. after   11 cycles
 E2 =    -0.2284818716D+00 EUMP2 =    -0.33879712237436D+02
 CCSD(T)
 CCSD(T)= -0.33896729527D+02

 The electronic state is 1-A'.
 Alpha  occ. eigenvalues --   -1.35371  -1.34293  -0.71004  -0.69887  -0.55075
 Alpha  occ. eigenvalues --   -0.53981  -0.49934  -0.48859
 Alpha virt. eigenvalues --    0.20223   0.21597   0.30586   0.31695   0.80605
 Alpha virt. eigenvalues --    0.81687   0.82399   0.85306   0.86758   0.88997
 Alpha virt. eigenvalues --    1.17506   1.18626   1.21935   1.23167   2.57541

 Mulliken charges:
               1
     1  O   -0.739232
     2  H    0.366245
     3  H    0.373061
     4  O   -0.737625
     5  H    0.362318
     6  H    0.375232
 Sum of Mulliken charges =   0.00000

 Dipole moment (field-independent basis, Debye):
    X=             -2.4236    Y=             -1.6752    Z=              0.0000  Tot=              2.9462
 Quadrupole moment (field-independent basis, Debye-Ang):
   XX=             -9.8458   YY=              5.9297   ZZ=            -14.9887
   XY=             -5.0787   XZ=              0.0000   YZ=              0.0000

 \MP4DQ=-33.8910776\MP4SDQ=-33.8931097\CCSD=-33.8941625\CCSD(T)=-33.896
 Normal termination of Gaussian 16 at Sun Dec 10 06:29:16 2023.
