 Gaussian 16, Revision A.03,
 Gaussian 16:  ES64L-G16RevA.03 25-Dec-2016

 ------------------
 #p CCSD(T)/CEP-31G
 ------------------

 ------------
 H2O_H2O_4635
 ------------
 Symbolic Z-matrix:
 Charge =  0 Multiplicity = 1

                         Standard orientation:
 ---------------------------------------------------------------------
 Center     Atomic      Atomic             Coordinates (Angstroms)
 Number     Number       Type             X           Y           Z
 ---------------------------------------------------------------------
      1          8           0        0.034779   -3.250557    0.000000
      2          1           0       -0.765316   -3.820955    0.000000
      3          1           0        0.833826   -3.822422    0.000000
      4          8           0        0.034779    3.274098    0.000000
      5          1           0        0.322301    4.213692    0.000000
      6          1           0       -0.947277    3.241361    0.000000
 ---------------------------------------------------------------------

 SCF Done:  E(RHF) =  -33.6510024868     A.U. after   11 cycles
 E2 =    -0.2284230310D+00 EUMP2 =    -0.33879425517760D+02
 CCSD(T)
 CCSD(T)= -0.33896448515D+02

 The electronic state is 1-A'.
 Alpha  occ. eigenvalues --   -1.35181  -1.35016  -0.70811  -0.70641  -0.54872
 Alpha  occ. eigenvalues --   -0.54707  -0.49741  -0.49576
 Alpha virt. eigenvalues --    0.20547   0.20715   0.30781   0.30944   0.80812
 Alpha virt. eigenvalues --    0.80976   0.83913   0.84075   0.86996   0.87186
 Alpha virt. eigenvalues --    1.17687   1.17851   1.22151   1.22316   2.57723

 Mulliken charges:
               1
     1  O   -0.738321
     2  H    0.368335
     3  H    0.369986
     4  O   -0.738129
     5  H    0.367781
     6  H    0.370348
 Sum of Mulliken charges =   0.00000

 Dipole moment (field-independent basis, Debye):
    X=             -1.6058    Y=             -0.5501    Z=              0.0000  Tot=              1.6974
 Quadrupole moment (field-independent basis, Debye-Ang):
   XX=             -8.8218   YY=             19.7373   ZZ=            -14.9873
   XY=             -4.4196   XZ=              0.0000   YZ=              0.0000

 \MP4DQ=-33.8907983\MP4SDQ=-33.892828\CCSD=-33.8938849\CCSD(T)=-33.8964
 Normal termination of Gaussian 16 at Sun Dec 10 07:05:05 2023.
