 Gaussian 16, Revision A.03,
 Gaussian 16:  ES64L-G16RevA.03 25-Dec-2016

 ------------------
 #p CCSD(T)/CEP-31G
 ------------------

 -----------
 H2O_H2O_819
 -----------
 Symbolic Z-matrix:
 Charge =  0 Multiplicity = 1

                         Standard orientation:
 ---------------------------------------------------------------------
 Center     Atomic      Atomic             Coordinates (Angstroms)
 Number     Number       Type             X           Y           Z
 ---------------------------------------------------------------------
      1          8           0        0.054229   -1.187192    0.000000
      2          1           0       -0.747505   -1.755283    0.000000
      3          1           0        0.851625   -1.761356    0.000000
      4          8           0        0.054229    1.264290    0.000000
      5          1           0       -0.226005    2.206083    0.000000
      6          1           0       -0.745780    0.693770    0.000000
 ---------------------------------------------------------------------

 SCF Done:  E(RHF) =  -33.6419956134     A.U. after   11 cycles
 E2 =    -0.2303579167D+00 EUMP2 =    -0.33872353530132D+02
 CCSD(T)
 CCSD(T)= -0.33889489785D+02

 The electronic state is 1-A'.
 Alpha  occ. eigenvalues --   -1.35603  -1.31564  -0.71287  -0.67970  -0.54698
 Alpha  occ. eigenvalues --   -0.50827  -0.50193  -0.46039
 Alpha virt. eigenvalues --    0.19500   0.26187   0.30429   0.34410   0.77561
 Alpha virt. eigenvalues --    0.83365   0.88523   0.90767   0.95153   1.14738
 Alpha virt. eigenvalues --    1.19500   1.20756   1.23638   1.30434   2.68051

 Mulliken charges:
               1
     1  O   -0.757641
     2  H    0.358282
     3  H    0.394100
     4  O   -0.706457
     5  H    0.333785
     6  H    0.377930
 Sum of Mulliken charges =  -0.00000

 Dipole moment (field-independent basis, Debye):
    X=             -2.3053    Y=             -1.9769    Z=              0.0000  Tot=              3.0368
 Quadrupole moment (field-independent basis, Debye-Ang):
   XX=             -9.9314   YY=             -2.7574   ZZ=            -14.9988
   XY=             -2.8361   XZ=              0.0000   YZ=              0.0000

 MP4DQ=-33.8835185\MP4SDQ=-33.8857051\CCSD=-33.8867197\CCSD(T)=-33.8894
 Normal termination of Gaussian 16 at Sun Dec 10 06:40:04 2023.
