 Gaussian 16, Revision A.03,
 Gaussian 16:  ES64L-G16RevA.03 25-Dec-2016

 ------------------
 #p CCSD(T)/CEP-31G
 ------------------

 -----------
 H2O_H2O_180
 -----------
 Symbolic Z-matrix:
 Charge =  0 Multiplicity = 1

                         Standard orientation:
 ---------------------------------------------------------------------
 Center     Atomic      Atomic             Coordinates (Angstroms)
 Number     Number       Type             X           Y           Z
 ---------------------------------------------------------------------
      1          8           0        0.018364   -0.893412    0.000000
      2          1           0       -0.782213   -1.463134    0.000000
      3          1           0        0.816926   -1.465953    0.000000
      4          8           0        0.018364    0.899410    0.000000
      5          1           0        0.593324    1.696232    0.000000
      6          1           0       -0.921856    1.184876    0.000000
 ---------------------------------------------------------------------

 SCF Done:  E(RHF) =  -33.5433559652     A.U. after   11 cycles
 E2 =    -0.2352523878D+00 EUMP2 =    -0.33778608353040D+02
 CCSD(T)
 CCSD(T)= -0.33795404859D+02

 The electronic state is 1-A'.
 Alpha  occ. eigenvalues --   -1.34971  -1.29483  -0.69576  -0.66304  -0.61991
 Alpha  occ. eigenvalues --   -0.49866  -0.43026  -0.36311
 Alpha virt. eigenvalues --    0.21218   0.27501   0.32170   0.33612   0.80417
 Alpha virt. eigenvalues --    0.81782   0.89765   0.91081   1.04391   1.19981
 Alpha virt. eigenvalues --    1.22431   1.23228   1.27764   1.33390   2.49495

 Mulliken charges:
               1
     1  O   -0.706813
     2  H    0.338001
     3  H    0.364547
     4  O   -0.688121
     5  H    0.349361
     6  H    0.343025
 Sum of Mulliken charges =  -0.00000

 Dipole moment (field-independent basis, Debye):
    X=             -0.6795    Y=             -0.1549    Z=              0.0000  Tot=              0.6969
 Quadrupole moment (field-independent basis, Debye-Ang):
   XX=             -8.6140   YY=             -5.9837   ZZ=            -15.0268
   XY=             -0.4031   XZ=              0.0000   YZ=              0.0000

 4DQ=-33.7888437\MP4SDQ=-33.7913718\CCSD=-33.7921679\CCSD(T)=-33.795404
 Normal termination of Gaussian 16 at Sun Dec 10 06:28:06 2023.
