 Gaussian 16, Revision A.03,
 Gaussian 16:  ES64L-G16RevA.03 25-Dec-2016

 ------------------
 #p CCSD(T)/CEP-31G
 ------------------

 ------------
 H2O_H2O_2641
 ------------
 Symbolic Z-matrix:
 Charge =  0 Multiplicity = 1

                         Standard orientation:
 ---------------------------------------------------------------------
 Center     Atomic      Atomic             Coordinates (Angstroms)
 Number     Number       Type             X           Y           Z
 ---------------------------------------------------------------------
      1          8           0        0.049517   -2.168754    0.000000
      2          1           0       -0.751160   -2.738336    0.000000
      3          1           0        0.847979   -2.741435    0.000000
      4          8           0        0.049517    2.225676    0.000000
      5          1           0       -0.043417    3.203873    0.000000
      6          1           0       -0.845670    1.820527    0.000000
 ---------------------------------------------------------------------

 SCF Done:  E(RHF) =  -33.6506241000     A.U. after   11 cycles
 E2 =    -0.2285192762D+00 EUMP2 =    -0.33879143376271D+02
 CCSD(T)
 CCSD(T)= -0.33896178599D+02

 The electronic state is 1-A'.
 Alpha  occ. eigenvalues --   -1.35176  -1.34261  -0.70807  -0.69855  -0.54846
 Alpha  occ. eigenvalues --   -0.53917  -0.49729  -0.48818
 Alpha virt. eigenvalues --    0.20373   0.21601   0.30747   0.31679   0.80788
 Alpha virt. eigenvalues --    0.81752   0.81978   0.85532   0.87015   0.89693
 Alpha virt. eigenvalues --    1.17676   1.18628   1.22110   1.23135   2.57719

 Mulliken charges:
               1
     1  O   -0.737142
     2  H    0.365162
     3  H    0.372050
     4  O   -0.735288
     5  H    0.361703
     6  H    0.373515
 Sum of Mulliken charges =  -0.00000

 Dipole moment (field-independent basis, Debye):
    X=             -2.2692    Y=             -1.3586    Z=              0.0000  Tot=              2.6449
 Quadrupole moment (field-independent basis, Debye-Ang):
   XX=             -9.6286   YY=              6.7249   ZZ=            -14.9879
   XY=             -4.4312   XZ=              0.0000   YZ=              0.0000

 1\MP4DQ=-33.8905215\MP4SDQ=-33.8925555\CCSD=-33.8936092\CCSD(T)=-33.89
 Normal termination of Gaussian 16 at Sun Dec 10 06:27:21 2023.
