 Gaussian 16, Revision A.03,
 Gaussian 16:  ES64L-G16RevA.03 25-Dec-2016

 ------------------
 #p CCSD(T)/CEP-31G
 ------------------

 -----------
 H2O_H2O_721
 -----------
 Symbolic Z-matrix:
 Charge =  0 Multiplicity = 1

                         Standard orientation:
 ---------------------------------------------------------------------
 Center     Atomic      Atomic             Coordinates (Angstroms)
 Number     Number       Type             X           Y           Z
 ---------------------------------------------------------------------
      1          8           0        0.056204   -1.126197    0.000000
      2          1           0       -0.745710   -1.694034    0.000000
      3          1           0        0.853419   -1.700614    0.000000
      4          8           0        0.056204    1.217677    0.000000
      5          1           0       -0.344276    2.114962    0.000000
      6          1           0       -0.662705    0.547844    0.000000
 ---------------------------------------------------------------------

 SCF Done:  E(RHF) =  -33.6387546433     A.U. after   11 cycles
 E2 =    -0.2306513512D+00 EUMP2 =    -0.33869405994514D+02
 CCSD(T)
 CCSD(T)= -0.33886302205D+02

 The electronic state is 1-A'.
 Alpha  occ. eigenvalues --   -1.36533  -1.30982  -0.72261  -0.68428  -0.54357
 Alpha  occ. eigenvalues --   -0.51086  -0.50720  -0.45476
 Alpha virt. eigenvalues --    0.19153   0.27024   0.29768   0.35714   0.77110
 Alpha virt. eigenvalues --    0.83841   0.89058   0.91492   0.97610   1.13468
 Alpha virt. eigenvalues --    1.19313   1.20080   1.25448   1.30999   2.74109

 Mulliken charges:
               1
     1  O   -0.773855
     2  H    0.363407
     3  H    0.407436
     4  O   -0.708317
     5  H    0.327725
     6  H    0.383604
 Sum of Mulliken charges =  -0.00000

 Dipole moment (field-independent basis, Debye):
    X=             -2.3517    Y=             -2.4053    Z=              0.0000  Tot=              3.3639
 Quadrupole moment (field-independent basis, Debye-Ang):
   XX=            -10.0511   YY=             -3.9754   ZZ=            -15.0030
   XY=             -3.0275   XZ=              0.0000   YZ=              0.0000

 MP4DQ=-33.8802671\MP4SDQ=-33.882489\CCSD=-33.8834552\CCSD(T)=-33.88630
 Normal termination of Gaussian 16 at Sun Dec 10 06:38:13 2023.
