 Gaussian 16, Revision A.03,
 Gaussian 16:  ES64L-G16RevA.03 25-Dec-2016

 ------------------
 #p CCSD(T)/CEP-31G
 ------------------

 ------------
 H2O_H2O_2357
 ------------
 Symbolic Z-matrix:
 Charge =  0 Multiplicity = 1

                         Standard orientation:
 ---------------------------------------------------------------------
 Center     Atomic      Atomic             Coordinates (Angstroms)
 Number     Number       Type             X           Y           Z
 ---------------------------------------------------------------------
      1          8           0        0.025267   -2.047045    0.000000
      2          1           0       -0.774909   -2.617330    0.000000
      3          1           0        0.824232   -2.619024    0.000000
      4          8           0        0.025267    2.058772    0.000000
      5          1           0        0.490692    2.924153    0.000000
      6          1           0       -0.944284    2.218390    0.000000
 ---------------------------------------------------------------------

 SCF Done:  E(RHF) =  -33.6480649683     A.U. after   11 cycles
 E2 =    -0.2286475466D+00 EUMP2 =    -0.33876712514940D+02
 CCSD(T)
 CCSD(T)= -0.33893822553D+02

 The electronic state is 1-A'.
 Alpha  occ. eigenvalues --   -1.34397  -1.34181  -0.70020  -0.69793  -0.53999
 Alpha  occ. eigenvalues --   -0.53602  -0.48916  -0.48698
 Alpha virt. eigenvalues --    0.20946   0.21602   0.31402   0.31604   0.80503
 Alpha virt. eigenvalues --    0.81331   0.82146   0.86689   0.88381   0.91635
 Alpha virt. eigenvalues --    1.18351   1.18567   1.22846   1.23074   2.58272

 Mulliken charges:
               1
     1  O   -0.728286
     2  H    0.362012
     3  H    0.366310
     4  O   -0.727387
     5  H    0.360931
     6  H    0.366422
 Sum of Mulliken charges =   0.00000

 Dipole moment (field-independent basis, Debye):
    X=             -1.1553    Y=             -0.2822    Z=              0.0000  Tot=              1.1893
 Quadrupole moment (field-independent basis, Debye-Ang):
   XX=             -8.4880   YY=              8.8344   ZZ=            -14.9849
   XY=             -1.7406   XZ=              0.0000   YZ=              0.0000

 P4DQ=-33.8881418\MP4SDQ=-33.8901848\CCSD=-33.8912429\CCSD(T)=-33.89382
 Normal termination of Gaussian 16 at Sun Dec 10 07:09:49 2023.
