 Gaussian 16, Revision A.03,
 Gaussian 16:  ES64L-G16RevA.03 25-Dec-2016

 ------------------
 #p CCSD(T)/CEP-31G
 ------------------

 ------------
 H2O_H2O_4913
 ------------
 Symbolic Z-matrix:
 Charge =  0 Multiplicity = 1

                         Standard orientation:
 ---------------------------------------------------------------------
 Center     Atomic      Atomic             Coordinates (Angstroms)
 Number     Number       Type             X           Y           Z
 ---------------------------------------------------------------------
      1          8           0        0.042961   -3.388515    0.000000
      2          1           0       -0.757229   -3.958780    0.000000
      3          1           0        0.841912   -3.960514    0.000000
      4          8           0        0.042961    3.427334    0.000000
      5          1           0        0.141816    4.404950    0.000000
      6          1           0       -0.913876    3.203795    0.000000
 ---------------------------------------------------------------------

 SCF Done:  E(RHF) =  -33.6512698787     A.U. after   11 cycles
 E2 =    -0.2284086802D+00 EUMP2 =    -0.33879678558903D+02
 CCSD(T)
 CCSD(T)= -0.33896693863D+02

 The electronic state is 1-A'.
 Alpha  occ. eigenvalues --   -1.35307  -1.35058  -0.70937  -0.70683  -0.55013
 Alpha  occ. eigenvalues --   -0.54763  -0.49871  -0.49622
 Alpha virt. eigenvalues --    0.20436   0.20689   0.30672   0.30919   0.80682
 Alpha virt. eigenvalues --    0.80928   0.83757   0.84003   0.86850   0.87128
 Alpha virt. eigenvalues --    1.17572   1.17820   1.22035   1.22284   2.57602

 Mulliken charges:
               1
     1  O   -0.739271
     2  H    0.368743
     3  H    0.370529
     4  O   -0.739060
     5  H    0.368025
     6  H    0.371034
 Sum of Mulliken charges =  -0.00000

 Dipole moment (field-independent basis, Debye):
    X=             -1.9842    Y=             -0.9061    Z=              0.0000  Tot=              2.1813
 Quadrupole moment (field-independent basis, Debye-Ang):
   XX=             -9.2350   YY=             19.0634   ZZ=            -14.9877
   XY=             -5.9581   XZ=              0.0000   YZ=              0.0000

 \MP4DQ=-33.8910457\MP4SDQ=-33.8930748\CCSD=-33.8941312\CCSD(T)=-33.896
 Normal termination of Gaussian 16 at Sun Dec 10 07:10:14 2023.
