 Gaussian 16, Revision A.03,
 Gaussian 16:  ES64L-G16RevA.03 25-Dec-2016

 ------------------
 #p CCSD(T)/CEP-31G
 ------------------

 ----------
 H2O_H2O_66
 ----------
 Symbolic Z-matrix:
 Charge =  0 Multiplicity = 1

                         Standard orientation:
 ---------------------------------------------------------------------
 Center     Atomic      Atomic             Coordinates (Angstroms)
 Number     Number       Type             X           Y           Z
 ---------------------------------------------------------------------
      1          8           0        0.049608   -0.799442    0.000000
      2          1           0       -0.752891   -1.366453    0.000000
      3          1           0        0.846230   -1.374679    0.000000
      4          8           0        0.049608    0.856045    0.000000
      5          1           0       -0.040189    1.834535    0.000000
      6          1           0       -0.846874    0.453769    0.000000
 ---------------------------------------------------------------------

 SCF Done:  E(RHF) =  -33.4851740816     A.U. after   11 cycles
 E2 =    -0.2370802189D+00 EUMP2 =    -0.33722254300521D+02
 CCSD(T)
 CCSD(T)= -0.33739014528D+02

 The electronic state is 1-A'.
 Alpha  occ. eigenvalues --   -1.40303  -1.28705  -0.75874  -0.70829  -0.55818
 Alpha  occ. eigenvalues --   -0.53651  -0.43005  -0.37798
 Alpha virt. eigenvalues --    0.19672   0.29344   0.30425   0.33658   0.80592
 Alpha virt. eigenvalues --    0.83435   0.89047   0.95431   0.96516   1.19116
 Alpha virt. eigenvalues --    1.22012   1.26104   1.27606   1.39583   2.64378

 Mulliken charges:
               1
     1  O   -0.768487
     2  H    0.340290
     3  H    0.407139
     4  O   -0.627958
     5  H    0.294950
     6  H    0.354066
 Sum of Mulliken charges =   0.00000

 Dipole moment (field-independent basis, Debye):
    X=             -1.7533    Y=             -1.4989    Z=              0.0000  Tot=              2.3067
 Quadrupole moment (field-independent basis, Debye-Ang):
   XX=             -9.7278   YY=             -8.0301   ZZ=            -14.9201
   XY=             -1.3938   XZ=              0.0000   YZ=              0.0000

 MP4DQ=-33.7321256\MP4SDQ=-33.7349023\CCSD=-33.7354741\CCSD(T)=-33.7390
 Normal termination of Gaussian 16 at Sun Dec 10 06:25:58 2023.
