 Gaussian 16, Revision A.03,
 Gaussian 16:  ES64L-G16RevA.03 25-Dec-2016

 ------------------
 #p CCSD(T)/CEP-31G
 ------------------

 ------------
 H2O_H2O_2569
 ------------
 Symbolic Z-matrix:
 Charge =  0 Multiplicity = 1

                         Standard orientation:
 ---------------------------------------------------------------------
 Center     Atomic      Atomic             Coordinates (Angstroms)
 Number     Number       Type             X           Y           Z
 ---------------------------------------------------------------------
      1          8           0        0.054166   -2.117813    0.000000
      2          1           0       -0.746636   -2.687217    0.000000
      3          1           0        0.852502   -2.690669    0.000000
      4          8           0        0.054166    2.195088    0.000000
      5          1           0       -0.227612    3.136422    0.000000
      6          1           0       -0.744907    1.623258    0.000000
 ---------------------------------------------------------------------

 SCF Done:  E(RHF) =  -33.6515009210     A.U. after   11 cycles
 E2 =    -0.2284977284D+00 EUMP2 =    -0.33879998649458D+02
 CCSD(T)
 CCSD(T)= -0.33897009082D+02

 The electronic state is 1-A'.
 Alpha  occ. eigenvalues --   -1.35462  -1.34161  -0.71096  -0.69746  -0.55182
 Alpha  occ. eigenvalues --   -0.53856  -0.50029  -0.48730
 Alpha virt. eigenvalues --    0.20043   0.21835   0.30492   0.31863   0.80490
 Alpha virt. eigenvalues --    0.81606   0.81832   0.85486   0.86628   0.89974
 Alpha virt. eigenvalues --    1.17425   1.18842   1.21827   1.23482   2.57402

 Mulliken charges:
               1
     1  O   -0.740117
     2  H    0.366246
     3  H    0.374042
     4  O   -0.738314
     5  H    0.361336
     6  H    0.376807
 Sum of Mulliken charges =  -0.00000

 Dipole moment (field-independent basis, Debye):
    X=             -2.4812    Y=             -1.8502    Z=              0.0000  Tot=              3.0951
 Quadrupole moment (field-independent basis, Debye-Ang):
   XX=             -9.9357   YY=              4.5946   ZZ=            -14.9894
   XY=             -5.0993   XZ=              0.0000   YZ=              0.0000

 MP4DQ=-33.891356\MP4SDQ=-33.89339\CCSD=-33.8944404\CCSD(T)=-33.8970091
 Normal termination of Gaussian 16 at Sun Dec 10 06:26:01 2023.
