 Gaussian 16, Revision A.03,
 Gaussian 16:  ES64L-G16RevA.03 25-Dec-2016

 ------------------
 #p CCSD(T)/CEP-31G
 ------------------

 ------------
 H2O_H2O_2904
 ------------
 Symbolic Z-matrix:
 Charge =  0 Multiplicity = 1

                         Standard orientation:
 ---------------------------------------------------------------------
 Center     Atomic      Atomic             Coordinates (Angstroms)
 Number     Number       Type             X           Y           Z
 ---------------------------------------------------------------------
      1          8           0        0.014783   -2.343819    0.000000
      2          1           0       -0.785098   -2.914517    0.000000
      3          1           0        0.814044   -2.915385    0.000000
      4          8           0        0.014783    2.347695    0.000000
      5          1           0        0.639701    3.105972    0.000000
      6          1           0       -0.905177    2.692921    0.000000
 ---------------------------------------------------------------------

 SCF Done:  E(RHF) =  -33.6489930066     A.U. after   11 cycles
 E2 =    -0.2285457963D+00 EUMP2 =    -0.33877538802848D+02
 CCSD(T)
 CCSD(T)= -0.33894619930D+02

 The electronic state is 1-A'.
 Alpha  occ. eigenvalues --   -1.34559  -1.34505  -0.70183  -0.70126  -0.54162
 Alpha  occ. eigenvalues --   -0.54047  -0.49090  -0.49035
 Alpha virt. eigenvalues --    0.20989   0.21183   0.31283   0.31343   0.81402
 Alpha virt. eigenvalues --    0.81574   0.83391   0.86151   0.87664   0.88030
 Alpha virt. eigenvalues --    1.18226   1.18278   1.22702   1.22769   2.58304

 Mulliken charges:
               1
     1  O   -0.731376
     2  H    0.364810
     3  H    0.366568
     4  O   -0.731198
     5  H    0.364469
     6  H    0.366727
 Sum of Mulliken charges =  -0.00000

 Dipole moment (field-independent basis, Debye):
    X=             -0.6790    Y=             -0.0920    Z=              0.0000  Tot=              0.6852
 Quadrupole moment (field-independent basis, Debye-Ang):
   XX=             -8.2046   YY=             12.4753   ZZ=            -14.9853
   XY=             -1.1729   XZ=              0.0000   YZ=              0.0000

 MP4DQ=-33.8889527\MP4SDQ=-33.8909886\CCSD=-33.8920481\CCSD(T)=-33.8946
 Normal termination of Gaussian 16 at Sun Dec 10 06:32:17 2023.
