 Gaussian 16, Revision A.03,
 Gaussian 16:  ES64L-G16RevA.03 25-Dec-2016

 ------------------
 #p CCSD(T)/CEP-31G
 ------------------

 -----------
 H2O_H2O_889
 -----------
 Symbolic Z-matrix:
 Charge =  0 Multiplicity = 1

                         Standard orientation:
 ---------------------------------------------------------------------
 Center     Atomic      Atomic             Coordinates (Angstroms)
 Number     Number       Type             X           Y           Z
 ---------------------------------------------------------------------
      1          8           0        0.045380   -1.244833    0.000000
      2          1           0       -0.755946   -1.813501    0.000000
      3          1           0        0.843189   -1.818423    0.000000
      4          8           0        0.045380    1.289243    0.000000
      5          1           0        0.082041    2.271161    0.000000
      6          1           0       -0.895356    1.005479    0.000000
 ---------------------------------------------------------------------

 SCF Done:  E(RHF) =  -33.6394389217     A.U. after   11 cycles
 E2 =    -0.2300812536D+00 EUMP2 =    -0.33869520175298D+02
 CCSD(T)
 CCSD(T)= -0.33886871909D+02

 The electronic state is 1-A'.
 Alpha  occ. eigenvalues --   -1.34199  -1.32127  -0.69831  -0.67889  -0.54700
 Alpha  occ. eigenvalues --   -0.50018  -0.48809  -0.46466
 Alpha virt. eigenvalues --    0.20260   0.24978   0.31518   0.33071   0.78478
 Alpha virt. eigenvalues --    0.83266   0.87270   0.88239   0.95075   1.16159
 Alpha virt. eigenvalues --    1.18807   1.22271   1.23232   1.29594   2.58984

 Mulliken charges:
               1
     1  O   -0.732855
     2  H    0.350585
     3  H    0.376400
     4  O   -0.698356
     5  H    0.341421
     6  H    0.362804
 Sum of Mulliken charges =   0.00000

 Dipole moment (field-independent basis, Debye):
    X=             -1.9490    Y=             -1.1055    Z=              0.0000  Tot=              2.2407
 Quadrupole moment (field-independent basis, Debye-Ang):
   XX=             -9.4311   YY=             -0.9637   ZZ=            -14.9924
   XY=             -2.0350   XZ=              0.0000   YZ=              0.0000

 P4DQ=-33.8809484\MP4SDQ=-33.8830999\CCSD=-33.8841628\CCSD(T)=-33.88687
 Normal termination of Gaussian 16 at Sun Dec 10 06:41:23 2023.
