 Gaussian 16, Revision A.03,
 Gaussian 16:  ES64L-G16RevA.03 25-Dec-2016

 ------------------
 #p CCSD(T)/CEP-31G
 ------------------

 ------------
 H2O_H2O_1860
 ------------
 Symbolic Z-matrix:
 Charge =  0 Multiplicity = 1

                         Standard orientation:
 ---------------------------------------------------------------------
 Center     Atomic      Atomic             Coordinates (Angstroms)
 Number     Number       Type             X           Y           Z
 ---------------------------------------------------------------------
      1          8           0        0.034788   -1.774739    0.000000
      2          1           0       -0.765739   -2.344531    0.000000
      3          1           0        0.833401   -2.347210    0.000000
      4          8           0        0.034788    1.798227    0.000000
      5          1           0        0.323022    2.737602    0.000000
      6          1           0       -0.947293    1.766233    0.000000
 ---------------------------------------------------------------------

 SCF Done:  E(RHF) =  -33.6470398432     A.U. after   11 cycles
 E2 =    -0.2288431185D+00 EUMP2 =    -0.33875882961670D+02
 CCSD(T)
 CCSD(T)= -0.33893041236D+02

 The electronic state is 1-A'.
 Alpha  occ. eigenvalues --   -1.34311  -1.33734  -0.69936  -0.69325  -0.53975
 Alpha  occ. eigenvalues --   -0.52970  -0.48825  -0.48236
 Alpha virt. eigenvalues --    0.20689   0.22287   0.31442   0.31980   0.76450
 Alpha virt. eigenvalues --    0.80736   0.83299   0.85552   0.89662   1.00758
 Alpha virt. eigenvalues --    1.18392   1.19163   1.22922   1.23533   2.58045

 Mulliken charges:
               1
     1  O   -0.725259
     2  H    0.358455
     3  H    0.366997
     4  O   -0.722291
     5  H    0.355553
     6  H    0.366544
 Sum of Mulliken charges =  -0.00000

 Dipole moment (field-independent basis, Debye):
    X=             -1.5779    Y=             -0.5767    Z=              0.0000  Tot=              1.6800
 Quadrupole moment (field-independent basis, Debye-Ang):
   XX=             -8.8656   YY=              5.3880   ZZ=            -14.9851
   XY=             -2.1202   XZ=              0.0000   YZ=              0.0000

 MP4DQ=-33.8873272\MP4SDQ=-33.88939\CCSD=-33.8904444\CCSD(T)=-33.893041
 Normal termination of Gaussian 16 at Sun Dec 10 06:59:26 2023.
