 Gaussian 16, Revision A.03,
 Gaussian 16:  ES64L-G16RevA.03 25-Dec-2016

 ------------------
 #p CCSD(T)/CEP-31G
 ------------------

 ------------
 H2O_H2O_2265
 ------------
 Symbolic Z-matrix:
 Charge =  0 Multiplicity = 1

                         Standard orientation:
 ---------------------------------------------------------------------
 Center     Atomic      Atomic             Coordinates (Angstroms)
 Number     Number       Type             X           Y           Z
 ---------------------------------------------------------------------
      1          8           0        0.047540   -1.972764    0.000000
      2          1           0       -0.753198   -2.542259    0.000000
      3          1           0        0.845941   -2.545531    0.000000
      4          8           0        0.047540    2.023335    0.000000
      5          1           0        0.018888    3.005520    0.000000
      6          1           0       -0.872266    1.677701    0.000000
 ---------------------------------------------------------------------

 SCF Done:  E(RHF) =  -33.6499252114     A.U. after   11 cycles
 E2 =    -0.2286217953D+00 EUMP2 =    -0.33878547006670D+02
 CCSD(T)
 CCSD(T)= -0.33895606271D+02

 The electronic state is 1-A'.
 Alpha  occ. eigenvalues --   -1.35003  -1.34008  -0.70633  -0.69591  -0.54640
 Alpha  occ. eigenvalues --   -0.53610  -0.49547  -0.48557
 Alpha virt. eigenvalues --    0.20322   0.21978   0.30861   0.31894   0.79373
 Alpha virt. eigenvalues --    0.80787   0.82194   0.85884   0.87351   0.93705
 Alpha virt. eigenvalues --    1.17817   1.18962   1.22225   1.23451   2.57679

 Mulliken charges:
               1
     1  O   -0.734721
     2  H    0.363166
     3  H    0.371757
     4  O   -0.731971
     5  H    0.359005
     6  H    0.372763
 Sum of Mulliken charges =   0.00000

 Dipole moment (field-independent basis, Debye):
    X=             -2.1699    Y=             -1.2202    Z=              0.0000  Tot=              2.4894
 Quadrupole moment (field-independent basis, Debye-Ang):
   XX=             -9.5084   YY=              5.5724   ZZ=            -14.9875
   XY=             -3.7358   XZ=              0.0000   YZ=              0.0000

 \MP4DQ=-33.8899356\MP4SDQ=-33.8919777\CCSD=-33.893029\CCSD(T)=-33.8956
 Normal termination of Gaussian 16 at Sun Dec 10 07:08:10 2023.
