 Gaussian 16, Revision A.03,
 Gaussian 16:  ES64L-G16RevA.03 25-Dec-2016

 ------------------
 #p CCSD(T)/CEP-31G
 ------------------

 ------------
 H2O_H2O_4914
 ------------
 Symbolic Z-matrix:
 Charge =  0 Multiplicity = 1

                         Standard orientation:
 ---------------------------------------------------------------------
 Center     Atomic      Atomic             Coordinates (Angstroms)
 Number     Number       Type             X           Y           Z
 ---------------------------------------------------------------------
      1          8           0        0.045336   -3.385383    0.000000
      2          1           0       -0.754888   -3.955599    0.000000
      3          1           0        0.844253   -3.957430    0.000000
      4          8           0        0.045336    3.429969    0.000000
      5          1           0        0.080100    4.411956    0.000000
      6          1           0       -0.894849    3.144386    0.000000
 ---------------------------------------------------------------------

 SCF Done:  E(RHF) =  -33.6513323876     A.U. after   11 cycles
 E2 =    -0.2284057455D+00 EUMP2 =    -0.33879738133136D+02
 CCSD(T)
 CCSD(T)= -0.33896751621D+02

 The electronic state is 1-A'.
 Alpha  occ. eigenvalues --   -1.35341  -1.35055  -0.70971  -0.70680  -0.55050
 Alpha  occ. eigenvalues --   -0.54763  -0.49905  -0.49620
 Alpha virt. eigenvalues --    0.20405   0.20697   0.30642   0.30926   0.80647
 Alpha virt. eigenvalues --    0.80930   0.83716   0.83999   0.86811   0.87129
 Alpha virt. eigenvalues --    1.17542   1.17825   1.22003   1.22289   2.57570

 Mulliken charges:
               1
     1  O   -0.739496
     2  H    0.368809
     3  H    0.370686
     4  O   -0.739272
     5  H    0.368011
     6  H    0.371261
 Sum of Mulliken charges =   0.00000

 Dipole moment (field-independent basis, Debye):
    X=             -2.0939    Y=             -1.0408    Z=              0.0000  Tot=              2.3383
 Quadrupole moment (field-independent basis, Debye-Ang):
   XX=             -9.3717   YY=             18.2606   ZZ=            -14.9878
   XY=             -6.3719   XZ=              0.0000   YZ=              0.0000

 4DQ=-33.891104\MP4SDQ=-33.8931328\CCSD=-33.8941891\CCSD(T)=-33.8967516
 Normal termination of Gaussian 16 at Sun Dec 10 07:10:15 2023.
