 Gaussian 16, Revision A.03,
 Gaussian 16:  ES64L-G16RevA.03 25-Dec-2016

 ------------------
 #p CCSD(T)/CEP-31G
 ------------------

 -----------
 H2O_H2O_795
 -----------
 Symbolic Z-matrix:
 Charge =  0 Multiplicity = 1

                         Standard orientation:
 ---------------------------------------------------------------------
 Center     Atomic      Atomic             Coordinates (Angstroms)
 Number     Number       Type             X           Y           Z
 ---------------------------------------------------------------------
      1          8           0        0.055333   -1.170023    0.000000
      2          1           0       -0.746470   -1.738018    0.000000
      3          1           0        0.852660   -1.744283    0.000000
      4          8           0        0.055333    1.254252    0.000000
      5          1           0       -0.285787    2.175742    0.000000
      6          1           0       -0.705723    0.632722    0.000000
 ---------------------------------------------------------------------

 SCF Done:  E(RHF) =  -33.6419125877     A.U. after   11 cycles
 E2 =    -0.2304244243D+00 EUMP2 =    -0.33872337011943D+02
 CCSD(T)
 CCSD(T)= -0.33889385038D+02

 The electronic state is 1-A'.
 Alpha  occ. eigenvalues --   -1.35987  -1.31369  -0.71684  -0.68088  -0.54664
 Alpha  occ. eigenvalues --   -0.50887  -0.50570  -0.45862
 Alpha virt. eigenvalues --    0.19335   0.26497   0.30142   0.34939   0.77334
 Alpha virt. eigenvalues --    0.83397   0.88658   0.90742   0.96236   1.14071
 Alpha virt. eigenvalues --    1.19514   1.20336   1.24215   1.30635   2.71252

 Mulliken charges:
               1
     1  O   -0.764025
     2  H    0.360558
     3  H    0.399269
     4  O   -0.708966
     5  H    0.331797
     6  H    0.381367
 Sum of Mulliken charges =   0.00000

 Dipole moment (field-independent basis, Debye):
    X=             -2.3430    Y=             -2.1810    Z=              0.0000  Tot=              3.2010
 Quadrupole moment (field-independent basis, Debye-Ang):
   XX=             -9.9986   YY=             -3.2283   ZZ=            -15.0009
   XY=             -2.9722   XZ=              0.0000   YZ=              0.0000

 MP4DQ=-33.8833968\MP4SDQ=-33.8855936\CCSD=-33.8865914\CCSD(T)=-33.8893
 Normal termination of Gaussian 16 at Sun Dec 10 06:39:36 2023.
