 Gaussian 16, Revision A.03,
 Gaussian 16:  ES64L-G16RevA.03 25-Dec-2016

 ------------------
 #p CCSD(T)/CEP-31G
 ------------------

 ------------
 H2O_H2O_2001
 ------------
 Symbolic Z-matrix:
 Charge =  0 Multiplicity = 1

                         Standard orientation:
 ---------------------------------------------------------------------
 Center     Atomic      Atomic             Coordinates (Angstroms)
 Number     Number       Type             X           Y           Z
 ---------------------------------------------------------------------
      1          8           0        0.003735   -1.867139    0.000000
      2          1           0       -0.795934   -2.438134    0.000000
      3          1           0        0.803208   -2.438409    0.000000
      4          8           0        0.003735    1.867383    0.000000
      5          1           0        0.764348    2.489456    0.000000
      6          1           0       -0.831388    2.385141    0.000000
 ---------------------------------------------------------------------

 SCF Done:  E(RHF) =  -33.6460749772     A.U. after   11 cycles
 E2 =    -0.2287812752D+00 EUMP2 =    -0.33874856252398D+02
 CCSD(T)
 CCSD(T)= -0.33892030280D+02

 The electronic state is 1-A'.
 Alpha  occ. eigenvalues --   -1.33959  -1.33935  -0.69580  -0.69552  -0.53710
 Alpha  occ. eigenvalues --   -0.52956  -0.48492  -0.48381
 Alpha virt. eigenvalues --    0.21094   0.21944   0.31622   0.31880   0.78148
 Alpha virt. eigenvalues --    0.81205   0.83007   0.86405   0.90650   0.95537
 Alpha virt. eigenvalues --    1.18714   1.18738   1.23059   1.23455   2.58218

 Mulliken charges:
               1
     1  O   -0.721716
     2  H    0.360449
     3  H    0.361270
     4  O   -0.721686
     5  H    0.360361
     6  H    0.361323
 Sum of Mulliken charges =  -0.00000

 Dipole moment (field-independent basis, Debye):
    X=             -0.1702    Y=             -0.0060    Z=              0.0000  Tot=              0.1703
 Quadrupole moment (field-independent basis, Debye-Ang):
   XX=             -8.1187   YY=              7.5322   ZZ=            -14.9836
   XY=             -0.2145   XZ=              0.0000   YZ=              0.0000

 P4DQ=-33.8863214\MP4SDQ=-33.8883773\CCSD=-33.8894373\CCSD(T)=-33.89203
 Normal termination of Gaussian 16 at Sun Dec 10 07:03:25 2023.
