 Gaussian 16, Revision A.03,
 Gaussian 16:  ES64L-G16RevA.03 25-Dec-2016

 ------------------
 #p CCSD(T)/CEP-31G
 ------------------

 ------------
 H2O_H2O_3278
 ------------
 Symbolic Z-matrix:
 Charge =  0 Multiplicity = 1

                         Standard orientation:
 ---------------------------------------------------------------------
 Center     Atomic      Atomic             Coordinates (Angstroms)
 Number     Number       Type             X           Y           Z
 ---------------------------------------------------------------------
      1          8           0        0.011143   -2.544175    0.000000
      2          1           0       -0.788643   -3.115006    0.000000
      3          1           0        0.810498   -3.115609    0.000000
      4          8           0        0.011143    2.546362    0.000000
      5          1           0        0.684197    3.262255    0.000000
      6          1           0       -0.884335    2.950868    0.000000
 ---------------------------------------------------------------------

 SCF Done:  E(RHF) =  -33.6495473381     A.U. after   11 cycles
 E2 =    -0.2285062135D+00 EUMP2 =    -0.33878053551642D+02
 CCSD(T)
 CCSD(T)= -0.33895118471D+02

 The electronic state is 1-A'.
 Alpha  occ. eigenvalues --   -1.34691  -1.34665  -0.70315  -0.70289  -0.54307
 Alpha  occ. eigenvalues --   -0.54261  -0.49229  -0.49203
 Alpha virt. eigenvalues --    0.20933   0.21009   0.31185   0.31212   0.81310
 Alpha virt. eigenvalues --    0.81363   0.84084   0.85102   0.87550   0.87661
 Alpha virt. eigenvalues --    1.18117   1.18142   1.22592   1.22622   2.58185

 Mulliken charges:
               1
     1  O   -0.733257
     2  H    0.366098
     3  H    0.367160
     4  O   -0.733187
     5  H    0.365898
     6  H    0.367289
 Sum of Mulliken charges =   0.00000

 Dipole moment (field-independent basis, Debye):
    X=             -0.5127    Y=             -0.0516    Z=              0.0000  Tot=              0.5153
 Quadrupole moment (field-independent basis, Debye-Ang):
   XX=             -8.1353   YY=             14.7408   ZZ=            -14.9857
   XY=             -0.9773   XZ=              0.0000   YZ=              0.0000

 \MP4DQ=-33.8894564\MP4SDQ=-33.8914903\CCSD=-33.8925494\CCSD(T)=-33.895
 Normal termination of Gaussian 16 at Sun Dec 10 06:38:52 2023.
