 Gaussian 16, Revision A.03,
 Gaussian 16:  ES64L-G16RevA.03 25-Dec-2016

 ------------------
 #p CCSD(T)/CEP-31G
 ------------------

 ------------
 H2O_H2O_1110
 ------------
 Symbolic Z-matrix:
 Charge =  0 Multiplicity = 1

                         Standard orientation:
 ---------------------------------------------------------------------
 Center     Atomic      Atomic             Coordinates (Angstroms)
 Number     Number       Type             X           Y           Z
 ---------------------------------------------------------------------
      1          8           0        0.034794   -1.375879    0.000000
      2          1           0       -0.766007   -1.945285    0.000000
      3          1           0        0.833131   -1.948734    0.000000
      4          8           0        0.034794    1.399333    0.000000
      5          1           0        0.323480    2.338571    0.000000
      6          1           0       -0.947303    1.367813    0.000000
 ---------------------------------------------------------------------

 SCF Done:  E(RHF) =  -33.6406675320     A.U. after   11 cycles
 E2 =    -0.2295604388D+00 EUMP2 =    -0.33870227970824D+02
 CCSD(T)
 CCSD(T)= -0.33887602253D+02

 The electronic state is 1-A'.
 Alpha  occ. eigenvalues --   -1.33644  -1.32702  -0.69259  -0.68305  -0.54196
 Alpha  occ. eigenvalues --   -0.50527  -0.48216  -0.47025
 Alpha virt. eigenvalues --    0.20762   0.23808   0.31943   0.32623   0.79175
 Alpha virt. eigenvalues --    0.80837   0.82462   0.87075   0.95826   1.14671
 Alpha virt. eigenvalues --    1.18894   1.22329   1.23658   1.25320   2.58565

 Mulliken charges:
               1
     1  O   -0.717193
     2  H    0.349588
     3  H    0.365855
     4  O   -0.704176
     5  H    0.346639
     6  H    0.359287
 Sum of Mulliken charges =   0.00000

 Dipole moment (field-independent basis, Debye):
    X=             -1.5275    Y=             -0.5826    Z=              0.0000  Tot=              1.6348
 Quadrupole moment (field-independent basis, Debye-Ang):
   XX=             -8.9214   YY=              1.1569   ZZ=            -14.9879
   XY=             -1.5304   XZ=              0.0000   YZ=              0.0000

 P4DQ=-33.8817508\MP4SDQ=-33.8838644\CCSD=-33.8849414\CCSD(T)=-33.88760
 Normal termination of Gaussian 16 at Sun Dec 10 06:45:30 2023.
