 Gaussian 16, Revision A.03,
 Gaussian 16:  ES64L-G16RevA.03 25-Dec-2016

 ------------------
 #p CCSD(T)/CEP-31G
 ------------------

 ------------
 H2O_H2O_1039
 ------------
 Symbolic Z-matrix:
 Charge =  0 Multiplicity = 1

                         Standard orientation:
 ---------------------------------------------------------------------
 Center     Atomic      Atomic             Coordinates (Angstroms)
 Number     Number       Type             X           Y           Z
 ---------------------------------------------------------------------
      1          8           0        0.045375   -1.324600    0.000000
      2          1           0       -0.755846   -1.893414    0.000000
      3          1           0        0.843289   -1.898045    0.000000
      4          8           0        0.045375    1.369027    0.000000
      5          1           0        0.081858    2.350951    0.000000
      6          1           0       -0.895309    1.085091    0.000000
 ---------------------------------------------------------------------

 SCF Done:  E(RHF) =  -33.6426648137     A.U. after   11 cycles
 E2 =    -0.2297488230D+00 EUMP2 =    -0.33872413636634D+02
 CCSD(T)
 CCSD(T)= -0.33889741386D+02

 The electronic state is 1-A'.
 Alpha  occ. eigenvalues --   -1.34280  -1.32441  -0.69914  -0.68091  -0.54492
 Alpha  occ. eigenvalues --   -0.50846  -0.48849  -0.46848
 Alpha virt. eigenvalues --    0.20238   0.24491   0.31442   0.32916   0.78610
 Alpha virt. eigenvalues --    0.81796   0.84547   0.87359   0.93667   1.16244
 Alpha virt. eigenvalues --    1.18512   1.22447   1.23019   1.28138   2.60014

 Mulliken charges:
               1
     1  O   -0.729273
     2  H    0.351831
     3  H    0.374322
     4  O   -0.705240
     5  H    0.343159
     6  H    0.365201
 Sum of Mulliken charges =  -0.00000

 Dipole moment (field-independent basis, Debye):
    X=             -1.9781    Y=             -1.1102    Z=              0.0000  Tot=              2.2684
 Quadrupole moment (field-independent basis, Debye-Ang):
   XX=             -9.4213   YY=             -0.1012   ZZ=            -14.9903
   XY=             -2.1915   XZ=              0.0000   YZ=              0.0000

 \MP4DQ=-33.8838696\MP4SDQ=-33.8860021\CCSD=-33.8870659\CCSD(T)=-33.889
 Normal termination of Gaussian 16 at Sun Dec 10 06:44:11 2023.
