 Gaussian 16, Revision A.03,
 Gaussian 16:  ES64L-G16RevA.03 25-Dec-2016

 ------------------
 #p CCSD(T)/CEP-31G
 ------------------

 -----------
 H2O_H2O_742
 -----------
 Symbolic Z-matrix:
 Charge =  0 Multiplicity = 1

                         Standard orientation:
 ---------------------------------------------------------------------
 Center     Atomic      Atomic             Coordinates (Angstroms)
 Number     Number       Type             X           Y           Z
 ---------------------------------------------------------------------
      1          8           0        0.051341   -1.154784    0.000000
      2          1           0       -0.750347   -1.722941    0.000000
      3          1           0        0.848784   -1.728884    0.000000
      4          8           0        0.051341    1.218108    0.000000
      5          1           0       -0.103645    2.188410    0.000000
      6          1           0       -0.816253    0.756822    0.000000
 ---------------------------------------------------------------------

 SCF Done:  E(RHF) =  -33.6369049859     A.U. after   11 cycles
 E2 =    -0.2305930546D+00 EUMP2 =    -0.33867498040568D+02
 CCSD(T)
 CCSD(T)= -0.33884743332D+02

 The electronic state is 1-A'.
 Alpha  occ. eigenvalues --   -1.35010  -1.31567  -0.70685  -0.67885  -0.54712
 Alpha  occ. eigenvalues --   -0.49917  -0.49627  -0.45945
 Alpha virt. eigenvalues --    0.19816   0.26065   0.30911   0.33824   0.78013
 Alpha virt. eigenvalues --    0.84058   0.88928   0.93173   0.94906   1.15084
 Alpha virt. eigenvalues --    1.19087   1.21555   1.23754   1.30841   2.62414

 Mulliken charges:
               1
     1  O   -0.752253
     2  H    0.354229
     3  H    0.388794
     4  O   -0.694753
     5  H    0.334724
     6  H    0.369260
 Sum of Mulliken charges =  -0.00000

 Dipole moment (field-independent basis, Debye):
    X=             -2.1617    Y=             -1.5989    Z=              0.0000  Tot=              2.6888
 Quadrupole moment (field-independent basis, Debye-Ang):
   XX=             -9.7635   YY=             -2.5792   ZZ=            -14.9965
   XY=             -2.3913   XZ=              0.0000   YZ=              0.0000

 4DQ=-33.8787425\MP4SDQ=-33.8809372\CCSD=-33.8819645\CCSD(T)=-33.884743
 Normal termination of Gaussian 16 at Sun Dec 10 06:38:36 2023.
