 Gaussian 16, Revision A.03,
 Gaussian 16:  ES64L-G16RevA.03 25-Dec-2016

 ------------------
 #p CCSD(T)/CEP-31G
 ------------------

 -----------
 H2O_H2O_710
 -----------
 Symbolic Z-matrix:
 Charge =  0 Multiplicity = 1

                         Standard orientation:
 ---------------------------------------------------------------------
 Center     Atomic      Atomic             Coordinates (Angstroms)
 Number     Number       Type             X           Y           Z
 ---------------------------------------------------------------------
      1          8           0        0.034798   -1.163159    0.000000
      2          1           0       -0.766225   -1.732252    0.000000
      3          1           0        0.832912   -1.736326    0.000000
      4          8           0        0.034798    1.186586    0.000000
      5          1           0        0.323852    2.125711    0.000000
      6          1           0       -0.947310    1.155449    0.000000
 ---------------------------------------------------------------------

 SCF Done:  E(RHF) =  -33.6290319825     A.U. after   11 cycles
 E2 =    -0.2305016504D+00 EUMP2 =    -0.33859533632911D+02
 CCSD(T)
 CCSD(T)= -0.33876936261D+02

 The electronic state is 1-A'.
 Alpha  occ. eigenvalues --   -1.33376  -1.31775  -0.68929  -0.67580  -0.55399
 Alpha  occ. eigenvalues --   -0.48120  -0.47499  -0.45829
 Alpha virt. eigenvalues --    0.20846   0.25081   0.32215   0.32982   0.79141
 Alpha virt. eigenvalues --    0.81655   0.89284   0.92141   0.99953   1.13746
 Alpha virt. eigenvalues --    1.19318   1.22667   1.24221   1.29092   2.54365

 Mulliken charges:
               1
     1  O   -0.722269
     2  H    0.345325
     3  H    0.369424
     4  O   -0.689927
     5  H    0.345740
     6  H    0.351708
 Sum of Mulliken charges =   0.00000

 Dipole moment (field-independent basis, Debye):
    X=             -1.4578    Y=             -0.5668    Z=              0.0000  Tot=              1.5641
 Quadrupole moment (field-independent basis, Debye-Ang):
   XX=             -8.9686   YY=             -1.4392   ZZ=            -14.9971
   XY=             -1.2166   XZ=              0.0000   YZ=              0.0000

 P4DQ=-33.8709464\MP4SDQ=-33.8731072\CCSD=-33.8741792\CCSD(T)=-33.87693
 Normal termination of Gaussian 16 at Sun Dec 10 06:38:00 2023.
