 Gaussian 16, Revision A.03,
 Gaussian 16:  ES64L-G16RevA.03 25-Dec-2016

 ------------------
 #p CCSD(T)/CEP-31G
 ------------------

 -----------
 H2O_H2O_297
 -----------
 Symbolic Z-matrix:
 Charge =  0 Multiplicity = 1

                         Standard orientation:
 ---------------------------------------------------------------------
 Center     Atomic      Atomic             Coordinates (Angstroms)
 Number     Number       Type             X           Y           Z
 ---------------------------------------------------------------------
      1          8           0        0.056880   -0.896226    0.000000
      2          1           0       -0.745625   -1.463228    0.000000
      3          1           0        0.853496   -1.471472    0.000000
      4          8           0        0.056880    0.994957    0.000000
      5          1           0       -0.400524    1.864606    0.000000
      6          1           0       -0.617424    0.280241    0.000000
 ---------------------------------------------------------------------

 SCF Done:  E(RHF) =  -33.5624135833     A.U. after   11 cycles
 E2 =    -0.2330823481D+00 EUMP2 =    -0.33795495931392D+02
 CCSD(T)
 CCSD(T)= -0.33811548809D+02

 The electronic state is 1-A'.
 Alpha  occ. eigenvalues --   -1.40226  -1.28837  -0.76788  -0.71470  -0.53703
 Alpha  occ. eigenvalues --   -0.50044  -0.47461  -0.43233
 Alpha virt. eigenvalues --    0.18807   0.28256   0.29581   0.37219   0.77927
 Alpha virt. eigenvalues --    0.84373   0.90345   0.94146   0.98966   1.16308
 Alpha virt. eigenvalues --    1.18984   1.22561   1.32343   1.33389   2.78711

 Mulliken charges:
               1
     1  O   -0.799093
     2  H    0.367217
     3  H    0.441637
     4  O   -0.680913
     5  H    0.297230
     6  H    0.373921
 Sum of Mulliken charges =  -0.00000

 Dipole moment (field-independent basis, Debye):
    X=             -2.1583    Y=             -2.8040    Z=              0.0000  Tot=              3.5385
 Quadrupole moment (field-independent basis, Debye-Ang):
   XX=            -10.0757   YY=             -6.9646   ZZ=            -14.9600
   XY=             -2.4926   XZ=              0.0000   YZ=              0.0000

 4DQ=-33.8050666\MP4SDQ=-33.8075472\CCSD=-33.8082763\CCSD(T)=-33.811548
 Normal termination of Gaussian 16 at Sun Dec 10 06:30:19 2023.
