 Gaussian 16, Revision A.03,
 Gaussian 16:  ES64L-G16RevA.03 25-Dec-2016

 ------------------
 #p CCSD(T)/CEP-31G
 ------------------

 ------------
 H2O_H2O_1266
 ------------
 Symbolic Z-matrix:
 Charge =  0 Multiplicity = 1

                         Standard orientation:
 ---------------------------------------------------------------------
 Center     Atomic      Atomic             Coordinates (Angstroms)
 Number     Number       Type             X           Y           Z
 ---------------------------------------------------------------------
      1          8           0        0.049544   -1.437529    0.000000
      2          1           0       -0.751682   -2.006337    0.000000
      3          1           0        0.847453   -2.010981    0.000000
      4          8           0        0.049544    1.494355    0.000000
      5          1           0       -0.042444    2.472641    0.000000
      6          1           0       -0.846034    1.090072    0.000000
 ---------------------------------------------------------------------

 SCF Done:  E(RHF) =  -33.6471128077     A.U. after   11 cycles
 E2 =    -0.2293818577D+00 EUMP2 =    -0.33876494665368D+02
 CCSD(T)
 CCSD(T)= -0.33893719080D+02

 The electronic state is 1-A'.
 Alpha  occ. eigenvalues --   -1.34816  -1.32760  -0.70456  -0.68352  -0.54587
 Alpha  occ. eigenvalues --   -0.51972  -0.49362  -0.47269
 Alpha virt. eigenvalues --    0.19923   0.24124   0.30994   0.32915   0.77694
 Alpha virt. eigenvalues --    0.78808   0.85294   0.85926   0.90753   1.14322
 Alpha virt. eigenvalues --    1.17878   1.21817   1.22579   1.26848   2.59918

 Mulliken charges:
               1
     1  O   -0.732771
     2  H    0.356011
     3  H    0.376260
     4  O   -0.717467
     5  H    0.345464
     6  H    0.372503
 Sum of Mulliken charges =   0.00000

 Dipole moment (field-independent basis, Debye):
    X=             -2.1948    Y=             -1.4255    Z=              0.0000  Tot=              2.6171
 Quadrupole moment (field-independent basis, Debye-Ang):
   XX=             -9.6436   YY=              0.5049   ZZ=            -14.9900
   XY=             -2.8294   XZ=              0.0000   YZ=              0.0000

 \MP4DQ=-33.8879116\MP4SDQ=-33.8900242\CCSD=-33.8910752\CCSD(T)=-33.893
 Normal termination of Gaussian 16 at Sun Dec 10 06:48:25 2023.
