 Gaussian 16, Revision A.03,
 Gaussian 16:  ES64L-G16RevA.03 25-Dec-2016

 ------------------
 #p CCSD(T)/CEP-31G
 ------------------

 ------------
 H2O_H2O_3380
 ------------
 Symbolic Z-matrix:
 Charge =  0 Multiplicity = 1

                         Standard orientation:
 ---------------------------------------------------------------------
 Center     Atomic      Atomic             Coordinates (Angstroms)
 Number     Number       Type             X           Y           Z
 ---------------------------------------------------------------------
      1          8           0        0.018360   -2.595266    0.000000
      2          1           0       -0.781558   -3.165912    0.000000
      3          1           0        0.817584   -3.166884    0.000000
      4          8           0        0.018360    2.601306    0.000000
      5          1           0        0.592399    3.398793    0.000000
      6          1           0       -0.922189    2.885687    0.000000
 ---------------------------------------------------------------------

 SCF Done:  E(RHF) =  -33.6497768161     A.U. after   11 cycles
 E2 =    -0.2284947968D+00 EUMP2 =    -0.33878271612961D+02
 CCSD(T)
 CCSD(T)= -0.33895329929D+02

 The electronic state is 1-A'.
 Alpha  occ. eigenvalues --   -1.34765  -1.34697  -0.70391  -0.70320  -0.54388
 Alpha  occ. eigenvalues --   -0.54315  -0.49307  -0.49239
 Alpha virt. eigenvalues --    0.20885   0.20975   0.31125   0.31190   0.81242
 Alpha virt. eigenvalues --    0.81317   0.84141   0.84872   0.87486   0.87602
 Alpha virt. eigenvalues --    1.18052   1.18118   1.22527   1.22594   2.58116

 Mulliken charges:
               1
     1  O   -0.734056
     2  H    0.366202
     3  H    0.367854
     4  O   -0.733885
     5  H    0.365833
     6  H    0.368052
 Sum of Mulliken charges =   0.00000

 Dipole moment (field-independent basis, Debye):
    X=             -0.8452    Y=             -0.1424    Z=              0.0000  Tot=              0.8571
 Quadrupole moment (field-independent basis, Debye-Ang):
   XX=             -8.2697   YY=             14.9637   ZZ=            -14.9860
   XY=             -1.6766   XZ=              0.0000   YZ=              0.0000

 \MP4DQ=-33.8896698\MP4SDQ=-33.891703\CCSD=-33.8927617\CCSD(T)=-33.8953
 Normal termination of Gaussian 16 at Sun Dec 10 06:40:42 2023.
