 Gaussian 16, Revision A.03,
 Gaussian 16:  ES64L-G16RevA.03 25-Dec-2016

 ------------------
 #p CCSD(T)/CEP-31G
 ------------------

 ------------
 H2O_H2O_3516
 ------------
 Symbolic Z-matrix:
 Charge =  0 Multiplicity = 1

                         Standard orientation:
 ---------------------------------------------------------------------
 Center     Atomic      Atomic             Coordinates (Angstroms)
 Number     Number       Type             X           Y           Z
 ---------------------------------------------------------------------
      1          8           0        0.049507   -2.634094    0.000000
      2          1           0       -0.750976   -3.203947    0.000000
      3          1           0        0.848164   -3.206504    0.000000
      4          8           0        0.049507    2.691049    0.000000
      5          1           0       -0.043758    3.669214    0.000000
      6          1           0       -0.845542    2.285597    0.000000
 ---------------------------------------------------------------------

 SCF Done:  E(RHF) =  -33.6511032367     A.U. after   11 cycles
 E2 =    -0.2284384629D+00 EUMP2 =    -0.33879541699620D+02
 CCSD(T)
 CCSD(T)= -0.33896561799D+02

 The electronic state is 1-A'.
 Alpha  occ. eigenvalues --   -1.35295  -1.34685  -0.70925  -0.70297  -0.54992
 Alpha  occ. eigenvalues --   -0.54376  -0.49856  -0.49247
 Alpha virt. eigenvalues --    0.20433   0.21069   0.30675   0.31281   0.80698
 Alpha virt. eigenvalues --    0.81295   0.83725   0.84441   0.86871   0.87597
 Alpha virt. eigenvalues --    1.17578   1.18183   1.22041   1.22655   2.57609

 Mulliken charges:
               1
     1  O   -0.738746
     2  H    0.367348
     3  H    0.371399
     4  O   -0.737991
     5  H    0.365384
     6  H    0.372606
 Sum of Mulliken charges =  -0.00000

 Dipole moment (field-independent basis, Debye):
    X=             -2.2798    Y=             -1.3412    Z=              0.0000  Tot=              2.6450
 Quadrupole moment (field-independent basis, Debye-Ang):
   XX=             -9.6285   YY=             10.5080   ZZ=            -14.9879
   XY=             -5.4719   XZ=              0.0000   YZ=              0.0000

 \MP4DQ=-33.890912\MP4SDQ=-33.8929419\CCSD=-33.8939976\CCSD(T)=-33.8965
 Normal termination of Gaussian 16 at Sun Dec 10 06:43:10 2023.
