 Gaussian 16, Revision A.03,
 Gaussian 16:  ES64L-G16RevA.03 25-Dec-2016

 ------------------
 #p CCSD(T)/CEP-31G
 ------------------

 -----------
 H2O_H2O_916
 -----------
 Symbolic Z-matrix:
 Charge =  0 Multiplicity = 1

                         Standard orientation:
 ---------------------------------------------------------------------
 Center     Atomic      Atomic             Coordinates (Angstroms)
 Number     Number       Type             X           Y           Z
 ---------------------------------------------------------------------
      1          8           0        0.049556   -1.251409    0.000000
      2          1           0       -0.751911   -1.819877    0.000000
      3          1           0        0.847223   -1.825198    0.000000
      4          8           0        0.049556    1.308192    0.000000
      5          1           0       -0.042018    2.286518    0.000000
      6          1           0       -0.846193    0.904287    0.000000
 ---------------------------------------------------------------------

 SCF Done:  E(RHF) =  -33.6420559606     A.U. after   11 cycles
 E2 =    -0.2300563476D+00 EUMP2 =    -0.33872112308267D+02
 CCSD(T)
 CCSD(T)= -0.33889404324D+02

 The electronic state is 1-A'.
 Alpha  occ. eigenvalues --   -1.34687  -1.32072  -0.70336  -0.67906  -0.54690
 Alpha  occ. eigenvalues --   -0.50645  -0.49278  -0.46491
 Alpha virt. eigenvalues --    0.19961   0.25230   0.31129   0.33350   0.78174
 Alpha virt. eigenvalues --    0.82996   0.88001   0.88026   0.93633   1.16299
 Alpha virt. eigenvalues --    1.18952   1.21948   1.22850   1.29706   2.61752

 Mulliken charges:
               1
     1  O   -0.739831
     2  H    0.353353
     3  H    0.381305
     4  O   -0.703169
     5  H    0.339529
     6  H    0.368814
 Sum of Mulliken charges =  -0.00000

 Dipole moment (field-independent basis, Debye):
    X=             -2.1337    Y=             -1.4272    Z=              0.0000  Tot=              2.5670
 Quadrupole moment (field-independent basis, Debye-Ang):
   XX=             -9.6553   YY=             -1.3139   ZZ=            -14.9934
   XY=             -2.4247   XZ=              0.0000   YZ=              0.0000

 MP4DQ=-33.8834867\MP4SDQ=-33.8856424\CCSD=-33.8866931\CCSD(T)=-33.8894
 Normal termination of Gaussian 16 at Sun Dec 10 06:41:53 2023.
