 Gaussian 16, Revision A.03,
 Gaussian 16:  ES64L-G16RevA.03 25-Dec-2016

 ------------------
 #p CCSD(T)/CEP-31G
 ------------------

 ------------
 H2O_H2O_4501
 ------------
 Symbolic Z-matrix:
 Charge =  0 Multiplicity = 1

                         Standard orientation:
 ---------------------------------------------------------------------
 Center     Atomic      Atomic             Coordinates (Angstroms)
 Number     Number       Type             X           Y           Z
 ---------------------------------------------------------------------
      1          8           0        0.003735   -3.196730    0.000000
      2          1           0       -0.795893   -3.767782    0.000000
      3          1           0        0.803249   -3.767943    0.000000
      4          8           0        0.003735    3.196974    0.000000
      5          1           0        0.764304    3.819101    0.000000
      6          1           0       -0.831426    3.714673    0.000000
 ---------------------------------------------------------------------

 SCF Done:  E(RHF) =  -33.6506419808     A.U. after   10 cycles
 E2 =    -0.2284385821D+00 EUMP2 =    -0.33879080562944D+02
 CCSD(T)
 CCSD(T)= -0.33896113913D+02

 The electronic state is 1-A'.
 Alpha  occ. eigenvalues --   -1.35007  -1.35005  -0.70634  -0.70632  -0.54678
 Alpha  occ. eigenvalues --   -0.54676  -0.49561  -0.49559
 Alpha virt. eigenvalues --    0.20701   0.20704   0.30933   0.30935   0.80993
 Alpha virt. eigenvalues --    0.80995   0.84124   0.84137   0.87198   0.87200
 Alpha virt. eigenvalues --    1.17846   1.17848   1.22313   1.22315   2.57891

 Mulliken charges:
               1
     1  O   -0.737033
     2  H    0.368422
     3  H    0.368612
     4  O   -0.737031
     5  H    0.368383
     6  H    0.368648
 Sum of Mulliken charges =   0.00000

 Dipole moment (field-independent basis, Debye):
    X=             -0.1724    Y=             -0.0057    Z=              0.0000  Tot=              0.1725
 Quadrupole moment (field-independent basis, Debye-Ang):
   XX=             -8.0468   YY=             21.8895   ZZ=            -14.9868
   XY=             -0.4354   XZ=              0.0000   YZ=              0.0000

 MP4DQ=-33.8904608\MP4SDQ=-33.8924915\CCSD=-33.8935492\CCSD(T)=-33.8961
 Normal termination of Gaussian 16 at Sun Dec 10 07:01:50 2023.
