 Gaussian 16, Revision A.03,
 Gaussian 16:  ES64L-G16RevA.03 25-Dec-2016

 ------------------
 #p CCSD(T)/CEP-31G
 ------------------

 ------------
 H2O_H2O_2085
 ------------
 Symbolic Z-matrix:
 Charge =  0 Multiplicity = 1

                         Standard orientation:
 ---------------------------------------------------------------------
 Center     Atomic      Atomic             Coordinates (Angstroms)
 Number     Number       Type             X           Y           Z
 ---------------------------------------------------------------------
      1          8           0        0.034787   -1.894398    0.000000
      2          1           0       -0.765680   -2.464274    0.000000
      3          1           0        0.833460   -2.466785    0.000000
      4          8           0        0.034787    1.917894    0.000000
      5          1           0        0.322922    2.857299    0.000000
      6          1           0       -0.947291    1.885797    0.000000
 ---------------------------------------------------------------------

 SCF Done:  E(RHF) =  -33.6479001112     A.U. after   11 cycles
 E2 =    -0.2287313881D+00 EUMP2 =    -0.33876631499314D+02
 CCSD(T)
 CCSD(T)= -0.33893752861D+02

 The electronic state is 1-A'.
 Alpha  occ. eigenvalues --   -1.34448  -1.33943  -0.70073  -0.69540  -0.54059
 Alpha  occ. eigenvalues --   -0.53332  -0.48968  -0.48460
 Alpha virt. eigenvalues --    0.20732   0.21973   0.31344   0.31821   0.78097
 Alpha virt. eigenvalues --    0.81022   0.82640   0.86064   0.88709   0.96260
 Alpha virt. eigenvalues --    1.18292   1.18867   1.22791   1.23329   2.58058

 Mulliken charges:
               1
     1  O   -0.727861
     2  H    0.360403
     3  H    0.367598
     4  O   -0.725652
     5  H    0.357981
     6  H    0.367532
 Sum of Mulliken charges =  -0.00000

 Dipole moment (field-independent basis, Debye):
    X=             -1.5843    Y=             -0.5711    Z=              0.0000  Tot=              1.6841
 Quadrupole moment (field-independent basis, Debye-Ang):
   XX=             -8.8557   YY=              6.5863   ZZ=            -14.9853
   XY=             -2.3001   XZ=              0.0000   YZ=              0.0000

 \MP4DQ=-33.8880604\MP4SDQ=-33.8901115\CCSD=-33.8911663\CCSD(T)=-33.893
 Normal termination of Gaussian 16 at Sun Dec 10 07:04:55 2023.
