 Gaussian 16, Revision A.03,
 Gaussian 16:  ES64L-G16RevA.03 25-Dec-2016

 ------------------
 #p CCSD(T)/CEP-31G
 ------------------

 -----------
 H2O_H2O_286
 -----------
 Symbolic Z-matrix:
 Charge =  0 Multiplicity = 1

                         Standard orientation:
 ---------------------------------------------------------------------
 Center     Atomic      Atomic             Coordinates (Angstroms)
 Number     Number       Type             X           Y           Z
 ---------------------------------------------------------------------
      1          8           0        0.037706   -0.934595    0.000000
      2          1           0       -0.763812   -1.502992    0.000000
      3          1           0        0.835320   -1.508456    0.000000
      4          8           0        0.037706    0.962684    0.000000
      5          1           0        0.265549    1.918504    0.000000
      6          1           0       -0.940347    0.868231    0.000000
 ---------------------------------------------------------------------

 SCF Done:  E(RHF) =  -33.5790175394     A.U. after   11 cycles
 E2 =    -0.2333542926D+00 EUMP2 =    -0.33812371832042D+02
 CCSD(T)
 CCSD(T)= -0.33829514353D+02

 The electronic state is 1-A'.
 Alpha  occ. eigenvalues --   -1.34878  -1.30112  -0.70260  -0.67407  -0.58278
 Alpha  occ. eigenvalues --   -0.49668  -0.43927  -0.41255
 Alpha virt. eigenvalues --    0.20646   0.27238   0.31787   0.33410   0.80674
 Alpha virt. eigenvalues --    0.83810   0.89924   0.96257   0.99122   1.18967
 Alpha virt. eigenvalues --    1.19568   1.24972   1.26537   1.32271   2.51789

 Mulliken charges:
               1
     1  O   -0.742860
     2  H    0.341943
     3  H    0.382247
     4  O   -0.667690
     5  H    0.341782
     6  H    0.344579
 Sum of Mulliken charges =   0.00000

 Dipole moment (field-independent basis, Debye):
    X=             -1.4410    Y=             -0.6861    Z=              0.0000  Tot=              1.5960
 Quadrupole moment (field-independent basis, Debye-Ang):
   XX=             -9.1549   YY=             -5.0201   ZZ=            -15.0003
   XY=             -1.0333   XZ=              0.0000   YZ=              0.0000

 P4DQ=-33.8231552\MP4SDQ=-33.8255486\CCSD=-33.8264583\CCSD(T)=-33.82951
 Normal termination of Gaussian 16 at Sun Dec 10 06:30:06 2023.
