 Gaussian 16, Revision A.03,
 Gaussian 16:  ES64L-G16RevA.03 25-Dec-2016

 ------------------
 #p CCSD(T)/CEP-31G
 ------------------

 ------------
 H2O_H2O_1125
 ------------
 Symbolic Z-matrix:
 Charge =  0 Multiplicity = 1

                         Standard orientation:
 ---------------------------------------------------------------------
 Center     Atomic      Atomic             Coordinates (Angstroms)
 Number     Number       Type             X           Y           Z
 ---------------------------------------------------------------------
      1          8           0        0.000000   -0.000000    1.401915
      2          1           0        0.000000    0.799571    1.973047
      3          1           0       -0.000000   -0.799571    1.973047
      4          8           0        0.000000   -0.000000   -1.401915
      5          1           0       -0.000000   -0.799571   -1.973047
      6          1           0        0.000000    0.799571   -1.973047
 ---------------------------------------------------------------------

 SCF Done:  E(RHF) =  -33.6374722054     A.U. after   10 cycles
 E2 =    -0.2294559245D+00 EUMP2 =    -0.33866928129844D+02
 CCSD(T)
 CCSD(T)= -0.33884340496D+02

 The electronic state is 1-AG.
 Alpha  occ. eigenvalues --   -1.33037  -1.32721  -0.68616  -0.68362  -0.53936
 Alpha  occ. eigenvalues --   -0.49832  -0.47659  -0.46888
 Alpha virt. eigenvalues --    0.21402   0.23379   0.32312   0.32679   0.79666
 Alpha virt. eigenvalues --    0.80922   0.81656   0.87172   1.01363   1.08397
 Alpha virt. eigenvalues --    1.19414   1.20248   1.24302   1.24400   2.58661

 Mulliken charges:
               1
     1  O   -0.703885
     2  H    0.351943
     3  H    0.351943
     4  O   -0.703885
     5  H    0.351943
     6  H    0.351943
 Sum of Mulliken charges =  -0.00000

 Dipole moment (field-independent basis, Debye):
    X=             -0.0000    Y=              0.0000    Z=              0.0000  Tot=              0.0000
 Quadrupole moment (field-independent basis, Debye-Ang):
   XX=            -14.9872   YY=             -8.2067   ZZ=              2.1035
   XY=              0.0000   XZ=             -0.0000   YZ=             -0.0000

 3.8784952\MP4SDQ=-33.8805875\CCSD=-33.8816773\CCSD(T)=-33.8843405\RMSD
 Normal termination of Gaussian 16 at Sun Dec 10 06:45:47 2023.
