 Gaussian 16, Revision A.03,
 Gaussian 16:  ES64L-G16RevA.03 25-Dec-2016

 ------------------
 #p CCSD(T)/CEP-31G
 ------------------

 ------------
 H2O_H2O_1922
 ------------
 Symbolic Z-matrix:
 Charge =  0 Multiplicity = 1

                         Standard orientation:
 ---------------------------------------------------------------------
 Center     Atomic      Atomic             Coordinates (Angstroms)
 Number     Number       Type             X           Y           Z
 ---------------------------------------------------------------------
      1          8           0        0.056758   -1.760314    0.000000
      2          1           0       -0.744348   -2.329290    0.000000
      3          1           0        0.854788   -2.333597    0.000000
      4          8           0        0.056758    1.859325    0.000000
      5          1           0       -0.402785    2.727845    0.000000
      6          1           0       -0.615785    1.142951    0.000000
 ---------------------------------------------------------------------

 SCF Done:  E(RHF) =  -33.6531264104     A.U. after   11 cycles
 E2 =    -0.2286860112D+00 EUMP2 =    -0.33881812421604D+02
 CCSD(T)
 CCSD(T)= -0.33898806389D+02

 The electronic state is 1-A'.
 Alpha  occ. eigenvalues --   -1.35927  -1.33452  -0.71570  -0.69009  -0.55741
 Alpha  occ. eigenvalues --   -0.53195  -0.50516  -0.48044
 Alpha virt. eigenvalues --    0.19238   0.23217   0.30059   0.32995   0.78114
 Alpha virt. eigenvalues --    0.79594   0.82929   0.85892   0.86703   0.97617
 Alpha virt. eigenvalues --    1.16973   1.20068   1.21465   1.26754   2.55007

 Mulliken charges:
               1
     1  O   -0.745339
     2  H    0.366756
     3  H    0.379785
     4  O   -0.743216
     5  H    0.355831
     6  H    0.386184
 Sum of Mulliken charges =   0.00000

 Dipole moment (field-independent basis, Debye):
    X=             -2.5789    Y=             -2.4364    Z=              0.0000  Tot=              3.5478
 Quadrupole moment (field-independent basis, Debye-Ang):
   XX=            -10.1099   YY=              0.3548   ZZ=            -14.9931
   XY=             -4.8517   XZ=              0.0000   YZ=              0.0000

 P4DQ=-33.8931182\MP4SDQ=-33.8951778\CCSD=-33.8962149\CCSD(T)=-33.89880
 Normal termination of Gaussian 16 at Sun Dec 10 07:00:52 2023.
