 Gaussian 16, Revision A.03,
 Gaussian 16:  ES64L-G16RevA.03 25-Dec-2016

 ------------------
 #p CCSD(T)/CEP-31G
 ------------------

 ------------
 H2O_H2O_2248
 ------------
 Symbolic Z-matrix:
 Charge =  0 Multiplicity = 1

                         Standard orientation:
 ---------------------------------------------------------------------
 Center     Atomic      Atomic             Coordinates (Angstroms)
 Number     Number       Type             X           Y           Z
 ---------------------------------------------------------------------
      1          8           0        0.057123   -1.929109    0.000000
      2          1           0       -0.743859   -2.498261    0.000000
      3          1           0        0.855278   -2.502218    0.000000
      4          8           0        0.057123    2.035583    0.000000
      5          1           0       -0.458424    2.872074    0.000000
      6          1           0       -0.566961    1.276619    0.000000
 ---------------------------------------------------------------------

 SCF Done:  E(RHF) =  -33.6532533236     A.U. after   11 cycles
 E2 =    -0.2285303478D+00 EUMP2 =    -0.33881783671378D+02
 CCSD(T)
 CCSD(T)= -0.33898754852D+02

 The electronic state is 1-A'.
 Alpha  occ. eigenvalues --   -1.35971  -1.33789  -0.71612  -0.69357  -0.55793
 Alpha  occ. eigenvalues --   -0.53541  -0.50562  -0.48380
 Alpha virt. eigenvalues --    0.19331   0.22613   0.30044   0.32523   0.79877
 Alpha virt. eigenvalues --    0.80506   0.82250   0.85554   0.86220   0.92109
 Alpha virt. eigenvalues --    1.16970   1.19566   1.21369   1.25565   2.56036

 Mulliken charges:
               1
     1  O   -0.745623
     2  H    0.368268
     3  H    0.378184
     4  O   -0.744882
     5  H    0.359398
     6  H    0.384655
 Sum of Mulliken charges =  -0.00000

 Dipole moment (field-independent basis, Debye):
    X=             -2.6086    Y=             -2.5854    Z=              0.0000  Tot=              3.6727
 Quadrupole moment (field-independent basis, Debye-Ang):
   XX=            -10.1424   YY=              0.7608   ZZ=            -14.9926
   XY=             -5.4610   XZ=              0.0000   YZ=              0.0000

 \MP4DQ=-33.893093\MP4SDQ=-33.8951378\CCSD=-33.8961786\CCSD(T)=-33.8987
 Normal termination of Gaussian 16 at Sun Dec 10 07:07:52 2023.
