 Gaussian 16, Revision A.03,
 Gaussian 16:  ES64L-G16RevA.03 25-Dec-2016

 ------------------
 #p CCSD(T)/CEP-31G
 ------------------

 ------------
 H2O_H2O_3597
 ------------
 Symbolic Z-matrix:
 Charge =  0 Multiplicity = 1

                         Standard orientation:
 ---------------------------------------------------------------------
 Center     Atomic      Atomic             Coordinates (Angstroms)
 Number     Number       Type             X           Y           Z
 ---------------------------------------------------------------------
      1          8           0        0.056714   -2.651087    0.000000
      2          1           0       -0.743886   -3.220775    0.000000
      3          1           0        0.855253   -3.223662    0.000000
      4          8           0        0.056714    2.750200    0.000000
      5          1           0       -0.403601    3.618311    0.000000
      6          1           0       -0.615192    2.033228    0.000000
 ---------------------------------------------------------------------

 SCF Done:  E(RHF) =  -33.6520684837     A.U. after   11 cycles
 E2 =    -0.2283863409D+00 EUMP2 =    -0.33880454824526D+02
 CCSD(T)
 CCSD(T)= -0.33897446686D+02

 The electronic state is 1-A'.
 Alpha  occ. eigenvalues --   -1.35685  -1.34661  -0.71319  -0.70272  -0.55437
 Alpha  occ. eigenvalues --   -0.54394  -0.50260  -0.49236
 Alpha virt. eigenvalues --    0.20089   0.21170   0.30342   0.31394   0.80293
 Alpha virt. eigenvalues --    0.81296   0.83256   0.84352   0.86410   0.87539
 Alpha virt. eigenvalues --    1.17229   1.18249   1.21683   1.22739   2.57230

 Mulliken charges:
               1
     1  O   -0.742142
     2  H    0.368961
     3  H    0.373187
     4  O   -0.741719
     5  H    0.365866
     6  H    0.375847
 Sum of Mulliken charges =  -0.00000

 Dipole moment (field-independent basis, Debye):
    X=             -2.6121    Y=             -2.3338    Z=              0.0000  Tot=              3.5028
 Quadrupole moment (field-independent basis, Debye-Ang):
   XX=            -10.1256   YY=              5.8556   ZZ=            -14.9895
   XY=             -7.1367   XZ=              0.0000   YZ=              0.0000

 MP4DQ=-33.8918043\MP4SDQ=-33.8938316\CCSD=-33.8948855\CCSD(T)=-33.8974
 Normal termination of Gaussian 16 at Sun Dec 10 06:44:39 2023.
