 Gaussian 16, Revision A.03,
 Gaussian 16:  ES64L-G16RevA.03 25-Dec-2016

 ------------------
 #p CCSD(T)/CEP-31G
 ------------------

 ------------
 H2O_H2O_1837
 ------------
 Symbolic Z-matrix:
 Charge =  0 Multiplicity = 1

                         Standard orientation:
 ---------------------------------------------------------------------
 Center     Atomic      Atomic             Coordinates (Angstroms)
 Number     Number       Type             X           Y           Z
 ---------------------------------------------------------------------
      1          8           0        0.040418   -1.756115    0.000000
      2          1           0       -0.760272   -2.325678    0.000000
      3          1           0        0.838867   -2.328814    0.000000
      4          8           0        0.040418    1.789413    0.000000
      5          1           0        0.203849    2.758327    0.000000
      6          1           0       -0.929131    1.629783    0.000000
 ---------------------------------------------------------------------

 SCF Done:  E(RHF) =  -33.6477053690     A.U. after   11 cycles
 E2 =    -0.2288476848D+00 EUMP2 =    -0.33876553053763D+02
 CCSD(T)
 CCSD(T)= -0.33893695482D+02

 The electronic state is 1-A'.
 Alpha  occ. eigenvalues --   -1.34507  -1.33673  -0.70134  -0.69253  -0.54147
 Alpha  occ. eigenvalues --   -0.53012  -0.49028  -0.48189
 Alpha virt. eigenvalues --    0.20483   0.22432   0.31262   0.32078   0.76119
 Alpha virt. eigenvalues --    0.80560   0.83324   0.85510   0.89166   1.01707
 Alpha virt. eigenvalues --    1.18217   1.19418   1.22705   1.23687   2.57820

 Mulliken charges:
               1
     1  O   -0.727537
     2  H    0.358863
     3  H    0.368962
     4  O   -0.723629
     5  H    0.354805
     6  H    0.368535
 Sum of Mulliken charges =  -0.00000

 Dipole moment (field-independent basis, Debye):
    X=             -1.8313    Y=             -0.8178    Z=              0.0000  Tot=              2.0057
 Quadrupole moment (field-independent basis, Debye-Ang):
   XX=             -9.1273   YY=              4.6847   ZZ=            -14.9859
   XY=             -2.5595   XZ=              0.0000   YZ=              0.0000

 \MP4DQ=-33.8879832\MP4SDQ=-33.8900471\CCSD=-33.8910989\CCSD(T)=-33.893
 Normal termination of Gaussian 16 at Sun Dec 10 06:59:01 2023.
