 Gaussian 16, Revision A.03,
 Gaussian 16:  ES64L-G16RevA.03 25-Dec-2016

 ------------------
 #p CCSD(T)/CEP-31G
 ------------------

 ------------
 H2O_H2O_2333
 ------------
 Symbolic Z-matrix:
 Charge =  0 Multiplicity = 1

                         Standard orientation:
 ---------------------------------------------------------------------
 Center     Atomic      Atomic             Coordinates (Angstroms)
 Number     Number       Type             X           Y           Z
 ---------------------------------------------------------------------
      1          8           0        0.028566   -2.031844    0.000000
      2          1           0       -0.771693   -2.602012    0.000000
      3          1           0        0.827448   -2.603940    0.000000
      4          8           0        0.028566    2.047079    0.000000
      5          1           0        0.436528    2.940988    0.000000
      6          1           0       -0.949334    2.143087    0.000000
 ---------------------------------------------------------------------

 SCF Done:  E(RHF) =  -33.6481742337     A.U. after   11 cycles
 E2 =    -0.2286510539D+00 EUMP2 =    -0.33876825287541D+02
 CCSD(T)
 CCSD(T)= -0.33893932620D+02

 The electronic state is 1-A'.
 Alpha  occ. eigenvalues --   -1.34440  -1.34156  -0.70064  -0.69765  -0.54038
 Alpha  occ. eigenvalues --   -0.53595  -0.48961  -0.48676
 Alpha virt. eigenvalues --    0.20899   0.21640   0.31367   0.31629   0.80265
 Alpha virt. eigenvalues --    0.81285   0.82169   0.86544   0.88315   0.92119
 Alpha virt. eigenvalues --    1.18312   1.18601   1.22810   1.23099   2.58237

 Mulliken charges:
               1
     1  O   -0.728677
     2  H    0.361892
     3  H    0.366833
     4  O   -0.727515
     5  H    0.360526
     6  H    0.366941
 Sum of Mulliken charges =   0.00000

 Dipole moment (field-independent basis, Debye):
    X=             -1.3056    Y=             -0.3669    Z=              0.0000  Tot=              1.3562
 Quadrupole moment (field-independent basis, Debye-Ang):
   XX=             -8.6003   YY=              8.4635   ZZ=            -14.9851
   XY=             -1.9820   XZ=              0.0000   YZ=              0.0000

 \MP4DQ=-33.8882521\MP4SDQ=-33.8902953\CCSD=-33.8913528\CCSD(T)=-33.893
 Normal termination of Gaussian 16 at Sun Dec 10 07:09:23 2023.
