 Gaussian 16, Revision A.03,
 Gaussian 16:  ES64L-G16RevA.03 25-Dec-2016

 ------------------
 #p CCSD(T)/CEP-31G
 ------------------

 ------------
 H2O_H2O_3245
 ------------
 Symbolic Z-matrix:
 Charge =  0 Multiplicity = 1

                         Standard orientation:
 ---------------------------------------------------------------------
 Center     Atomic      Atomic             Coordinates (Angstroms)
 Number     Number       Type             X           Y           Z
 ---------------------------------------------------------------------
      1          8           0        0.055247   -2.472905    0.000000
      2          1           0       -0.745401   -3.042526    0.000000
      3          1           0        0.853738   -3.045546    0.000000
      4          8           0        0.055247    2.557359    0.000000
      5          1           0       -0.287742    3.478154    0.000000
      6          1           0       -0.704546    1.934286    0.000000
 ---------------------------------------------------------------------

 SCF Done:  E(RHF) =  -33.6517546931     A.U. after   11 cycles
 E2 =    -0.2284172317D+00 EUMP2 =    -0.33880171924727D+02
 CCSD(T)
 CCSD(T)= -0.33897173114D+02

 The electronic state is 1-A'.
 Alpha  occ. eigenvalues --   -1.35553  -1.34534  -0.71186  -0.70138  -0.55288
 Alpha  occ. eigenvalues --   -0.54251  -0.50124  -0.49105
 Alpha virt. eigenvalues --    0.20179   0.21298   0.30451   0.31491   0.80431
 Alpha virt. eigenvalues --    0.81427   0.83291   0.84605   0.86560   0.87773
 Alpha virt. eigenvalues --    1.17347   1.18367   1.21799   1.22869   2.57355

 Mulliken charges:
               1
     1  O   -0.741051
     2  H    0.367961
     3  H    0.373106
     4  O   -0.740227
     5  H    0.364638
     6  H    0.375572
 Sum of Mulliken charges =   0.00000

 Dipole moment (field-independent basis, Debye):
    X=             -2.5415    Y=             -1.9963    Z=              0.0000  Tot=              3.2318
 Quadrupole moment (field-independent basis, Debye-Ang):
   XX=            -10.0165   YY=              6.3835   ZZ=            -14.9892
   XY=             -6.2246   XZ=              0.0000   YZ=              0.0000

 \MP4DQ=-33.8915278\MP4SDQ=-33.8935564\CCSD=-33.8946102\CCSD(T)=-33.897
 Normal termination of Gaussian 16 at Sun Dec 10 06:38:16 2023.
