 Gaussian 16, Revision A.03,
 Gaussian 16:  ES64L-G16RevA.03 25-Dec-2016

 ------------------
 #p CCSD(T)/CEP-31G
 ------------------

 ------------
 H2O_H2O_4196
 ------------
 Symbolic Z-matrix:
 Charge =  0 Multiplicity = 1

                         Standard orientation:
 ---------------------------------------------------------------------
 Center     Atomic      Atomic             Coordinates (Angstroms)
 Number     Number       Type             X           Y           Z
 ---------------------------------------------------------------------
      1          8           0        0.056089   -2.974181    0.000000
      2          1           0       -0.744393   -3.544036    0.000000
      3          1           0        0.854747   -3.546589    0.000000
      4          8           0        0.056089    3.065944    0.000000
      5          1           0       -0.346649    3.962218    0.000000
      6          1           0       -0.661131    2.394303    0.000000
 ---------------------------------------------------------------------

 SCF Done:  E(RHF) =  -33.6518600895     A.U. after   11 cycles
 E2 =    -0.2283853203D+00 EUMP2 =    -0.33880245409783D+02
 CCSD(T)
 CCSD(T)= -0.33897243356D+02

 The electronic state is 1-A'.
 Alpha  occ. eigenvalues --   -1.35612  -1.34863  -0.71245  -0.70481  -0.55351
 Alpha  occ. eigenvalues --   -0.54592  -0.50185  -0.49435
 Alpha virt. eigenvalues --    0.20163   0.20935   0.30404   0.31166   0.80368
 Alpha virt. eigenvalues --    0.81104   0.83381   0.84143   0.86499   0.87314
 Alpha virt. eigenvalues --    1.17293   1.18038   1.21750   1.22510   2.57307

 Mulliken charges:
               1
     1  O   -0.741394
     2  H    0.369151
     3  H    0.372244
     4  O   -0.741100
     5  H    0.367096
     6  H    0.374003
 Sum of Mulliken charges =   0.00000

 Dipole moment (field-independent basis, Debye):
    X=             -2.5872    Y=             -2.1501    Z=              0.0000  Tot=              3.3640
 Quadrupole moment (field-independent basis, Debye-Ang):
   XX=            -10.0821   YY=              8.8187   ZZ=            -14.9889
   XY=             -7.7446   XZ=              0.0000   YZ=              0.0000

 1\MP4DQ=-33.8915997\MP4SDQ=-33.8936273\CCSD=-33.8946822\CCSD(T)=-33.89
 Normal termination of Gaussian 16 at Sun Dec 10 06:55:38 2023.
