 Gaussian 16, Revision A.03,
 Gaussian 16:  ES64L-G16RevA.03 25-Dec-2016

 ------------------
 #p CCSD(T)/CEP-31G
 ------------------

 ------------
 H2O_H2O_3098
 ------------
 Symbolic Z-matrix:
 Charge =  0 Multiplicity = 1

                         Standard orientation:
 ---------------------------------------------------------------------
 Center     Atomic      Atomic             Coordinates (Angstroms)
 Number     Number       Type             X           Y           Z
 ---------------------------------------------------------------------
      1          8           0        0.057098   -2.381143    0.000000
      2          1           0       -0.743622   -2.950662    0.000000
      3          1           0        0.855517   -2.953885    0.000000
      4          8           0        0.057098    2.487668    0.000000
      5          1           0       -0.458832    3.323924    0.000000
      6          1           0       -0.566637    1.728419    0.000000
 ---------------------------------------------------------------------

 SCF Done:  E(RHF) =  -33.6524506595     A.U. after   11 cycles
 E2 =    -0.2283921958D+00 EUMP2 =    -0.33880842855244D+02
 CCSD(T)
 CCSD(T)= -0.33897823682D+02

 The electronic state is 1-A'.
 Alpha  occ. eigenvalues --   -1.35798  -1.34422  -0.71434  -0.70023  -0.55574
 Alpha  occ. eigenvalues --   -0.54164  -0.50379  -0.49002
 Alpha virt. eigenvalues --    0.19915   0.21506   0.30241   0.31677   0.80178
 Alpha virt. eigenvalues --    0.81519   0.82923   0.84732   0.86254   0.87859
 Alpha virt. eigenvalues --    1.17131   1.18534   1.21569   1.23130   2.57129

 Mulliken charges:
               1
     1  O   -0.743441
     2  H    0.368953
     3  H    0.374557
     4  O   -0.742913
     5  H    0.364370
     6  H    0.378474
 Sum of Mulliken charges =  -0.00000

 Dipole moment (field-independent basis, Debye):
    X=             -2.6245    Y=             -2.5257    Z=              0.0000  Tot=              3.6424
 Quadrupole moment (field-independent basis, Debye-Ang):
   XX=            -10.1510   YY=              3.3864   ZZ=            -14.9904
   XY=             -6.6279   XZ=              0.0000   YZ=              0.0000

 8\MP4DQ=-33.8921823\MP4SDQ=-33.8942103\CCSD=-33.8952617\CCSD(T)=-33.89
 Normal termination of Gaussian 16 at Sun Dec 10 06:35:40 2023.
