 Gaussian 16, Revision A.03,
 Gaussian 16:  ES64L-G16RevA.03 25-Dec-2016

 ------------------
 #p CCSD(T)/CEP-31G
 ------------------

 -----------
 H2O_H2O_834
 -----------
 Symbolic Z-matrix:
 Charge =  0 Multiplicity = 1

                         Standard orientation:
 ---------------------------------------------------------------------
 Center     Atomic      Atomic             Coordinates (Angstroms)
 Number     Number       Type             X           Y           Z
 ---------------------------------------------------------------------
      1          8           0        0.031751   -1.231983    0.000000
      2          1           0       -0.769074   -1.801354    0.000000
      3          1           0        0.830064   -1.804873    0.000000
      4          8           0        0.031751    1.251094    0.000000
      5          1           0        0.381288    2.169424    0.000000
      6          1           0       -0.950302    1.283915    0.000000
 ---------------------------------------------------------------------

 SCF Done:  E(RHF) =  -33.6334225722     A.U. after   11 cycles
 E2 =    -0.2301058773D+00 EUMP2 =    -0.33863528449544D+02
 CCSD(T)
 CCSD(T)= -0.33880947991D+02

 The electronic state is 1-A'.
 Alpha  occ. eigenvalues --   -1.33261  -1.32115  -0.68832  -0.67807  -0.54875
 Alpha  occ. eigenvalues --   -0.48451  -0.47954  -0.46230
 Alpha virt. eigenvalues --    0.20952   0.24541   0.32272   0.32852   0.79097
 Alpha virt. eigenvalues --    0.81186   0.88399   0.88721   0.99688   1.13910
 Alpha virt. eigenvalues --    1.19304   1.22610   1.24096   1.27399   2.55669

 Mulliken charges:
               1
     1  O   -0.715991
     2  H    0.345968
     3  H    0.365582
     4  O   -0.695166
     5  H    0.346438
     6  H    0.353168
 Sum of Mulliken charges =   0.00000

 Dipole moment (field-independent basis, Debye):
    X=             -1.3541    Y=             -0.4655    Z=              0.0000  Tot=              1.4319
 Quadrupole moment (field-independent basis, Debye-Ang):
   XX=             -8.8359   YY=             -0.4616   ZZ=            -14.9938
   XY=             -1.1599   XZ=              0.0000   YZ=              0.0000

 MP4DQ=-33.8750128\MP4SDQ=-33.8771475\CCSD=-33.8782309\CCSD(T)=-33.8809
 Normal termination of Gaussian 16 at Sun Dec 10 06:40:21 2023.
