 Gaussian 16, Revision A.03,
 Gaussian 16:  ES64L-G16RevA.03 25-Dec-2016

 ------------------
 #p CCSD(T)/CEP-31G
 ------------------

 -----------
 H2O_H2O_316
 -----------
 Symbolic Z-matrix:
 Charge =  0 Multiplicity = 1

                         Standard orientation:
 ---------------------------------------------------------------------
 Center     Atomic      Atomic             Coordinates (Angstroms)
 Number     Number       Type             X           Y           Z
 ---------------------------------------------------------------------
      1          8           0        0.049588   -0.932364    0.000000
      2          1           0       -0.752507   -1.499946    0.000000
      3          1           0        0.846619   -1.507034    0.000000
      4          8           0        0.049588    0.989038    0.000000
      5          1           0       -0.040906    1.967464    0.000000
      6          1           0       -0.846607    0.586123    0.000000
 ---------------------------------------------------------------------

 SCF Done:  E(RHF) =  -33.5854440213     A.U. after   11 cycles
 E2 =    -0.2331138808D+00 EUMP2 =    -0.33818557902106D+02
 CCSD(T)
 CCSD(T)= -0.33835668858D+02

 The electronic state is 1-A'.
 Alpha  occ. eigenvalues --   -1.36175  -1.30116  -0.72054  -0.68660  -0.55355
 Alpha  occ. eigenvalues --   -0.50652  -0.44472  -0.44256
 Alpha virt. eigenvalues --    0.19929   0.27884   0.30832   0.33852   0.79632
 Alpha virt. eigenvalues --    0.84801   0.89881   0.96248   0.98926   1.16840
 Alpha virt. eigenvalues --    1.19837   1.25288   1.27105   1.33035   2.58387

 Mulliken charges:
               1
     1  O   -0.774295
     2  H    0.350336
     3  H    0.399457
     4  O   -0.655747
     5  H    0.323142
     6  H    0.357107
 Sum of Mulliken charges =   0.00000

 Dipole moment (field-independent basis, Debye):
    X=             -1.9105    Y=             -1.4230    Z=              0.0000  Tot=              2.3823
 Quadrupole moment (field-independent basis, Debye-Ang):
   XX=             -9.6942   YY=             -5.3635   ZZ=            -14.9848
   XY=             -1.6987   XZ=              0.0000   YZ=              0.0000

 P4DQ=-33.829314\MP4SDQ=-33.8317123\CCSD=-33.832603\CCSD(T)=-33.8356689
 Normal termination of Gaussian 16 at Sun Dec 10 06:30:41 2023.
