 Gaussian 16, Revision A.03,
 Gaussian 16:  ES64L-G16RevA.03 25-Dec-2016

 ------------------
 #p CCSD(T)/CEP-31G
 ------------------

 -----------
 H2O_H2O_322
 -----------
 Symbolic Z-matrix:
 Charge =  0 Multiplicity = 1

                         Standard orientation:
 ---------------------------------------------------------------------
 Center     Atomic      Atomic             Coordinates (Angstroms)
 Number     Number       Type             X           Y           Z
 ---------------------------------------------------------------------
      1          8           0        0.056876   -0.909517    0.000000
      2          1           0       -0.745588   -1.476577    0.000000
      3          1           0        0.853534   -1.484707    0.000000
      4          8           0        0.056876    1.008257    0.000000
      5          1           0       -0.400590    1.877873    0.000000
      6          1           0       -0.617377    0.293493    0.000000
 ---------------------------------------------------------------------

 SCF Done:  E(RHF) =  -33.5713241215     A.U. after   11 cycles
 E2 =    -0.2328492368D+00 EUMP2 =    -0.33804173358315D+02
 CCSD(T)
 CCSD(T)= -0.33820279458D+02

 The electronic state is 1-A'.
 Alpha  occ. eigenvalues --   -1.39852  -1.28981  -0.76350  -0.71261  -0.53477
 Alpha  occ. eigenvalues --   -0.50196  -0.47989  -0.43379
 Alpha virt. eigenvalues --    0.18821   0.28366   0.29408   0.37210   0.77835
 Alpha virt. eigenvalues --    0.84466   0.90329   0.94218   0.99118   1.16056
 Alpha virt. eigenvalues --    1.19065   1.22227   1.32180   1.32681   2.78371

 Mulliken charges:
               1
     1  O   -0.799400
     2  H    0.367547
     3  H    0.439682
     4  O   -0.682543
     5  H    0.299808
     6  H    0.374906
 Sum of Mulliken charges =  -0.00000

 Dipole moment (field-independent basis, Debye):
    X=             -2.1746    Y=             -2.7887    Z=              0.0000  Tot=              3.5363
 Quadrupole moment (field-independent basis, Debye-Ang):
   XX=            -10.0766   YY=             -6.7750   ZZ=            -14.9663
   XY=             -2.5367   XZ=              0.0000   YZ=              0.0000

 P4DQ=-33.81384\MP4SDQ=-33.8162946\CCSD=-33.8170442\CCSD(T)=-33.8202795
 Normal termination of Gaussian 16 at Sun Dec 10 06:30:47 2023.
