 Gaussian 16, Revision A.03,
 Gaussian 16:  ES64L-G16RevA.03 25-Dec-2016

 ------------------
 #p CCSD(T)/CEP-31G
 ------------------

 ------------
 H2O_H2O_3913
 ------------
 Symbolic Z-matrix:
 Charge =  0 Multiplicity = 1

                         Standard orientation:
 ---------------------------------------------------------------------
 Center     Atomic      Atomic             Coordinates (Angstroms)
 Number     Number       Type             X           Y           Z
 ---------------------------------------------------------------------
      1          8           0        0.042965   -2.856688    0.000000
      2          1           0       -0.757339   -3.426792    0.000000
      3          1           0        0.841801   -3.428847    0.000000
      4          8           0        0.042965    2.895489    0.000000
      5          1           0        0.142016    3.873086    0.000000
      6          1           0       -0.913917    2.672143    0.000000
 ---------------------------------------------------------------------

 SCF Done:  E(RHF) =  -33.6509088843     A.U. after   11 cycles
 E2 =    -0.2284375431D+00 EUMP2 =    -0.33879346427394D+02
 CCSD(T)
 CCSD(T)= -0.33896372074D+02

 The electronic state is 1-A'.
 Alpha  occ. eigenvalues --   -1.35187  -1.34833  -0.70816  -0.70452  -0.54873
 Alpha  occ. eigenvalues --   -0.54517  -0.49745  -0.49392
 Alpha virt. eigenvalues --    0.20535   0.20897   0.30770   0.31119   0.80808
 Alpha virt. eigenvalues --    0.81156   0.83910   0.84273   0.86995   0.87410
 Alpha virt. eigenvalues --    1.17677   1.18028   1.22143   1.22496   2.57715

 Mulliken charges:
               1
     1  O   -0.738025
     2  H    0.367575
     3  H    0.370450
     4  O   -0.737554
     5  H    0.366433
     6  H    0.371121
 Sum of Mulliken charges =  -0.00000

 Dipole moment (field-independent basis, Debye):
    X=             -1.9809    Y=             -0.9105    Z=              0.0000  Tot=              2.1801
 Quadrupole moment (field-independent basis, Debye-Ang):
   XX=             -9.2369   YY=             14.3395   ZZ=            -14.9874
   XY=             -4.9148   XZ=              0.0000   YZ=              0.0000

 \MP4DQ=-33.890721\MP4SDQ=-33.8927512\CCSD=-33.8938078\CCSD(T)=-33.8963
 Normal termination of Gaussian 16 at Sun Dec 10 06:50:30 2023.
