 Gaussian 16, Revision A.03,
 Gaussian 16:  ES64L-G16RevA.03 25-Dec-2016

 ------------------
 #p CCSD(T)/CEP-31G
 ------------------

 ------------
 H2O_H2O_3909
 ------------
 Symbolic Z-matrix:
 Charge =  0 Multiplicity = 1

                         Standard orientation:
 ---------------------------------------------------------------------
 Center     Atomic      Atomic             Coordinates (Angstroms)
 Number     Number       Type             X           Y           Z
 ---------------------------------------------------------------------
      1          8           0        0.031740   -2.867339    0.000000
      2          1           0       -0.768373   -3.437711    0.000000
      3          1           0        0.830768   -3.439229    0.000000
      4          8           0        0.031740    2.886529    0.000000
      5          1           0        0.380127    3.805296    0.000000
      6          1           0       -0.950354    2.918121    0.000000
 ---------------------------------------------------------------------

 SCF Done:  E(RHF) =  -33.6505499730     A.U. after   11 cycles
 E2 =    -0.2284522001D+00 EUMP2 =    -0.33879002173061D+02
 CCSD(T)
 CCSD(T)= -0.33896038169D+02

 The electronic state is 1-A'.
 Alpha  occ. eigenvalues --   -1.35025  -1.34850  -0.70653  -0.70473  -0.54690
 Alpha  occ. eigenvalues --   -0.54515  -0.49578  -0.49403
 Alpha virt. eigenvalues --    0.20678   0.20856   0.30910   0.31081   0.80975
 Alpha virt. eigenvalues --    0.81148   0.84105   0.84310   0.87183   0.87395
 Alpha virt. eigenvalues --    1.17824   1.17997   1.22292   1.22466   2.57871

 Mulliken charges:
               1
     1  O   -0.736745
     2  H    0.367300
     3  H    0.369445
     4  O   -0.736449
     5  H    0.366642
     6  H    0.369807
 Sum of Mulliken charges =   0.00000

 Dipole moment (field-independent basis, Debye):
    X=             -1.4634    Y=             -0.4503    Z=              0.0000  Tot=              1.5311
 Quadrupole moment (field-independent basis, Debye-Ang):
   XX=             -8.6948   YY=             16.5032   ZZ=            -14.9868
   XY=             -3.4316   XZ=              0.0000   YZ=              0.0000

 P4DQ=-33.8903843\MP4SDQ=-33.8924154\CCSD=-33.8934728\CCSD(T)=-33.89603
 Normal termination of Gaussian 16 at Sun Dec 10 06:50:25 2023.
