 Gaussian 16, Revision A.03,
 Gaussian 16:  ES64L-G16RevA.03 25-Dec-2016

 ------------------
 #p CCSD(T)/CEP-31G
 ------------------

 -----------
 H2O_H2O_426
 -----------
 Symbolic Z-matrix:
 Charge =  0 Multiplicity = 1

                         Standard orientation:
 ---------------------------------------------------------------------
 Center     Atomic      Atomic             Coordinates (Angstroms)
 Number     Number       Type             X           Y           Z
 ---------------------------------------------------------------------
      1          8           0        0.003735   -1.029498    0.000000
      2          1           0       -0.796014   -1.600380    0.000000
      3          1           0        0.803128   -1.600880    0.000000
      4          8           0        0.003735    1.029740    0.000000
      5          1           0        0.764436    1.651706    0.000000
      6          1           0       -0.831316    1.547615    0.000000
 ---------------------------------------------------------------------

 SCF Done:  E(RHF) =  -33.5984304710     A.U. after   11 cycles
 E2 =    -0.2320518018D+00 EUMP2 =    -0.33830482272737D+02
 CCSD(T)
 CCSD(T)= -0.33847671706D+02

 The electronic state is 1-A'.
 Alpha  occ. eigenvalues --   -1.33019  -1.30576  -0.68180  -0.66470  -0.58311
 Alpha  occ. eigenvalues --   -0.47954  -0.44218  -0.41861
 Alpha virt. eigenvalues --    0.21587   0.25834   0.32882   0.33413   0.78180
 Alpha virt. eigenvalues --    0.80682   0.90248   0.95964   1.03490   1.20173
 Alpha virt. eigenvalues --    1.21052   1.22938   1.23642   1.27397   2.48911

 Mulliken charges:
               1
     1  O   -0.697883
     2  H    0.346842
     3  H    0.350876
     4  O   -0.697265
     5  H    0.349514
     6  H    0.347917
 Sum of Mulliken charges =  -0.00000

 Dipole moment (field-independent basis, Debye):
    X=             -0.1463    Y=             -0.0057    Z=              0.0000  Tot=              0.1464
 Quadrupole moment (field-independent basis, Debye-Ang):
   XX=             -8.3365   YY=             -3.3432   ZZ=            -15.0242
   XY=             -0.0836   XZ=              0.0000   YZ=              0.0000

 MP4DQ=-33.8414962\MP4SDQ=-33.8437307\CCSD=-33.8447396\CCSD(T)=-33.8476
 Normal termination of Gaussian 16 at Sun Dec 10 06:32:44 2023.
