 Gaussian 16, Revision A.03,
 Gaussian 16:  ES64L-G16RevA.03 25-Dec-2016

 ------------------
 #p CCSD(T)/CEP-31G
 ------------------

 -----------
 H2O_H2O_109
 -----------
 Symbolic Z-matrix:
 Charge =  0 Multiplicity = 1

                         Standard orientation:
 ---------------------------------------------------------------------
 Center     Atomic      Atomic             Coordinates (Angstroms)
 Number     Number       Type             X           Y           Z
 ---------------------------------------------------------------------
      1          8           0        0.031761   -0.846434    0.000000
      2          1           0       -0.769629   -1.415012    0.000000
      3          1           0        0.829505   -1.420115    0.000000
      4          8           0        0.031761    0.865482    0.000000
      5          1           0        0.382207    1.783466    0.000000
      6          1           0       -0.950259    0.899277    0.000000
 ---------------------------------------------------------------------

 SCF Done:  E(RHF) =  -33.5185779336     A.U. after   12 cycles
 E2 =    -0.2365326012D+00 EUMP2 =    -0.33755110534736D+02
 CCSD(T)
 CCSD(T)= -0.33771840710D+02

 The electronic state is 1-A'.
 Alpha  occ. eigenvalues --   -1.36717  -1.29165  -0.71483  -0.67869  -0.61053
 Alpha  occ. eigenvalues --   -0.51297  -0.42886  -0.35412
 Alpha virt. eigenvalues --    0.20684   0.28225   0.31584   0.33550   0.81705
 Alpha virt. eigenvalues --    0.83610   0.89312   0.91951   0.99825   1.19550
 Alpha virt. eigenvalues --    1.22116   1.24367   1.26919   1.36987   2.52971

 Mulliken charges:
               1
     1  O   -0.725577
     2  H    0.334172
     3  H    0.379725
     4  O   -0.668496
     5  H    0.337983
     6  H    0.342192
 Sum of Mulliken charges =  -0.00000

 Dipole moment (field-independent basis, Debye):
    X=             -1.1572    Y=             -0.5072    Z=              0.0000  Tot=              1.2635
 Quadrupole moment (field-independent basis, Debye-Ang):
   XX=             -8.9913   YY=             -6.9482   ZZ=            -14.9928
   XY=             -0.7697   XZ=              0.0000   YZ=              0.0000

 MP4DQ=-33.7651209\MP4SDQ=-33.7677844\CCSD=-33.7684669\CCSD(T)=-33.7718
 Normal termination of Gaussian 16 at Sun Dec 10 06:26:46 2023.
