 Gaussian 16, Revision A.03,
 Gaussian 16:  ES64L-G16RevA.03 25-Dec-2016

 ------------------
 #p CCSD(T)/CEP-31G
 ------------------

 ------------
 H2O_H2O_4108
 ------------
 Symbolic Z-matrix:
 Charge =  0 Multiplicity = 1

                         Standard orientation:
 ---------------------------------------------------------------------
 Center     Atomic      Atomic             Coordinates (Angstroms)
 Number     Number       Type             X           Y           Z
 ---------------------------------------------------------------------
      1          8           0        0.028563   -2.975842    0.000000
      2          1           0       -0.771479   -3.546315    0.000000
      3          1           0        0.827663   -3.547633    0.000000
      4          8           0        0.028563    2.991099    0.000000
      5          1           0        0.436184    3.885163    0.000000
      6          1           0       -0.949374    3.086734    0.000000
 ---------------------------------------------------------------------

 SCF Done:  E(RHF) =  -33.6506158499     A.U. after   11 cycles
 E2 =    -0.2284457534D+00 EUMP2 =    -0.33879061603258D+02
 CCSD(T)
 CCSD(T)= -0.33896095690D+02

 The electronic state is 1-A'.
 Alpha  occ. eigenvalues --   -1.35035  -1.34906  -0.70663  -0.70530  -0.54704
 Alpha  occ. eigenvalues --   -0.54575  -0.49588  -0.49460
 Alpha virt. eigenvalues --    0.20672   0.20803   0.30904   0.31030   0.80965
 Alpha virt. eigenvalues --    0.81092   0.84099   0.84236   0.87170   0.87325
 Alpha virt. eigenvalues --    1.17817   1.17945   1.22285   1.22413   2.57863

 Mulliken charges:
               1
     1  O   -0.736965
     2  H    0.367608
     3  H    0.369356
     4  O   -0.736757
     5  H    0.367100
     6  H    0.369657
 Sum of Mulliken charges =   0.00000

 Dipole moment (field-independent basis, Debye):
    X=             -1.3175    Y=             -0.3575    Z=              0.0000  Tot=              1.3652
 Quadrupole moment (field-independent basis, Debye-Ang):
   XX=             -8.5694   YY=             17.9870   ZZ=            -14.9869
   XY=             -3.1902   XZ=              0.0000   YZ=              0.0000

 MP4DQ=-33.8904424\MP4SDQ=-33.8924732\CCSD=-33.8935307\CCSD(T)=-33.8960
 Normal termination of Gaussian 16 at Sun Dec 10 06:54:06 2023.
