 Gaussian 16, Revision A.03,
 Gaussian 16:  ES64L-G16RevA.03 25-Dec-2016

 ------------------
 #p CCSD(T)/CEP-31G
 ------------------

 ------------
 H2O_H2O_4193
 ------------
 Symbolic Z-matrix:
 Charge =  0 Multiplicity = 1

                         Standard orientation:
 ---------------------------------------------------------------------
 Center     Atomic      Atomic             Coordinates (Angstroms)
 Number     Number       Type             X           Y           Z
 ---------------------------------------------------------------------
      1          8           0        0.052819   -2.985807    0.000000
      2          1           0       -0.747610   -3.555736    0.000000
      3          1           0        0.851530   -3.558140    0.000000
      4          8           0        0.052819    3.056162    0.000000
      5          1           0       -0.167416    4.013764    0.000000
      6          1           0       -0.781603    2.537271    0.000000
 ---------------------------------------------------------------------

 SCF Done:  E(RHF) =  -33.6515284240     A.U. after   11 cycles
 E2 =    -0.2284033509D+00 EUMP2 =    -0.33879931774827D+02
 CCSD(T)
 CCSD(T)= -0.33896939407D+02

 The electronic state is 1-A'.
 Alpha  occ. eigenvalues --   -1.35458  -1.34881  -0.71090  -0.70500  -0.55179
 Alpha  occ. eigenvalues --   -0.54595  -0.50026  -0.49449
 Alpha virt. eigenvalues --    0.20298   0.20891   0.30537   0.31117   0.80527
 Alpha virt. eigenvalues --    0.81095   0.83574   0.84155   0.86678   0.87320
 Alpha virt. eigenvalues --    1.17433   1.18006   1.21893   1.22475   2.57456

 Mulliken charges:
               1
     1  O   -0.740216
     2  H    0.368610
     3  H    0.371606
     4  O   -0.739820
     5  H    0.366974
     6  H    0.372846
 Sum of Mulliken charges =  -0.00000

 Dipole moment (field-independent basis, Debye):
    X=             -2.4366    Y=             -1.6483    Z=              0.0000  Tot=              2.9417
 Quadrupole moment (field-independent basis, Debye-Ang):
   XX=             -9.8495   YY=             11.6860   ZZ=            -14.9884
   XY=             -6.9295   XZ=              0.0000   YZ=              0.0000

 1\MP4DQ=-33.8912932\MP4SDQ=-33.8933217\CCSD=-33.8943772\CCSD(T)=-33.89
 Normal termination of Gaussian 16 at Sun Dec 10 06:55:35 2023.
