 Gaussian 16, Revision A.03,
 Gaussian 16:  ES64L-G16RevA.03 25-Dec-2016

 ------------------
 #p CCSD(T)/CEP-31G
 ------------------

 -----------
 H2O_H2O_154
 -----------
 Symbolic Z-matrix:
 Charge =  0 Multiplicity = 1

                         Standard orientation:
 ---------------------------------------------------------------------
 Center     Atomic      Atomic             Coordinates (Angstroms)
 Number     Number       Type             X           Y           Z
 ---------------------------------------------------------------------
      1          8           0        0.014785   -0.881283    0.000000
      2          1           0       -0.785608   -1.451262    0.000000
      3          1           0        0.813532   -1.453566    0.000000
      4          8           0        0.014785    0.885133    0.000000
      5          1           0        0.640384    1.642847    0.000000
      6          1           0       -0.904865    1.231184    0.000000
 ---------------------------------------------------------------------

 SCF Done:  E(RHF) =  -33.5331002443     A.U. after   11 cycles
 E2 =    -0.2358708337D+00 EUMP2 =    -0.33768971078055D+02
 CCSD(T)
 CCSD(T)= -0.33785675722D+02

 The electronic state is 1-A'.
 Alpha  occ. eigenvalues --   -1.35217  -1.29348  -0.69631  -0.66155  -0.62795
 Alpha  occ. eigenvalues --   -0.50102  -0.42862  -0.35281
 Alpha virt. eigenvalues --    0.21255   0.27678   0.32128   0.33652   0.80033
 Alpha virt. eigenvalues --    0.81940   0.89663   0.90159   1.05087   1.20029
 Alpha virt. eigenvalues --    1.21778   1.23817   1.27917   1.34286   2.49649

 Mulliken charges:
               1
     1  O   -0.701962
     2  H    0.338334
     3  H    0.361023
     4  O   -0.689920
     5  H    0.348777
     6  H    0.343747
 Sum of Mulliken charges =   0.00000

 Dipole moment (field-independent basis, Debye):
    X=             -0.5441    Y=             -0.1020    Z=              0.0000  Tot=              0.5536
 Quadrupole moment (field-independent basis, Debye-Ang):
   XX=             -8.5673   YY=             -6.2998   ZZ=            -15.0304
   XY=             -0.3222   XZ=              0.0000   YZ=              0.0000

 MP4DQ=-33.7790466\MP4SDQ=-33.7816257\CCSD=-33.7823799\CCSD(T)=-33.7856
 Normal termination of Gaussian 16 at Sun Dec 10 06:27:37 2023.
