 Gaussian 16, Revision A.03,
 Gaussian 16:  ES64L-G16RevA.03 25-Dec-2016

 ------------------
 #p CCSD(T)/CEP-31G
 ------------------

 -----------
 H2O_H2O_238
 -----------
 Symbolic Z-matrix:
 Charge =  0 Multiplicity = 1

                         Standard orientation:
 ---------------------------------------------------------------------
 Center     Atomic      Atomic             Coordinates (Angstroms)
 Number     Number       Type             X           Y           Z
 ---------------------------------------------------------------------
      1          8           0        0.043018   -0.902311    0.000000
      2          1           0       -0.758838   -1.470231    0.000000
      3          1           0        0.840291   -1.476645    0.000000
      4          8           0        0.043018    0.940878    0.000000
      5          1           0        0.144733    1.918201    0.000000
      6          1           0       -0.914469    0.720141    0.000000
 ---------------------------------------------------------------------

 SCF Done:  E(RHF) =  -33.5667247860     A.U. after   11 cycles
 E2 =    -0.2339669929D+00 EUMP2 =    -0.33800691778984D+02
 CCSD(T)
 CCSD(T)= -0.33817796834D+02

 The electronic state is 1-A'.
 Alpha  occ. eigenvalues --   -1.35880  -1.29849  -0.71439  -0.68115  -0.57578
 Alpha  occ. eigenvalues --   -0.50479  -0.43782  -0.41116
 Alpha virt. eigenvalues --    0.20332   0.27815   0.31360   0.33484   0.80607
 Alpha virt. eigenvalues --    0.84783   0.89769   0.95975   0.98173   1.18892
 Alpha virt. eigenvalues --    1.19855   1.25643   1.27069   1.33753   2.54392

 Mulliken charges:
               1
     1  O   -0.757368
     2  H    0.343643
     3  H    0.390282
     4  O   -0.656124
     5  H    0.331953
     6  H    0.347616
 Sum of Mulliken charges =   0.00000

 Dipole moment (field-independent basis, Debye):
    X=             -1.6228    Y=             -0.9583    Z=              0.0000  Tot=              1.8846
 Quadrupole moment (field-independent basis, Debye-Ang):
   XX=             -9.3877   YY=             -5.6849   ZZ=            -14.9865
   XY=             -1.2356   XZ=              0.0000   YZ=              0.0000

 MP4DQ=-33.8113503\MP4SDQ=-33.8138118\CCSD=-33.8146662\CCSD(T)=-33.8177
 Normal termination of Gaussian 16 at Sun Dec 10 06:29:12 2023.
