 Gaussian 16, Revision A.03,
 Gaussian 16:  ES64L-G16RevA.03 25-Dec-2016

 ------------------
 #p CCSD(T)/CEP-31G
 ------------------

 -----------
 H2O_H2O_143
 -----------
 Symbolic Z-matrix:
 Charge =  0 Multiplicity = 1

                         Standard orientation:
 ---------------------------------------------------------------------
 Center     Atomic      Atomic             Coordinates (Angstroms)
 Number     Number       Type             X           Y           Z
 ---------------------------------------------------------------------
      1          8           0        0.052950   -0.832075    0.000000
      2          1           0       -0.749602   -1.399011    0.000000
      3          1           0        0.849518   -1.407388    0.000000
      4          8           0        0.052950    0.902035    0.000000
      5          1           0       -0.163706    1.860454    0.000000
      6          1           0       -0.783404    0.386265    0.000000
 ---------------------------------------------------------------------

 SCF Done:  E(RHF) =  -33.5172608225     A.U. after   11 cycles
 E2 =    -0.2354248966D+00 EUMP2 =    -0.33752685719094D+02
 CCSD(T)
 CCSD(T)= -0.33769398670D+02

 The electronic state is 1-A'.
 Alpha  occ. eigenvalues --   -1.39715  -1.28938  -0.75863  -0.70730  -0.53708
 Alpha  occ. eigenvalues --   -0.53151  -0.43290  -0.41475
 Alpha virt. eigenvalues --    0.19492   0.29357   0.29886   0.34291   0.79886
 Alpha virt. eigenvalues --    0.83540   0.89543   0.95563   0.97285   1.18094
 Alpha virt. eigenvalues --    1.21189   1.25923   1.29640   1.37098   2.66700

 Mulliken charges:
               1
     1  O   -0.786571
     2  H    0.349768
     3  H    0.417228
     4  O   -0.637194
     5  H    0.296117
     6  H    0.360653
 Sum of Mulliken charges =  -0.00000

 Dipole moment (field-independent basis, Debye):
    X=             -1.9204    Y=             -1.8512    Z=              0.0000  Tot=              2.6674
 Quadrupole moment (field-independent basis, Debye-Ang):
   XX=             -9.8838   YY=             -7.4111   ZZ=            -14.9380
   XY=             -1.7103   XZ=              0.0000   YZ=              0.0000

 \MP4DQ=-33.7626823\MP4SDQ=-33.7653245\CCSD=-33.7660009\CCSD(T)=-33.769
 Normal termination of Gaussian 16 at Sun Dec 10 06:27:25 2023.
