 Gaussian 16, Revision A.03,
 Gaussian 16:  ES64L-G16RevA.03 25-Dec-2016

 ------------------
 #p CCSD(T)/CEP-31G
 ------------------

 ------------
 H2O_H2O_4509
 ------------
 Symbolic Z-matrix:
 Charge =  0 Multiplicity = 1

                         Standard orientation:
 ---------------------------------------------------------------------
 Center     Atomic      Atomic             Coordinates (Angstroms)
 Number     Number       Type             X           Y           Z
 ---------------------------------------------------------------------
      1          8           0        0.031739   -3.186437    0.000000
      2          1           0       -0.768320   -3.756885    0.000000
      3          1           0        0.830821   -3.758252    0.000000
      4          8           0        0.031739    3.205633    0.000000
      5          1           0        0.380039    4.124433    0.000000
      6          1           0       -0.950358    3.237134    0.000000
 ---------------------------------------------------------------------

 SCF Done:  E(RHF) =  -33.6508927568     A.U. after   11 cycles
 E2 =    -0.2284289399D+00 EUMP2 =    -0.33879321696615D+02
 CCSD(T)
 CCSD(T)= -0.33896347842D+02

 The electronic state is 1-A'.
 Alpha  occ. eigenvalues --   -1.35134  -1.34993  -0.70763  -0.70618  -0.54819
 Alpha  occ. eigenvalues --   -0.54678  -0.49692  -0.49551
 Alpha virt. eigenvalues --    0.20588   0.20731   0.30821   0.30959   0.80861
 Alpha virt. eigenvalues --    0.81000   0.83973   0.84111   0.87051   0.87215
 Alpha virt. eigenvalues --    1.17729   1.17869   1.22194   1.22335   2.57768

 Mulliken charges:
               1
     1  O   -0.737933
     2  H    0.368166
     3  H    0.369766
     4  O   -0.737751
     5  H    0.367662
     6  H    0.370089
 Sum of Mulliken charges =   0.00000

 Dipole moment (field-independent basis, Debye):
    X=             -1.4651    Y=             -0.4488    Z=              0.0000  Tot=              1.5323
 Quadrupole moment (field-independent basis, Debye-Ang):
   XX=             -8.6910   YY=             19.6332   ZZ=            -14.9872
   XY=             -3.8925   XZ=              0.0000   YZ=              0.0000

 \MP4DQ=-33.8906967\MP4SDQ=-33.8927268\CCSD=-33.8937838\CCSD(T)=-33.896
 Normal termination of Gaussian 16 at Sun Dec 10 07:02:13 2023.
