 Gaussian 16, Revision A.03,
 Gaussian 16:  ES64L-G16RevA.03 25-Dec-2016

 ------------------
 #p CCSD(T)/CEP-31G
 ------------------

 ------------
 H2O_H2O_4500
 ------------
 Symbolic Z-matrix:
 Charge =  0 Multiplicity = 1

                         Standard orientation:
 ---------------------------------------------------------------------
 Center     Atomic      Atomic             Coordinates (Angstroms)
 Number     Number       Type             X           Y           Z
 ---------------------------------------------------------------------
      1          8           0        0.000000   -0.000000    3.196863
      2          1           0        0.000000    0.799571    3.767995
      3          1           0       -0.000000   -0.799571    3.767995
      4          8           0        0.000000   -0.000000   -3.196863
      5          1           0       -0.000000   -0.799571   -3.767995
      6          1           0        0.000000    0.799571   -3.767995
 ---------------------------------------------------------------------

 SCF Done:  E(RHF) =  -33.6506388133     A.U. after   10 cycles
 E2 =    -0.2284386408D+00 EUMP2 =    -0.33879077454095D+02
 CCSD(T)
 CCSD(T)= -0.33896110894D+02

 The electronic state is 1-AG.
 Alpha  occ. eigenvalues --   -1.35005  -1.35005  -0.70632  -0.70632  -0.54676
 Alpha  occ. eigenvalues --   -0.54675  -0.49559  -0.49559
 Alpha virt. eigenvalues --    0.20702   0.20704   0.30934   0.30935   0.80995
 Alpha virt. eigenvalues --    0.80995   0.84125   0.84138   0.87200   0.87201
 Alpha virt. eigenvalues --    1.17848   1.17848   1.22315   1.22315   2.57892

 Mulliken charges:
               1
     1  O   -0.737022
     2  H    0.368511
     3  H    0.368511
     4  O   -0.737022
     5  H    0.368511
     6  H    0.368511
 Sum of Mulliken charges =  -0.00000

 Dipole moment (field-independent basis, Debye):
    X=             -0.0000    Y=              0.0000    Z=             -0.0000  Tot=              0.0000
 Quadrupole moment (field-independent basis, Debye-Ang):
   XX=            -14.9868   YY=             -8.0377   ZZ=             21.9178
   XY=              0.0000   XZ=              0.0000   YZ=             -0.0000

 -33.8904578\MP4SDQ=-33.8924885\CCSD=-33.8935461\CCSD(T)=-33.8961109\RM
 Normal termination of Gaussian 16 at Sun Dec 10 07:01:47 2023.
