 Gaussian 16, Revision A.03,
 Gaussian 16:  ES64L-G16RevA.03 25-Dec-2016

 ------------------
 #p CCSD(T)/CEP-31G
 ------------------

 ------------
 H2O_H2O_1000
 ------------
 Symbolic Z-matrix:
 Charge =  0 Multiplicity = 1

                         Standard orientation:
 ---------------------------------------------------------------------
 Center     Atomic      Atomic             Coordinates (Angstroms)
 Number     Number       Type             X           Y           Z
 ---------------------------------------------------------------------
      1          8           0        0.000000   -0.000000    1.335436
      2          1           0        0.000000    0.799571    1.906568
      3          1           0       -0.000000   -0.799571    1.906568
      4          8           0        0.000000   -0.000000   -1.335436
      5          1           0       -0.000000   -0.799571   -1.906568
      6          1           0        0.000000    0.799571   -1.906568
 ---------------------------------------------------------------------

 SCF Done:  E(RHF) =  -33.6348414655     A.U. after   10 cycles
 E2 =    -0.2296643989D+00 EUMP2 =    -0.33864505864383D+02
 CCSD(T)
 CCSD(T)= -0.33881936149D+02

 The electronic state is 1-AG.
 Alpha  occ. eigenvalues --   -1.32895  -1.32443  -0.68452  -0.68099  -0.54217
 Alpha  occ. eigenvalues --   -0.48979  -0.47552  -0.46538
 Alpha virt. eigenvalues --    0.21465   0.23691   0.32471   0.32802   0.79531
 Alpha virt. eigenvalues --    0.80036   0.84591   0.87934   1.04058   1.08016
 Alpha virt. eigenvalues --    1.19538   1.20711   1.24405   1.24713   2.57528

 Mulliken charges:
               1
     1  O   -0.701561
     2  H    0.350781
     3  H    0.350781
     4  O   -0.701561
     5  H    0.350781
     6  H    0.350781
 Sum of Mulliken charges =   0.00000

 Dipole moment (field-independent basis, Debye):
    X=             -0.0000    Y=              0.0000    Z=              0.0000  Tot=              0.0000
 Quadrupole moment (field-independent basis, Debye-Ang):
   XX=            -14.9902   YY=             -8.2242   ZZ=              1.2445
   XY=              0.0000   XZ=             -0.0000   YZ=             -0.0000

 .8760608\MP4SDQ=-33.8781573\CCSD=-33.8792516\CCSD(T)=-33.8819361\RMSD=
 Normal termination of Gaussian 16 at Sun Dec 10 06:43:27 2023.
