 Gaussian 16, Revision A.03,
 Gaussian 16:  ES64L-G16RevA.03 25-Dec-2016

 ------------------
 #p CCSD(T)/CEP-31G
 ------------------

 ------------
 H2O_H2O_1194
 ------------
 Symbolic Z-matrix:
 Charge =  0 Multiplicity = 1

                         Standard orientation:
 ---------------------------------------------------------------------
 Center     Atomic      Atomic             Coordinates (Angstroms)
 Number     Number       Type             X           Y           Z
 ---------------------------------------------------------------------
      1          8           0        0.054209   -1.386600    0.000000
      2          1           0       -0.747224   -1.955117    0.000000
      3          1           0        0.851910   -1.960341    0.000000
      4          8           0        0.054209    1.463756    0.000000
      5          1           0       -0.226526    2.405401    0.000000
      6          1           0       -0.745497    0.892811    0.000000
 ---------------------------------------------------------------------

 SCF Done:  E(RHF) =  -33.6493226491     A.U. after   11 cycles
 E2 =    -0.2294883325D+00 EUMP2 =    -0.33878810981613D+02
 CCSD(T)
 CCSD(T)= -0.33895960156D+02

 The electronic state is 1-A'.
 Alpha  occ. eigenvalues --   -1.35470  -1.32437  -0.71122  -0.68132  -0.55106
 Alpha  occ. eigenvalues --   -0.51986  -0.50042  -0.46988
 Alpha virt. eigenvalues --    0.19504   0.24865   0.30480   0.33681   0.78155
 Alpha virt. eigenvalues --    0.78410   0.86288   0.86853   0.90824   1.14759
 Alpha virt. eigenvalues --    1.17629   1.20837   1.22368   1.28557   2.59064

 Mulliken charges:
               1
     1  O   -0.743914
     2  H    0.359441
     3  H    0.384260
     4  O   -0.724306
     5  H    0.343122
     6  H    0.381397
 Sum of Mulliken charges =   0.00000

 Dipole moment (field-independent basis, Debye):
    X=             -2.3904    Y=             -1.9546    Z=              0.0000  Tot=              3.0878
 Quadrupole moment (field-independent basis, Debye-Ang):
   XX=             -9.9291   YY=             -0.9446   ZZ=            -14.9944
   XY=             -3.3296   XZ=              0.0000   YZ=              0.0000

 MP4DQ=-33.8901328\MP4SDQ=-33.8922571\CCSD=-33.8932948\CCSD(T)=-33.8959
 Normal termination of Gaussian 16 at Sun Dec 10 06:47:04 2023.
