 Gaussian 16, Revision A.03,
 Gaussian 16:  ES64L-G16RevA.03 25-Dec-2016

 ------------------
 #p CCSD(T)/CEP-31G
 ------------------

 ----------
 H2O_H2O_64
 ----------
 Symbolic Z-matrix:
 Charge =  0 Multiplicity = 1

                         Standard orientation:
 ---------------------------------------------------------------------
 Center     Atomic      Atomic             Coordinates (Angstroms)
 Number     Number       Type             X           Y           Z
 ---------------------------------------------------------------------
      1          8           0        0.045416   -0.806145    0.000000
      2          1           0       -0.756836   -1.373505    0.000000
      3          1           0        0.842288   -1.381036    0.000000
      4          8           0        0.045416    0.850407    0.000000
      5          1           0        0.083679    1.832264    0.000000
      6          1           0       -0.895782    0.568178    0.000000
 ---------------------------------------------------------------------

 SCF Done:  E(RHF) =  -33.4920475692     A.U. after   12 cycles
 E2 =    -0.2372335282D+00 EUMP2 =    -0.33729281097389D+02
 CCSD(T)
 CCSD(T)= -0.33746068924D+02

 The electronic state is 1-A'.
 Alpha  occ. eigenvalues --   -1.39321  -1.28821  -0.74621  -0.70062  -0.57706
 Alpha  occ. eigenvalues --   -0.53089  -0.42950  -0.36537
 Alpha virt. eigenvalues --    0.19938   0.29043   0.30823   0.33493   0.81038
 Alpha virt. eigenvalues --    0.84152   0.88987   0.94325   0.97139   1.19846
 Alpha virt. eigenvalues --    1.21610   1.25923   1.26599   1.39446   2.60343

 Mulliken charges:
               1
     1  O   -0.755493
     2  H    0.336819
     3  H    0.398073
     4  O   -0.636014
     5  H    0.307248
     6  H    0.349366
 Sum of Mulliken charges =  -0.00000

 Dipole moment (field-independent basis, Debye):
    X=             -1.6150    Y=             -1.1738    Z=              0.0000  Tot=              1.9965
 Quadrupole moment (field-independent basis, Debye-Ang):
   XX=             -9.5285   YY=             -7.8399   ZZ=            -14.9359
   XY=             -1.2102   XZ=              0.0000   YZ=              0.0000

 DQ=-33.7392072\MP4SDQ=-33.7419757\CCSD=-33.7425587\CCSD(T)=-33.7460689
 Normal termination of Gaussian 16 at Sun Dec 10 06:25:55 2023.
