 Gaussian 16, Revision A.03,
 Gaussian 16:  ES64L-G16RevA.03 25-Dec-2016

 ------------------
 #p CCSD(T)/CEP-31G
 ------------------

 -----------
 H2O_H2O_562
 -----------
 Symbolic Z-matrix:
 Charge =  0 Multiplicity = 1

                         Standard orientation:
 ---------------------------------------------------------------------
 Center     Atomic      Atomic             Coordinates (Angstroms)
 Number     Number       Type             X           Y           Z
 ---------------------------------------------------------------------
      1          8           0        0.040438   -1.078075    0.000000
      2          1           0       -0.760943   -1.646665    0.000000
      3          1           0        0.838191   -1.651743    0.000000
      4          8           0        0.040438    1.111274    0.000000
      5          1           0        0.205046    2.079989    0.000000
      6          1           0       -0.929304    0.952822    0.000000
 ---------------------------------------------------------------------

 SCF Done:  E(RHF) =  -33.6209774696     A.U. after   11 cycles
 E2 =    -0.2311826921D+00 EUMP2 =    -0.33852160161715D+02
 CCSD(T)
 CCSD(T)= -0.33869512094D+02

 The electronic state is 1-A'.
 Alpha  occ. eigenvalues --   -1.33868  -1.31291  -0.69426  -0.67485  -0.55977
 Alpha  occ. eigenvalues --   -0.48647  -0.46411  -0.45316
 Alpha virt. eigenvalues --    0.20577   0.25936   0.31916   0.33205   0.79272
 Alpha virt. eigenvalues --    0.83157   0.89735   0.95809   0.99625   1.14127
 Alpha virt. eigenvalues --    1.19170   1.22864   1.24509   1.30970   2.53821

 Mulliken charges:
               1
     1  O   -0.737400
     2  H    0.345975
     3  H    0.377635
     4  O   -0.680332
     5  H    0.342582
     6  H    0.351540
 Sum of Mulliken charges =  -0.00000

 Dipole moment (field-independent basis, Debye):
    X=             -1.6519    Y=             -0.8041    Z=              0.0000  Tot=              1.8372
 Quadrupole moment (field-independent basis, Debye-Ang):
   XX=             -9.2262   YY=             -2.7673   ZZ=            -14.9991
   XY=             -1.3881   XZ=              0.0000   YZ=              0.0000

 MP4DQ=-33.8634296\MP4SDQ=-33.865646\CCSD=-33.8666835\CCSD(T)=-33.86951
 Normal termination of Gaussian 16 at Sun Dec 10 06:35:15 2023.
