 Gaussian 16, Revision A.03,
 Gaussian 16:  ES64L-G16RevA.03 25-Dec-2016

 ------------------
 #p CCSD(T)/CEP-31G
 ------------------

 ------------
 H2O_H2O_3594
 ------------
 Symbolic Z-matrix:
 Charge =  0 Multiplicity = 1

                         Standard orientation:
 ---------------------------------------------------------------------
 Center     Atomic      Atomic             Coordinates (Angstroms)
 Number     Number       Type             X           Y           Z
 ---------------------------------------------------------------------
      1          8           0        0.054149   -2.662920    0.000000
      2          1           0       -0.746405   -3.232673    0.000000
      3          1           0        0.852735   -3.235429    0.000000
      4          8           0        0.054149    2.740243    0.000000
      5          1           0       -0.228039    3.681454    0.000000
      6          1           0       -0.744674    2.168065    0.000000
 ---------------------------------------------------------------------

 SCF Done:  E(RHF) =  -33.6515866999     A.U. after   11 cycles
 E2 =    -0.2284124318D+00 EUMP2 =    -0.33879999131683D+02
 CCSD(T)
 CCSD(T)= -0.33897005101D+02

 The electronic state is 1-A'.
 Alpha  occ. eigenvalues --   -1.35490  -1.34687  -0.71122  -0.70299  -0.55214
 Alpha  occ. eigenvalues --   -0.54401  -0.50058  -0.49257
 Alpha virt. eigenvalues --    0.20263   0.21102   0.30509   0.31318   0.80496
 Alpha virt. eigenvalues --    0.81281   0.83503   0.84368   0.86641   0.87553
 Alpha virt. eigenvalues --    1.17404   1.18200   1.21862   1.22678   2.57420

 Mulliken charges:
               1
     1  O   -0.740448
     2  H    0.368142
     3  H    0.372309
     4  O   -0.739811
     5  H    0.365670
     6  H    0.374138
 Sum of Mulliken charges =   0.00000

 Dipole moment (field-independent basis, Debye):
    X=             -2.4942    Y=             -1.8201    Z=              0.0000  Tot=              3.0877
 Quadrupole moment (field-independent basis, Debye-Ang):
   XX=             -9.9403   YY=              8.4989   ZZ=            -14.9887
   XY=             -6.4362   XZ=              0.0000   YZ=              0.0000

 P4DQ=-33.8913591\MP4SDQ=-33.8933876\CCSD=-33.8944425\CCSD(T)=-33.89700
 Normal termination of Gaussian 16 at Sun Dec 10 06:44:36 2023.
