 Gaussian 16, Revision A.03,
 Gaussian 16:  ES64L-G16RevA.03 25-Dec-2016

 ------------------
 #p CCSD(T)/CEP-31G
 ------------------

 ------------
 H2O_H2O_3856
 ------------
 Symbolic Z-matrix:
 Charge =  0 Multiplicity = 1

                         Standard orientation:
 ---------------------------------------------------------------------
 Center     Atomic      Atomic             Coordinates (Angstroms)
 Number     Number       Type             X           Y           Z
 ---------------------------------------------------------------------
      1          8           0        0.021859   -2.846462    0.000000
      2          1           0       -0.778089   -3.417066    0.000000
      3          1           0        0.821053   -3.418122    0.000000
      4          8           0        0.021859    2.855128    0.000000
      5          1           0        0.542554    3.688425    0.000000
      6          1           0       -0.935264    3.077435    0.000000
 ---------------------------------------------------------------------

 SCF Done:  E(RHF) =  -33.6503171002     A.U. after   11 cycles
 E2 =    -0.2284618617D+00 EUMP2 =    -0.33878778961963D+02
 CCSD(T)
 CCSD(T)= -0.33895821640D+02

 The electronic state is 1-A'.
 Alpha  occ. eigenvalues --   -1.34926  -1.34845  -0.70552  -0.70469  -0.54578
 Alpha  occ. eigenvalues --   -0.54497  -0.49475  -0.49395
 Alpha virt. eigenvalues --    0.20764   0.20847   0.30995   0.31073   0.81079
 Alpha virt. eigenvalues --    0.81158   0.84205   0.84373   0.87300   0.87400
 Alpha virt. eigenvalues --    1.17914   1.17993   1.22384   1.22464   2.57966

 Mulliken charges:
               1
     1  O   -0.735919
     2  H    0.367198
     3  H    0.368720
     4  O   -0.735763
     5  H    0.366816
     6  H    0.368947
 Sum of Mulliken charges =   0.00000

 Dipole moment (field-independent basis, Debye):
    X=             -1.0077    Y=             -0.2034    Z=              0.0000  Tot=              1.0281
 Quadrupole moment (field-independent basis, Debye-Ang):
   XX=             -8.3534   YY=             17.3395   ZZ=            -14.9865
   XY=             -2.2635   XZ=              0.0000   YZ=              0.0000

 MP4DQ=-33.8901659\MP4SDQ=-33.8921976\CCSD=-33.8932555\CCSD(T)=-33.8958
 Normal termination of Gaussian 16 at Sun Dec 10 06:49:26 2023.
