 Gaussian 16, Revision A.03,
 Gaussian 16:  ES64L-G16RevA.03 25-Dec-2016

 ------------------
 #p CCSD(T)/CEP-31G
 ------------------

 ------------
 H2O_H2O_1587
 ------------
 Symbolic Z-matrix:
 Charge =  0 Multiplicity = 1

                         Standard orientation:
 ---------------------------------------------------------------------
 Center     Atomic      Atomic             Coordinates (Angstroms)
 Number     Number       Type             X           Y           Z
 ---------------------------------------------------------------------
      1          8           0        0.040421   -1.623162    0.000000
      2          1           0       -0.760360   -2.192598    0.000000
      3          1           0        0.838779   -2.195988    0.000000
      4          8           0        0.040421    1.656447    0.000000
      5          1           0        0.204006    2.625336    0.000000
      6          1           0       -0.929154    1.496971    0.000000
 ---------------------------------------------------------------------

 SCF Done:  E(RHF) =  -33.6465112082     A.U. after   11 cycles
 E2 =    -0.2290258122D+00 EUMP2 =    -0.33875537020378D+02
 CCSD(T)
 CCSD(T)= -0.33892739387D+02

 The electronic state is 1-A'.
 Alpha  occ. eigenvalues --   -1.34350  -1.33382  -0.69978  -0.68956  -0.54092
 Alpha  occ. eigenvalues --   -0.52501  -0.48868  -0.47876
 Alpha virt. eigenvalues --    0.20446   0.22884   0.31376   0.32284   0.75477
 Alpha virt. eigenvalues --    0.80056   0.84344   0.84782   0.90511   1.07626
 Alpha virt. eigenvalues --    1.18316   1.20199   1.22877   1.24011   2.58339

 Mulliken charges:
               1
     1  O   -0.724775
     2  H    0.356310
     3  H    0.368672
     4  O   -0.718876
     5  H    0.351472
     6  H    0.367196
 Sum of Mulliken charges =   0.00000

 Dipole moment (field-independent basis, Debye):
    X=             -1.8186    Y=             -0.8259    Z=              0.0000  Tot=              1.9973
 Quadrupole moment (field-independent basis, Debye-Ang):
   XX=             -9.1385   YY=              3.3864   ZZ=            -14.9860
   XY=             -2.3278   XZ=              0.0000   YZ=              0.0000

 MP4DQ=-33.8869913\MP4SDQ=-33.8890729\CCSD=-33.8901271\CCSD(T)=-33.8927
 Normal termination of Gaussian 16 at Sun Dec 10 06:54:24 2023.
