 Gaussian 16, Revision A.03,
 Gaussian 16:  ES64L-G16RevA.03 25-Dec-2016

 ------------------
 #p CCSD(T)/CEP-31G
 ------------------

 -----------
 H2O_H2O_850
 -----------
 Symbolic Z-matrix:
 Charge =  0 Multiplicity = 1

                         Standard orientation:
 ---------------------------------------------------------------------
 Center     Atomic      Atomic             Coordinates (Angstroms)
 Number     Number       Type             X           Y           Z
 ---------------------------------------------------------------------
      1          8           0        0.000000   -0.000000    1.255660
      2          1           0        0.000000    0.799571    1.826792
      3          1           0       -0.000000   -0.799571    1.826792
      4          8           0        0.000000   -0.000000   -1.255660
      5          1           0       -0.000000   -0.799571   -1.826792
      6          1           0        0.000000    0.799571   -1.826792
 ---------------------------------------------------------------------

 SCF Done:  E(RHF) =  -33.6304294656     A.U. after   10 cycles
 E2 =    -0.2300001197D+00 EUMP2 =    -0.33860429585306D+02
 CCSD(T)
 CCSD(T)= -0.33877857478D+02

 The electronic state is 1-AG.
 Alpha  occ. eigenvalues --   -1.32753  -1.32057  -0.68270  -0.67742  -0.54751
 Alpha  occ. eigenvalues --   -0.47712  -0.47465  -0.46051
 Alpha virt. eigenvalues --    0.21531   0.24121   0.32662   0.32952   0.79131
 Alpha virt. eigenvalues --    0.79517   0.88798   0.88981   1.06258   1.07782
 Alpha virt. eigenvalues --    1.19693   1.21297   1.24285   1.25309   2.55650

 Mulliken charges:
               1
     1  O   -0.699358
     2  H    0.349679
     3  H    0.349679
     4  O   -0.699358
     5  H    0.349679
     6  H    0.349679
 Sum of Mulliken charges =   0.00000

 Dipole moment (field-independent basis, Debye):
    X=             -0.0000    Y=              0.0000    Z=             -0.0000  Tot=              0.0000
 Quadrupole moment (field-independent basis, Debye-Ang):
   XX=            -14.9957   YY=             -8.2463   ZZ=              0.1658
   XY=              0.0000   XZ=             -0.0000   YZ=             -0.0000

 33.8719374\MP4SDQ=-33.8740432\CCSD=-33.8751373\CCSD(T)=-33.8778575\RMS
 Normal termination of Gaussian 16 at Sun Dec 10 06:40:39 2023.
