 Gaussian 16, Revision A.03,
 Gaussian 16:  ES64L-G16RevA.03 25-Dec-2016

 ------------------
 #p CCSD(T)/CEP-31G
 ------------------

 -----------
 H2O_H2O_641
 -----------
 Symbolic Z-matrix:
 Charge =  0 Multiplicity = 1

                         Standard orientation:
 ---------------------------------------------------------------------
 Center     Atomic      Atomic             Coordinates (Angstroms)
 Number     Number       Type             X           Y           Z
 ---------------------------------------------------------------------
      1          8           0        0.049568   -1.105176    0.000000
      2          1           0       -0.752142   -1.673300    0.000000
      3          1           0        0.846988   -1.679307    0.000000
      4          8           0        0.049568    1.161917    0.000000
      5          1           0       -0.041586    2.140281    0.000000
      6          1           0       -0.846354    0.758396    0.000000
 ---------------------------------------------------------------------

 SCF Done:  E(RHF) =  -33.6302403682     A.U. after   11 cycles
 E2 =    -0.2309583555D+00 EUMP2 =    -0.33861198723726D+02
 CCSD(T)
 CCSD(T)= -0.33878474371D+02

 The electronic state is 1-A'.
 Alpha  occ. eigenvalues --   -1.34801  -1.31366  -0.70475  -0.67866  -0.54920
 Alpha  occ. eigenvalues --   -0.49453  -0.48796  -0.45648
 Alpha virt. eigenvalues --    0.19974   0.26273   0.31126   0.33683   0.78373
 Alpha virt. eigenvalues --    0.84360   0.89373   0.95365   0.96421   1.14537
 Alpha virt. eigenvalues --    1.18884   1.22013   1.24260   1.31387   2.59614

 Mulliken charges:
               1
     1  O   -0.753394
     2  H    0.352159
     3  H    0.388144
     4  O   -0.685258
     5  H    0.334458
     6  H    0.363890
 Sum of Mulliken charges =   0.00000

 Dipole moment (field-independent basis, Debye):
    X=             -2.0549    Y=             -1.4190    Z=              0.0000  Tot=              2.4972
 Quadrupole moment (field-independent basis, Debye-Ang):
   XX=             -9.6697   YY=             -2.9482   ZZ=            -14.9964
   XY=             -2.0992   XZ=              0.0000   YZ=              0.0000

 MP4DQ=-33.8724212\MP4SDQ=-33.8746379\CCSD=-33.8756594\CCSD(T)=-33.8784
 Normal termination of Gaussian 16 at Sun Dec 10 06:36:43 2023.
