 Gaussian 16, Revision A.03,
 Gaussian 16:  ES64L-G16RevA.03 25-Dec-2016

 ------------------
 #p CCSD(T)/CEP-31G
 ------------------

 ------------
 H2O_H2O_4638
 ------------
 Symbolic Z-matrix:
 Charge =  0 Multiplicity = 1

                         Standard orientation:
 ---------------------------------------------------------------------
 Center     Atomic      Atomic             Coordinates (Angstroms)
 Number     Number       Type             X           Y           Z
 ---------------------------------------------------------------------
      1          8           0        0.042962   -3.242262    0.000000
      2          1           0       -0.757256   -3.812488    0.000000
      3          1           0        0.841885   -3.814300    0.000000
      4          8           0        0.042962    3.281077    0.000000
      5          1           0        0.141864    4.258688    0.000000
      6          1           0       -0.913886    3.057584    0.000000
 ---------------------------------------------------------------------

 SCF Done:  E(RHF) =  -33.6511924491     A.U. after   11 cycles
 E2 =    -0.2284146535D+00 EUMP2 =    -0.33879607102510D+02
 CCSD(T)
 CCSD(T)= -0.33896624598D+02

 The electronic state is 1-A'.
 Alpha  occ. eigenvalues --   -1.35279  -1.35007  -0.70909  -0.70630  -0.54981
 Alpha  occ. eigenvalues --   -0.54707  -0.49842  -0.49569
 Alpha virt. eigenvalues --    0.20459   0.20737   0.30695   0.30965   0.80711
 Alpha virt. eigenvalues --    0.80980   0.83793   0.84063   0.86883   0.87192
 Alpha virt. eigenvalues --    1.17597   1.17868   1.22060   1.22333   2.57629

 Mulliken charges:
               1
     1  O   -0.739002
     2  H    0.368490
     3  H    0.370511
     4  O   -0.738742
     5  H    0.367681
     6  H    0.371060
 Sum of Mulliken charges =  -0.00000

 Dipole moment (field-independent basis, Debye):
    X=             -1.9835    Y=             -0.9070    Z=              0.0000  Tot=              2.1811
 Quadrupole moment (field-independent basis, Debye-Ang):
   XX=             -9.2354   YY=             17.7669   ZZ=            -14.9877
   XY=             -5.6706   XZ=              0.0000   YZ=              0.0000

 \MP4DQ=-33.8909758\MP4SDQ=-33.8930051\CCSD=-33.8940616\CCSD(T)=-33.896
 Normal termination of Gaussian 16 at Sun Dec 10 07:05:08 2023.
