 Gaussian 16, Revision A.03,
 Gaussian 16:  ES64L-G16RevA.03 25-Dec-2016

 ------------------
 #p CCSD(T)/CEP-31G
 ------------------

 ------------
 H2O_H2O_1785
 ------------
 Symbolic Z-matrix:
 Charge =  0 Multiplicity = 1

                         Standard orientation:
 ---------------------------------------------------------------------
 Center     Atomic      Atomic             Coordinates (Angstroms)
 Number     Number       Type             X           Y           Z
 ---------------------------------------------------------------------
      1          8           0        0.034788   -1.734852    0.000000
      2          1           0       -0.765760   -2.304613    0.000000
      3          1           0        0.833380   -2.307354    0.000000
      4          8           0        0.034788    1.758338    0.000000
      5          1           0        0.323059    2.697703    0.000000
      6          1           0       -0.947294    1.726382    0.000000
 ---------------------------------------------------------------------

 SCF Done:  E(RHF) =  -33.6466871844     A.U. after   11 cycles
 E2 =    -0.2288877075D+00 EUMP2 =    -0.33875574891859D+02
 CCSD(T)
 CCSD(T)= -0.33892749234D+02

 The electronic state is 1-A'.
 Alpha  occ. eigenvalues --   -1.34260  -1.33656  -0.69885  -0.69245  -0.53953
 Alpha  occ. eigenvalues --   -0.52824  -0.48773  -0.48151
 Alpha virt. eigenvalues --    0.20679   0.22404   0.31479   0.32038   0.76060
 Alpha virt. eigenvalues --    0.80610   0.83569   0.85319   0.90066   1.02436
 Alpha virt. eigenvalues --    1.18429   1.19298   1.22974   1.23606   2.58111

 Mulliken charges:
               1
     1  O   -0.724287
     2  H    0.357711
     3  H    0.366773
     4  O   -0.720973
     5  H    0.354646
     6  H    0.366130
 Sum of Mulliken charges =  -0.00000

 Dipole moment (field-independent basis, Debye):
    X=             -1.5752    Y=             -0.5786    Z=              0.0000  Tot=              1.6781
 Quadrupole moment (field-independent basis, Debye-Ang):
   XX=             -8.8696   YY=              4.9839   ZZ=            -14.9850
   XY=             -2.0607   XZ=              0.0000   YZ=              0.0000

 P4DQ=-33.8870261\MP4SDQ=-33.8890935\CCSD=-33.8901483\CCSD(T)=-33.89274
 Normal termination of Gaussian 16 at Sun Dec 10 06:58:03 2023.
