 Gaussian 16, Revision A.03,
 Gaussian 16:  ES64L-G16RevA.03 25-Dec-2016

 ------------------
 #p CCSD(T)/CEP-31G
 ------------------

 ------------
 H2O_H2O_4173
 ------------
 Symbolic Z-matrix:
 Charge =  0 Multiplicity = 1

                         Standard orientation:
 ---------------------------------------------------------------------
 Center     Atomic      Atomic             Coordinates (Angstroms)
 Number     Number       Type             X           Y           Z
 ---------------------------------------------------------------------
      1          8           0        0.057078   -2.952844    0.000000
      2          1           0       -0.743424   -3.522671    0.000000
      3          1           0        0.855716   -3.525280    0.000000
      4          8           0        0.057078    3.059414    0.000000
      5          1           0       -0.459173    3.895470    0.000000
      6          1           0       -0.566366    2.299924    0.000000
 ---------------------------------------------------------------------

 SCF Done:  E(RHF) =  -33.6520884834     A.U. after   11 cycles
 E2 =    -0.2283724613D+00 EUMP2 =    -0.33880460944721D+02
 CCSD(T)
 CCSD(T)= -0.33897452232D+02

 The electronic state is 1-A'.
 Alpha  occ. eigenvalues --   -1.35717  -1.34843  -0.71351  -0.70462  -0.55469
 Alpha  occ. eigenvalues --   -0.54581  -0.50293  -0.49419
 Alpha virt. eigenvalues --    0.20070   0.20972   0.30313   0.31210   0.80259
 Alpha virt. eigenvalues --    0.81118   0.83249   0.84144   0.86377   0.87315
 Alpha virt. eigenvalues --    1.17198   1.18067   1.21653   1.22544   2.57206

 Mulliken charges:
               1
     1  O   -0.742205
     2  H    0.369551
     3  H    0.372654
     4  O   -0.742017
     5  H    0.367186
     6  H    0.374830
 Sum of Mulliken charges =   0.00000

 Dipole moment (field-independent basis, Debye):
    X=             -2.6323    Y=             -2.4975    Z=              0.0000  Tot=              3.6286
 Quadrupole moment (field-independent basis, Debye-Ang):
   XX=            -10.1556   YY=              6.6726   ZZ=            -14.9894
   XY=             -8.1178   XZ=              0.0000   YZ=              0.0000

 \MP4DQ=-33.8918104\MP4SDQ=-33.8938373\CCSD=-33.8948918\CCSD(T)=-33.897
 Normal termination of Gaussian 16 at Sun Dec 10 06:55:14 2023.
