 Gaussian 16, Revision A.03,
 Gaussian 16:  ES64L-G16RevA.03 25-Dec-2016

 ------------------
 #p CCSD(T)/CEP-31G
 ------------------

 ------------
 H2O_H2O_1992
 ------------
 Symbolic Z-matrix:
 Charge =  0 Multiplicity = 1

                         Standard orientation:
 ---------------------------------------------------------------------
 Center     Atomic      Atomic             Coordinates (Angstroms)
 Number     Number       Type             X           Y           Z
 ---------------------------------------------------------------------
      1          8           0        0.051299   -1.819508    0.000000
      2          1           0       -0.749630   -2.388734    0.000000
      3          1           0        0.849507   -2.392543    0.000000
      4          8           0        0.051299    1.882969    0.000000
      5          1           0       -0.104982    2.853063    0.000000
      6          1           0       -0.815679    1.420525    0.000000
 ---------------------------------------------------------------------

 SCF Done:  E(RHF) =  -33.6503841150     A.U. after   11 cycles
 E2 =    -0.2287125552D+00 EUMP2 =    -0.33879096670176D+02
 CCSD(T)
 CCSD(T)= -0.33896154749D+02

 The electronic state is 1-A'.
 Alpha  occ. eigenvalues --   -1.35188  -1.33708  -0.70823  -0.69273  -0.54853
 Alpha  occ. eigenvalues --   -0.53325  -0.49740  -0.48267
 Alpha virt. eigenvalues --    0.19935   0.22549   0.30664   0.32255   0.77218
 Alpha virt. eigenvalues --    0.80328   0.82753   0.85881   0.87271   0.98166
 Alpha virt. eigenvalues --    1.17632   1.19643   1.22026   1.24263   2.56913

 Mulliken charges:
               1
     1  O   -0.736245
     2  H    0.362732
     3  H    0.374045
     4  O   -0.732442
     5  H    0.356214
     6  H    0.375695
 Sum of Mulliken charges =  -0.00000

 Dipole moment (field-independent basis, Debye):
    X=             -2.3315    Y=             -1.5491    Z=              0.0000  Tot=              2.7993
 Quadrupole moment (field-independent basis, Debye-Ang):
   XX=             -9.7423   YY=              3.4010   ZZ=            -14.9888
   XY=             -3.9046   XZ=              0.0000   YZ=              0.0000

 \MP4DQ=-33.89047\MP4SDQ=-33.8925233\CCSD=-33.8935689\CCSD(T)=-33.89615
 Normal termination of Gaussian 16 at Sun Dec 10 07:03:15 2023.
