 Gaussian 16, Revision A.03,
 Gaussian 16:  ES64L-G16RevA.03 25-Dec-2016

 ------------------
 #p CCSD(T)/CEP-31G
 ------------------

 ------------
 H2O_H2O_2269
 ------------
 Symbolic Z-matrix:
 Charge =  0 Multiplicity = 1

                         Standard orientation:
 ---------------------------------------------------------------------
 Center     Atomic      Atomic             Coordinates (Angstroms)
 Number     Number       Type             X           Y           Z
 ---------------------------------------------------------------------
      1          8           0        0.054172   -1.958271    0.000000
      2          1           0       -0.746728   -2.527538    0.000000
      3          1           0        0.852410   -2.531266    0.000000
      4          8           0        0.054172    2.035528    0.000000
      5          1           0       -0.227443    2.976911    0.000000
      6          1           0       -0.744999    1.463836    0.000000
 ---------------------------------------------------------------------

 SCF Done:  E(RHF) =  -33.6514729419     A.U. after   11 cycles
 E2 =    -0.2285722576D+00 EUMP2 =    -0.33880045199429D+02
 CCSD(T)
 CCSD(T)= -0.33897061566D+02

 The electronic state is 1-A'.
 Alpha  occ. eigenvalues --   -1.35462  -1.33921  -0.71098  -0.69494  -0.55179
 Alpha  occ. eigenvalues --   -0.53608  -0.50028  -0.48492
 Alpha virt. eigenvalues --    0.19852   0.22247   0.30458   0.32132   0.79667
 Alpha virt. eigenvalues --    0.80374   0.82185   0.85754   0.86649   0.93086
 Alpha virt. eigenvalues --    1.17414   1.19268   1.21790   1.24090   2.57033

 Mulliken charges:
               1
     1  O   -0.739896
     2  H    0.365338
     3  H    0.374961
     4  O   -0.737463
     5  H    0.359087
     6  H    0.377973
 Sum of Mulliken charges =   0.00000

 Dipole moment (field-independent basis, Debye):
    X=             -2.4736    Y=             -1.8676    Z=              0.0000  Tot=              3.0994
 Quadrupole moment (field-independent basis, Debye-Ang):
   XX=             -9.9337   YY=              3.4400   ZZ=            -14.9898
   XY=             -4.7116   XZ=              0.0000   YZ=              0.0000

 \MP4DQ=-33.8913985\MP4SDQ=-33.8934398\CCSD=-33.8944865\CCSD(T)=-33.897
 Normal termination of Gaussian 16 at Sun Dec 10 07:08:14 2023.
