 Gaussian 16, Revision A.03,
 Gaussian 16:  ES64L-G16RevA.03 25-Dec-2016

 ------------------
 #p CCSD(T)/CEP-31G
 ------------------

 ------------
 H2O_H2O_3556
 ------------
 Symbolic Z-matrix:
 Charge =  0 Multiplicity = 1

                         Standard orientation:
 ---------------------------------------------------------------------
 Center     Atomic      Atomic             Coordinates (Angstroms)
 Number     Number       Type             X           Y           Z
 ---------------------------------------------------------------------
      1          8           0        0.021859   -2.686912    0.000000
      2          1           0       -0.778111   -3.257485    0.000000
      3          1           0        0.821031   -3.258603    0.000000
      4          8           0        0.021859    2.695577    0.000000
      5          1           0        0.542587    3.528852    0.000000
      6          1           0       -0.935256    2.917920    0.000000
 ---------------------------------------------------------------------

 SCF Done:  E(RHF) =  -33.6500369683     A.U. after   11 cycles
 E2 =    -0.2284798424D+00 EUMP2 =    -0.33878516810678D+02
 CCSD(T)
 CCSD(T)= -0.33895567599D+02

 The electronic state is 1-A'.
 Alpha  occ. eigenvalues --   -1.34845  -1.34755  -0.70471  -0.70377  -0.54481
 Alpha  occ. eigenvalues --   -0.54390  -0.49390  -0.49300
 Alpha virt. eigenvalues --    0.20827   0.20925   0.31060   0.31147   0.81162
 Alpha virt. eigenvalues --    0.81253   0.84197   0.84617   0.87397   0.87519
 Alpha virt. eigenvalues --    1.17982   1.18072   1.22455   1.22545   2.58041

 Mulliken charges:
               1
     1  O   -0.734955
     2  H    0.366586
     3  H    0.368369
     4  O   -0.734752
     5  H    0.366149
     6  H    0.368603
 Sum of Mulliken charges =   0.00000

 Dipole moment (field-independent basis, Debye):
    X=             -1.0069    Y=             -0.2039    Z=              0.0000  Tot=              1.0273
 Quadrupole moment (field-independent basis, Debye-Ang):
   XX=             -8.3573   YY=             15.6904   ZZ=            -14.9862
   XY=             -2.1059   XZ=              0.0000   YZ=              0.0000

 MP4DQ=-33.8899096\MP4SDQ=-33.8919421\CCSD=-33.8930004\CCSD(T)=-33.8955
 Normal termination of Gaussian 16 at Sun Dec 10 06:43:54 2023.
