 Gaussian 16, Revision A.03,
 Gaussian 16:  ES64L-G16RevA.03 25-Dec-2016

 ------------------
 #p CCSD(T)/CEP-31G
 ------------------

 ------------
 H2O_H2O_1023
 ------------
 Symbolic Z-matrix:
 Charge =  0 Multiplicity = 1

                         Standard orientation:
 ---------------------------------------------------------------------
 Center     Atomic      Atomic             Coordinates (Angstroms)
 Number     Number       Type             X           Y           Z
 ---------------------------------------------------------------------
      1          8           0        0.057187   -1.277682    0.000000
      2          1           0       -0.744484   -1.845863    0.000000
      3          1           0        0.854647   -1.851758    0.000000
      4          8           0        0.057187    1.384017    0.000000
      5          1           0       -0.457345    2.221132    0.000000
      6          1           0       -0.567816    0.625810    0.000000
 ---------------------------------------------------------------------

 SCF Done:  E(RHF) =  -33.6517653084     A.U. after   11 cycles
 E2 =    -0.2297171390D+00 EUMP2 =    -0.33881482447382D+02
 CCSD(T)
 CCSD(T)= -0.33898378573D+02

 The electronic state is 1-A'.
 Alpha  occ. eigenvalues --   -1.36745  -1.31608  -0.72403  -0.68037  -0.55983
 Alpha  occ. eigenvalues --   -0.51470  -0.51355  -0.46194
 Alpha virt. eigenvalues --    0.18893   0.26236   0.29523   0.36298   0.76907
 Alpha virt. eigenvalues --    0.79450   0.87364   0.87662   0.95747   1.11856
 Alpha virt. eigenvalues --    1.17995   1.19941   1.23116   1.30940   2.59666

 Mulliken charges:
               1
     1  O   -0.768494
     2  H    0.367639
     3  H    0.402930
     4  O   -0.736344
     5  H    0.337429
     6  H    0.396840
 Sum of Mulliken charges =   0.00000

 Dipole moment (field-independent basis, Debye):
    X=             -2.4856    Y=             -2.7790    Z=              0.0000  Tot=              3.7284
 Quadrupole moment (field-independent basis, Debye-Ang):
   XX=            -10.1147   YY=             -3.4274   ZZ=            -15.0050
   XY=             -3.7721   XZ=              0.0000   YZ=              0.0000

 8\MP4DQ=-33.8924863\MP4SDQ=-33.89464\CCSD=-33.8956329\CCSD(T)=-33.8983
 Normal termination of Gaussian 16 at Sun Dec 10 06:43:53 2023.
