 Gaussian 16, Revision A.03,
 Gaussian 16:  ES64L-G16RevA.03 25-Dec-2016

 ------------------
 #p CCSD(T)/CEP-31G
 ------------------

 -----------
 H2O_H2O_360
 -----------
 Symbolic Z-matrix:
 Charge =  0 Multiplicity = 1

                         Standard orientation:
 ---------------------------------------------------------------------
 Center     Atomic      Atomic             Coordinates (Angstroms)
 Number     Number       Type             X           Y           Z
 ---------------------------------------------------------------------
      1          8           0        0.034804   -0.977033    0.000000
      2          1           0       -0.766492   -1.545742    0.000000
      3          1           0        0.832642   -1.550583    0.000000
      4          8           0        0.034804    1.000427    0.000000
      5          1           0        0.324308    1.939413    0.000000
      6          1           0       -0.947319    0.969762    0.000000
 ---------------------------------------------------------------------

 SCF Done:  E(RHF) =  -33.5936249388     A.U. after   11 cycles
 E2 =    -0.2325607681D+00 EUMP2 =    -0.33826185706943D+02
 CCSD(T)
 CCSD(T)= -0.33843396822D+02

 The electronic state is 1-A'.
 Alpha  occ. eigenvalues --   -1.34155  -1.30462  -0.69526  -0.67118  -0.57964
 Alpha  occ. eigenvalues --   -0.49019  -0.44257  -0.42407
 Alpha virt. eigenvalues --    0.20818   0.26689   0.32059   0.33340   0.80424
 Alpha virt. eigenvalues --    0.82753   0.90039   0.97263   0.99572   1.17933
 Alpha virt. eigenvalues --    1.19510   1.24201   1.25972   1.31017   2.50862

 Mulliken charges:
               1
     1  O   -0.734396
     2  H    0.342067
     3  H    0.377093
     4  O   -0.675246
     5  H    0.345985
     6  H    0.344498
 Sum of Mulliken charges =   0.00000

 Dipole moment (field-independent basis, Debye):
    X=             -1.3549    Y=             -0.5624    Z=              0.0000  Tot=              1.4669
 Quadrupole moment (field-independent basis, Debye-Ang):
   XX=             -9.0274   YY=             -4.2379   ZZ=            -15.0063
   XY=             -0.9605   XZ=              0.0000   YZ=              0.0000

 P4DQ=-33.8371401\MP4SDQ=-33.8394573\CCSD=-33.8404238\CCSD(T)=-33.84339
 Normal termination of Gaussian 16 at Sun Dec 10 06:31:30 2023.
