 Gaussian 16, Revision A.03,
 Gaussian 16:  ES64L-G16RevA.03 25-Dec-2016

 ------------------
 #p CCSD(T)/CEP-31G
 ------------------

 -----------
 H2O_H2O_987
 -----------
 Symbolic Z-matrix:
 Charge =  0 Multiplicity = 1

                         Standard orientation:
 ---------------------------------------------------------------------
 Center     Atomic      Atomic             Coordinates (Angstroms)
 Number     Number       Type             X           Y           Z
 ---------------------------------------------------------------------
      1          8           0        0.040429   -1.304082    0.000000
      2          1           0       -0.760643   -1.873108    0.000000
      3          1           0        0.838494   -1.877317    0.000000
      4          8           0        0.040429    1.337326    0.000000
      5          1           0        0.204511    2.306130    0.000000
      6          1           0       -0.929227    1.178347    0.000000
 ---------------------------------------------------------------------

 SCF Done:  E(RHF) =  -33.6399634487     A.U. after   11 cycles
 E2 =    -0.2298150368D+00 EUMP2 =    -0.33869778485496D+02
 CCSD(T)
 CCSD(T)= -0.33887153861D+02

 The electronic state is 1-A'.
 Alpha  occ. eigenvalues --   -1.33854  -1.32413  -0.69474  -0.68058  -0.54484
 Alpha  occ. eigenvalues --   -0.50176  -0.48446  -0.46735
 Alpha virt. eigenvalues --    0.20529   0.24376   0.31782   0.32809   0.78804
 Alpha virt. eigenvalues --    0.82734   0.83874   0.87744   0.95612   1.15755
 Alpha virt. eigenvalues --    1.18789   1.22522   1.23479   1.27776   2.58293

 Mulliken charges:
               1
     1  O   -0.723627
     2  H    0.349486
     3  H    0.370508
     4  O   -0.700949
     5  H    0.344288
     6  H    0.360294
 Sum of Mulliken charges =   0.00000

 Dipole moment (field-independent basis, Debye):
    X=             -1.7548    Y=             -0.8250    Z=              0.0000  Tot=              1.9391
 Quadrupole moment (field-independent basis, Debye-Ang):
   XX=             -9.1797   YY=              0.0451   ZZ=            -14.9902
   XY=             -1.7773   XZ=              0.0000   YZ=              0.0000

 P4DQ=-33.881267\MP4SDQ=-33.8833981\CCSD=-33.8844716\CCSD(T)=-33.887153
 Normal termination of Gaussian 16 at Sun Dec 10 06:43:13 2023.
