 Gaussian 16, Revision A.03,
 Gaussian 16:  ES64L-G16RevA.03 25-Dec-2016

 ------------------
 #p CCSD(T)/CEP-31G
 ------------------

 -----------
 H2O_H2O_756
 -----------
 Symbolic Z-matrix:
 Charge =  0 Multiplicity = 1

                         Standard orientation:
 ---------------------------------------------------------------------
 Center     Atomic      Atomic             Coordinates (Angstroms)
 Number     Number       Type             X           Y           Z
 ---------------------------------------------------------------------
      1          8           0        0.021863   -1.197790    0.000000
      2          1           0       -0.778601   -1.767670    0.000000
      3          1           0        0.820539   -1.770173    0.000000
      4          8           0        0.021863    1.206417    0.000000
      5          1           0        0.543312    2.039242    0.000000
      6          1           0       -0.935059    1.429589    0.000000
 ---------------------------------------------------------------------

 SCF Done:  E(RHF) =  -33.6282620553     A.U. after   11 cycles
 E2 =    -0.2302955006D+00 EUMP2 =    -0.33858557555949D+02
 CCSD(T)
 CCSD(T)= -0.33875972543D+02

 The electronic state is 1-A'.
 Alpha  occ. eigenvalues --   -1.32906  -1.31866  -0.68415  -0.67584  -0.55245
 Alpha  occ. eigenvalues --   -0.47664  -0.47169  -0.45835
 Alpha virt. eigenvalues --    0.21288   0.24593   0.32593   0.32953   0.79421
 Alpha virt. eigenvalues --    0.79737   0.89207   0.91489   1.02310   1.12291
 Alpha virt. eigenvalues --    1.19668   1.22643   1.24276   1.26288   2.54209

 Mulliken charges:
               1
     1  O   -0.707308
     2  H    0.344640
     3  H    0.359852
     4  O   -0.695425
     5  H    0.348578
     6  H    0.349663
 Sum of Mulliken charges =   0.00000

 Dipole moment (field-independent basis, Debye):
    X=             -0.9204    Y=             -0.2067    Z=              0.0000  Tot=              0.9433
 Quadrupole moment (field-independent basis, Debye-Ang):
   XX=             -8.5411   YY=             -0.7451   ZZ=            -14.9984
   XY=             -0.6940   XZ=              0.0000   YZ=              0.0000

 MP4DQ=-33.8700115\MP4SDQ=-33.8721425\CCSD=-33.8732281\CCSD(T)=-33.8759
 Normal termination of Gaussian 16 at Sun Dec 10 06:38:52 2023.
