 Gaussian 16, Revision A.03,
 Gaussian 16:  ES64L-G16RevA.03 25-Dec-2016

 ------------------
 #p CCSD(T)/CEP-31G
 ------------------

 -----------
 H2O_H2O_666
 -----------
 Symbolic Z-matrix:
 Charge =  0 Multiplicity = 1

                         Standard orientation:
 ---------------------------------------------------------------------
 Center     Atomic      Atomic             Coordinates (Angstroms)
 Number     Number       Type             X           Y           Z
 ---------------------------------------------------------------------
      1          8           0        0.049567   -1.118470    0.000000
      2          1           0       -0.752119   -1.686629    0.000000
      3          1           0        0.847012   -1.692566    0.000000
      4          8           0        0.049567    1.175215    0.000000
      5          1           0       -0.041630    2.153576    0.000000
      6          1           0       -0.846337    0.771655    0.000000
 ---------------------------------------------------------------------

 SCF Done:  E(RHF) =  -33.6318902073     A.U. after   11 cycles
 E2 =    -0.2308537054D+00 EUMP2 =    -0.33862743912787D+02
 CCSD(T)
 CCSD(T)= -0.33880024837D+02

 The electronic state is 1-A'.
 Alpha  occ. eigenvalues --   -1.34770  -1.31440  -0.70439  -0.67848  -0.54894
 Alpha  occ. eigenvalues --   -0.49418  -0.49012  -0.45736
 Alpha virt. eigenvalues --    0.19974   0.26169   0.31133   0.33657   0.78321
 Alpha virt. eigenvalues --    0.84285   0.89277   0.94906   0.95990   1.14698
 Alpha virt. eigenvalues --    1.18908   1.21932   1.24096   1.31263   2.59834

 Mulliken charges:
               1
     1  O   -0.751864
     2  H    0.352241
     3  H    0.387410
     4  O   -0.687166
     5  H    0.334979
     6  H    0.364400
 Sum of Mulliken charges =  -0.00000

 Dipole moment (field-independent basis, Debye):
    X=             -2.0635    Y=             -1.4199    Z=              0.0000  Tot=              2.5048
 Quadrupole moment (field-independent basis, Debye-Ang):
   XX=             -9.6681   YY=             -2.7884   ZZ=            -14.9962
   XY=             -2.1292   XZ=              0.0000   YZ=              0.0000

 \MP4DQ=-33.8739869\MP4SDQ=-33.876196\CCSD=-33.8772222\CCSD(T)=-33.8800
 Normal termination of Gaussian 16 at Sun Dec 10 06:37:11 2023.
