 Gaussian 16, Revision A.03,
 Gaussian 16:  ES64L-G16RevA.03 25-Dec-2016

 ------------------
 #p CCSD(T)/CEP-31G
 ------------------

 ------------
 H2O_H2O_1735
 ------------
 Symbolic Z-matrix:
 Charge =  0 Multiplicity = 1

                         Standard orientation:
 ---------------------------------------------------------------------
 Center     Atomic      Atomic             Coordinates (Angstroms)
 Number     Number       Type             X           Y           Z
 ---------------------------------------------------------------------
      1          8           0        0.034789   -1.708261    0.000000
      2          1           0       -0.765775   -2.278001    0.000000
      3          1           0        0.833365   -2.280784    0.000000
      4          8           0        0.034789    1.731745    0.000000
      5          1           0        0.323084    2.671103    0.000000
      6          1           0       -0.947294    1.699816    0.000000
 ---------------------------------------------------------------------

 SCF Done:  E(RHF) =  -33.6464300685     A.U. after   11 cycles
 E2 =    -0.2289196512D+00 EUMP2 =    -0.33875349719682D+02
 CCSD(T)
 CCSD(T)= -0.33892535906D+02

 The electronic state is 1-A'.
 Alpha  occ. eigenvalues --   -1.34224  -1.33602  -0.69848  -0.69189  -0.53941
 Alpha  occ. eigenvalues --   -0.52718  -0.48736  -0.48091
 Alpha virt. eigenvalues --    0.20674   0.22486   0.31505   0.32078   0.75867
 Alpha virt. eigenvalues --    0.80518   0.83763   0.85147   0.90362   1.03588
 Alpha virt. eigenvalues --    1.18454   1.19404   1.23012   1.23655   2.58193

 Mulliken charges:
               1
     1  O   -0.723618
     2  H    0.357188
     3  H    0.366621
     4  O   -0.720035
     5  H    0.354019
     6  H    0.365825
 Sum of Mulliken charges =   0.00000

 Dipole moment (field-independent basis, Debye):
    X=             -1.5733    Y=             -0.5798    Z=              0.0000  Tot=              1.6767
 Quadrupole moment (field-independent basis, Debye-Ang):
   XX=             -8.8724   YY=              4.7129   ZZ=            -14.9850
   XY=             -2.0211   XZ=              0.0000   YZ=              0.0000

 MP4DQ=-33.886806\MP4SDQ=-33.8888768\CCSD=-33.889932\CCSD(T)=-33.892535
 Normal termination of Gaussian 16 at Sun Dec 10 06:57:08 2023.
