 Gaussian 16, Revision A.03,
 Gaussian 16:  ES64L-G16RevA.03 25-Dec-2016

 ------------------
 #p CCSD(T)/CEP-31G
 ------------------

 ------------
 H2O_H2O_1570
 ------------
 Symbolic Z-matrix:
 Charge =  0 Multiplicity = 1

                         Standard orientation:
 ---------------------------------------------------------------------
 Center     Atomic      Atomic             Coordinates (Angstroms)
 Number     Number       Type             X           Y           Z
 ---------------------------------------------------------------------
      1          8           0        0.055291   -1.582138    0.000000
      2          1           0       -0.745947   -2.150930    0.000000
      3          1           0        0.853188   -2.155605    0.000000
      4          8           0        0.055291    1.666478    0.000000
      5          1           0       -0.286745    2.587629    0.000000
      6          1           0       -0.705147    1.044191    0.000000
 ---------------------------------------------------------------------

 SCF Done:  E(RHF) =  -33.6517430719     A.U. after   11 cycles
 E2 =    -0.2289807319D+00 EUMP2 =    -0.33880723803793D+02
 CCSD(T)
 CCSD(T)= -0.33897788413D+02

 The electronic state is 1-A'.
 Alpha  occ. eigenvalues --   -1.35657  -1.33045  -0.71301  -0.68611  -0.55393
 Alpha  occ. eigenvalues --   -0.52728  -0.50231  -0.47625
 Alpha virt. eigenvalues --    0.19380   0.23881   0.30283   0.33261   0.76075
 Alpha virt. eigenvalues --    0.79074   0.84232   0.86308   0.87993   1.06468
 Alpha virt. eigenvalues --    1.17139   1.20632   1.21881   1.27284   2.55101

 Mulliken charges:
               1
     1  O   -0.742491
     2  H    0.363007
     3  H    0.380665
     4  O   -0.735483
     5  H    0.350372
     6  H    0.383930
 Sum of Mulliken charges =   0.00000

 Dipole moment (field-independent basis, Debye):
    X=             -2.4866    Y=             -2.1058    Z=              0.0000  Tot=              3.2584
 Quadrupole moment (field-independent basis, Debye-Ang):
   XX=            -10.0028   YY=              0.1818   ZZ=            -14.9928
   XY=             -4.0112   XZ=              0.0000   YZ=              0.0000

 9\MP4DQ=-33.8920503\MP4SDQ=-33.8941349\CCSD=-33.8951717\CCSD(T)=-33.89
 Normal termination of Gaussian 16 at Sun Dec 10 06:54:05 2023.
