 Gaussian 16, Revision A.03,
 Gaussian 16:  ES64L-G16RevA.03 25-Dec-2016

 ------------------
 #p CCSD(T)/CEP-31G
 ------------------

 ------------
 H2O_H2O_1267
 ------------
 Symbolic Z-matrix:
 Charge =  0 Multiplicity = 1

                         Standard orientation:
 ---------------------------------------------------------------------
 Center     Atomic      Atomic             Coordinates (Angstroms)
 Number     Number       Type             X           Y           Z
 ---------------------------------------------------------------------
      1          8           0        0.051319   -1.433961    0.000000
      2          1           0       -0.749967   -2.002685    0.000000
      3          1           0        0.849168   -2.007496    0.000000
      4          8           0        0.051319    1.497358    0.000000
      5          1           0       -0.104354    2.467549    0.000000
      6          1           0       -0.815949    1.035456    0.000000
 ---------------------------------------------------------------------

 SCF Done:  E(RHF) =  -33.6479904143     A.U. after   11 cycles
 E2 =    -0.2293802106D+00 EUMP2 =    -0.33877370624943D+02
 CCSD(T)
 CCSD(T)= -0.33894569390D+02

 The electronic state is 1-A'.
 Alpha  occ. eigenvalues --   -1.35023  -1.32707  -0.70667  -0.68311  -0.54743
 Alpha  occ. eigenvalues --   -0.52056  -0.49576  -0.47234
 Alpha virt. eigenvalues --    0.19782   0.24282   0.30827   0.33076   0.77649
 Alpha virt. eigenvalues --    0.78668   0.85785   0.85893   0.90374   1.14207
 Alpha virt. eigenvalues --    1.17712   1.21549   1.22475   1.27302   2.59241

 Mulliken charges:
               1
     1  O   -0.735810
     2  H    0.357167
     3  H    0.378346
     4  O   -0.720087
     5  H    0.345159
     6  H    0.375226
 Sum of Mulliken charges =   0.00000

 Dipole moment (field-independent basis, Debye):
    X=             -2.2734    Y=             -1.5934    Z=              0.0000  Tot=              2.7762
 Quadrupole moment (field-independent basis, Debye-Ang):
   XX=             -9.7494   YY=              0.1595   ZZ=            -14.9910
   XY=             -3.0312   XZ=              0.0000   YZ=              0.0000

 \MP4DQ=-33.8887627\MP4SDQ=-33.8908764\CCSD=-33.8919235\CCSD(T)=-33.894
 Normal termination of Gaussian 16 at Sun Dec 10 06:48:26 2023.
