 Gaussian 16, Revision A.03,
 Gaussian 16:  ES64L-G16RevA.03 25-Dec-2016

 ------------------
 #p CCSD(T)/CEP-31G
 ------------------

 ------------
 H2O_H2O_2900
 ------------
 Symbolic Z-matrix:
 Charge =  0 Multiplicity = 1

                         Standard orientation:
 ---------------------------------------------------------------------
 Center     Atomic      Atomic             Coordinates (Angstroms)
 Number     Number       Type             X           Y           Z
 ---------------------------------------------------------------------
      1          8           0        0.000000   -0.000000    2.345925
      2          1           0        0.000000    0.799571    2.917057
      3          1           0       -0.000000   -0.799571    2.917057
      4          8           0        0.000000   -0.000000   -2.345925
      5          1           0       -0.000000   -0.799571   -2.917057
      6          1           0        0.000000    0.799571   -2.917057
 ---------------------------------------------------------------------

 SCF Done:  E(RHF) =  -33.6488628722     A.U. after   10 cycles
 E2 =    -0.2285490639D+00 EUMP2 =    -0.33877411936069D+02
 CCSD(T)
 CCSD(T)= -0.33894496728D+02

 The electronic state is 1-AG.
 Alpha  occ. eigenvalues --   -1.34512  -1.34510  -0.70135  -0.70133  -0.54128
 Alpha  occ. eigenvalues --   -0.54022  -0.49044  -0.49034
 Alpha virt. eigenvalues --    0.21013   0.21190   0.31307   0.31349   0.81430
 Alpha virt. eigenvalues --    0.81593   0.83409   0.86333   0.87617   0.87996
 Alpha virt. eigenvalues --    1.18268   1.18269   1.22726   1.22780   2.58333

 Mulliken charges:
               1
     1  O   -0.730915
     2  H    0.365457
     3  H    0.365457
     4  O   -0.730915
     5  H    0.365457
     6  H    0.365457
 Sum of Mulliken charges =  -0.00000

 Dipole moment (field-independent basis, Debye):
    X=             -0.0000    Y=              0.0000    Z=             -0.0000  Tot=              0.0000
 Quadrupole moment (field-independent basis, Debye-Ang):
   XX=            -14.9851   YY=             -8.0657   ZZ=             12.7742
   XY=              0.0000   XZ=              0.0000   YZ=             -0.0000

 -33.8888285\MP4SDQ=-33.8908647\CCSD=-33.8919245\CCSD(T)=-33.8944967\RM
 Normal termination of Gaussian 16 at Sun Dec 10 06:32:12 2023.
