 Gaussian 16, Revision A.03,
 Gaussian 16:  ES64L-G16RevA.03 25-Dec-2016

 ------------------
 #p CCSD(T)/CEP-31G
 ------------------

 ------------
 H2O_H2O_1758
 ------------
 Symbolic Z-matrix:
 Charge =  0 Multiplicity = 1

                         Standard orientation:
 ---------------------------------------------------------------------
 Center     Atomic      Atomic             Coordinates (Angstroms)
 Number     Number       Type             X           Y           Z
 ---------------------------------------------------------------------
      1          8           0        0.028567   -1.726044    0.000000
      2          1           0       -0.771813   -2.296042    0.000000
      3          1           0        0.827328   -2.298310    0.000000
      4          8           0        0.028567    1.741267    0.000000
      5          1           0        0.436719    2.635089    0.000000
      6          1           0       -0.949312    1.837483    0.000000
 ---------------------------------------------------------------------

 SCF Done:  E(RHF) =  -33.6458626993     A.U. after   11 cycles
 E2 =    -0.2289066377D+00 EUMP2 =    -0.33874769337022D+02
 CCSD(T)
 CCSD(T)= -0.33891967549D+02

 The electronic state is 1-A'.
 Alpha  occ. eigenvalues --   -1.34056  -1.33659  -0.69678  -0.69257  -0.53817
 Alpha  occ. eigenvalues --   -0.52659  -0.48566  -0.48131
 Alpha virt. eigenvalues --    0.20848   0.22362   0.31647   0.32006   0.76211
 Alpha virt. eigenvalues --    0.80676   0.83728   0.85208   0.90872   1.02331
 Alpha virt. eigenvalues --    1.18605   1.19165   1.23177   1.23570   2.58303

 Mulliken charges:
               1
     1  O   -0.721625
     2  H    0.357068
     3  H    0.364677
     4  O   -0.719202
     5  H    0.354968
     6  H    0.364113
 Sum of Mulliken charges =   0.00000

 Dipole moment (field-independent basis, Debye):
    X=             -1.2937    Y=             -0.3758    Z=              0.0000  Tot=              1.3472
 Quadrupole moment (field-independent basis, Debye-Ang):
   XX=             -8.6298   YY=              5.2905   ZZ=            -14.9844
   XY=             -1.6061   XZ=              0.0000   YZ=              0.0000

 \MP4DQ=-33.8862372\MP4SDQ=-33.8883062\CCSD=-33.8893639\CCSD(T)=-33.891
 Normal termination of Gaussian 16 at Sun Dec 10 06:57:33 2023.
