 Gaussian 16, Revision A.03,
 Gaussian 16:  ES64L-G16RevA.03 25-Dec-2016

 ------------------
 #p CCSD(T)/CEP-31G
 ------------------

 ------------
 H2O_H2O_1865
 ------------
 Symbolic Z-matrix:
 Charge =  0 Multiplicity = 1

                         Standard orientation:
 ---------------------------------------------------------------------
 Center     Atomic      Atomic             Coordinates (Angstroms)
 Number     Number       Type             X           Y           Z
 ---------------------------------------------------------------------
      1          8           0        0.047546   -1.760042    0.000000
      2          1           0       -0.753331   -2.329341    0.000000
      3          1           0        0.845807   -2.333003    0.000000
      4          8           0        0.047546    1.810590    0.000000
      5          1           0        0.019134    2.792781    0.000000
      6          1           0       -0.872344    1.465180    0.000000
 ---------------------------------------------------------------------

 SCF Done:  E(RHF) =  -33.6491597917     A.U. after   11 cycles
 E2 =    -0.2288070191D+00 EUMP2 =    -0.33877966810833D+02
 CCSD(T)
 CCSD(T)= -0.33895067484D+02

 The electronic state is 1-A'.
 Alpha  occ. eigenvalues --   -1.34890  -1.33629  -0.70522  -0.69196  -0.54524
 Alpha  occ. eigenvalues --   -0.53141  -0.49427  -0.48171
 Alpha virt. eigenvalues --    0.20134   0.22605   0.30916   0.32223   0.76191
 Alpha virt. eigenvalues --    0.80344   0.83157   0.85699   0.88124   1.01169
 Alpha virt. eigenvalues --    1.17880   1.19736   1.22309   1.24066   2.57235

 Mulliken charges:
               1
     1  O   -0.732307
     2  H    0.360586
     3  H    0.372194
     4  O   -0.727790
     5  H    0.354739
     6  H    0.372579
 Sum of Mulliken charges =   0.00000

 Dipole moment (field-independent basis, Debye):
    X=             -2.1549    Y=             -1.2399    Z=              0.0000  Tot=              2.4861
 Quadrupole moment (field-independent basis, Debye-Ang):
   XX=             -9.5133   YY=              3.7319   ZZ=            -14.9876
   XY=             -3.2888   XZ=              0.0000   YZ=              0.0000

 6\MP4DQ=-33.8893657\MP4SDQ=-33.891427\CCSD=-33.8924744\CCSD(T)=-33.895
 Normal termination of Gaussian 16 at Sun Dec 10 06:59:32 2023.
