 Gaussian 16, Revision A.03,
 Gaussian 16:  ES64L-G16RevA.03 25-Dec-2016

 ------------------
 #p CCSD(T)/CEP-31G
 ------------------

 ----------
 H2O_H2O_92
 ----------
 Symbolic Z-matrix:
 Charge =  0 Multiplicity = 1

                         Standard orientation:
 ---------------------------------------------------------------------
 Center     Atomic      Atomic             Coordinates (Angstroms)
 Number     Number       Type             X           Y           Z
 ---------------------------------------------------------------------
      1          8           0        0.051390   -0.809173    0.000000
      2          1           0       -0.751166   -1.376103    0.000000
      3          1           0        0.847954   -1.384490    0.000000
      4          8           0        0.051390    0.872340    0.000000
      5          1           0       -0.102113    1.842877    0.000000
      6          1           0       -0.816909    0.412379    0.000000
 ---------------------------------------------------------------------

 SCF Done:  E(RHF) =  -33.4951865915     A.U. after   11 cycles
 E2 =    -0.2364466251D+00 EUMP2 =    -0.33731633216621D+02
 CCSD(T)
 CCSD(T)= -0.33748376204D+02

 The electronic state is 1-A'.
 Alpha  occ. eigenvalues --   -1.40236  -1.28762  -0.76074  -0.70896  -0.54759
 Alpha  occ. eigenvalues --   -0.53540  -0.43104  -0.39280
 Alpha virt. eigenvalues --    0.19577   0.29397   0.30183   0.33889   0.80296
 Alpha virt. eigenvalues --    0.83359   0.89244   0.95804   0.96495   1.18675
 Alpha virt. eigenvalues --    1.21673   1.26194   1.28567   1.38747   2.65817

 Mulliken charges:
               1
     1  O   -0.777409
     2  H    0.344333
     3  H    0.412306
     4  O   -0.629783
     5  H    0.293587
     6  H    0.356966
 Sum of Mulliken charges =  -0.00000

 Dipole moment (field-independent basis, Debye):
    X=             -1.8305    Y=             -1.6702    Z=              0.0000  Tot=              2.4779
 Quadrupole moment (field-independent basis, Debye-Ang):
   XX=             -9.8116   YY=             -7.8367   ZZ=            -14.9243
   XY=             -1.5252   XZ=              0.0000   YZ=              0.0000

 P4DQ=-33.7415437\MP4SDQ=-33.7442733\CCSD=-33.7448835\CCSD(T)=-33.74837
 Normal termination of Gaussian 16 at Sun Dec 10 06:26:27 2023.
