 Gaussian 16, Revision A.03,
 Gaussian 16:  ES64L-G16RevA.03 25-Dec-2016

 ------------------
 #p CCSD(T)/CEP-31G
 ------------------

 ---------
 H2O_H2O_3
 ---------
 Symbolic Z-matrix:
 Charge =  0 Multiplicity = 1

                         Standard orientation:
 ---------------------------------------------------------------------
 Center     Atomic      Atomic             Coordinates (Angstroms)
 Number     Number       Type             X           Y           Z
 ---------------------------------------------------------------------
      1          8           0        0.011144   -0.802421    0.000000
      2          1           0       -0.789109   -1.372598    0.000000
      3          1           0        0.810032   -1.374507    0.000000
      4          8           0        0.011144    0.804589    0.000000
      5          1           0        0.684783    1.519932    0.000000
      6          1           0       -0.884003    1.209827    0.000000
 ---------------------------------------------------------------------

 SCF Done:  E(RHF) =  -33.4555706484     A.U. after   11 cycles
 E2 =    -0.2408998821D+00 EUMP2 =    -0.33696470530587D+02
 CCSD(T)
 CCSD(T)= -0.33712511516D+02

 The electronic state is 1-A'.
 Alpha  occ. eigenvalues --   -1.38293  -1.28765  -0.71509  -0.68450  -0.64876
 Alpha  occ. eigenvalues --   -0.52770  -0.42342  -0.29415
 Alpha virt. eigenvalues --    0.20921   0.29111   0.31282   0.33673   0.80551
 Alpha virt. eigenvalues --    0.82179   0.87468   0.88549   1.02344   1.18864
 Alpha virt. eigenvalues --    1.20471   1.25017   1.27538   1.41506   2.53365

 Mulliken charges:
               1
     1  O   -0.684249
     2  H    0.330493
     3  H    0.353273
     4  O   -0.678944
     5  H    0.337526
     6  H    0.341901
 Sum of Mulliken charges =   0.00000

 Dipole moment (field-independent basis, Debye):
    X=             -0.4062    Y=             -0.0683    Z=              0.0000  Tot=              0.4119
 Quadrupole moment (field-independent basis, Debye-Ang):
   XX=             -8.6883   YY=             -8.5050   ZZ=            -15.0173
   XY=             -0.3025   XZ=              0.0000   YZ=              0.0000

 4DQ=-33.7053734\MP4SDQ=-33.7083445\CCSD=-33.7087237\CCSD(T)=-33.712511
 Normal termination of Gaussian 16 at Sun Dec 10 06:24:47 2023.
