 Gaussian 16, Revision A.03,
 Gaussian 16:  ES64L-G16RevA.03 25-Dec-2016

 ------------------
 #p CCSD(T)/CEP-31G
 ------------------

 -----------
 H2O_H2O_926
 -----------
 Symbolic Z-matrix:
 Charge =  0 Multiplicity = 1

                         Standard orientation:
 ---------------------------------------------------------------------
 Center     Atomic      Atomic             Coordinates (Angstroms)
 Number     Number       Type             X           Y           Z
 ---------------------------------------------------------------------
      1          8           0        0.003735   -1.295416    0.000000
      2          1           0       -0.795977   -1.866349    0.000000
      3          1           0        0.803165   -1.866746    0.000000
      4          8           0        0.003735    1.295658    0.000000
      5          1           0        0.764396    1.917674    0.000000
      6          1           0       -0.831349    1.813481    0.000000
 ---------------------------------------------------------------------

 SCF Done:  E(RHF) =  -33.6328976205     A.U. after   11 cycles
 E2 =    -0.2298188664D+00 EUMP2 =    -0.33862716486915D+02
 CCSD(T)
 CCSD(T)= -0.33880149296D+02

 The electronic state is 1-A'.
 Alpha  occ. eigenvalues --   -1.32822  -1.32261  -0.68363  -0.67930  -0.54454
 Alpha  occ. eigenvalues --   -0.48394  -0.47505  -0.46309
 Alpha virt. eigenvalues --    0.21492   0.23901   0.32566   0.32872   0.79495
 Alpha virt. eigenvalues --    0.79577   0.86657   0.88374   1.05369   1.07814
 Alpha virt. eigenvalues --    1.19612   1.21030   1.24357   1.24996   2.56655

 Mulliken charges:
               1
     1  O   -0.700570
     2  H    0.349155
     3  H    0.351365
     4  O   -0.700329
     5  H    0.349928
     6  H    0.350451
 Sum of Mulliken charges =   0.00000

 Dipole moment (field-independent basis, Debye):
    X=             -0.1611    Y=             -0.0059    Z=              0.0000  Tot=              0.1612
 Quadrupole moment (field-independent basis, Debye-Ang):
   XX=             -8.2433   YY=              0.7069   ZZ=            -14.9927
   XY=             -0.1242   XZ=              0.0000   YZ=              0.0000

 MP4DQ=-33.874253\MP4SDQ=-33.8763536\CCSD=-33.8774487\CCSD(T)=-33.88014
 Normal termination of Gaussian 16 at Sun Dec 10 06:42:05 2023.
