 Gaussian 16, Revision A.03,
 Gaussian 16:  ES64L-G16RevA.03 25-Dec-2016

 ------------------
 #p CCSD(T)/CEP-31G
 ------------------

 -----------
 H2O_H2O_990
 -----------
 Symbolic Z-matrix:
 Charge =  0 Multiplicity = 1

                         Standard orientation:
 ---------------------------------------------------------------------
 Center     Atomic      Atomic             Coordinates (Angstroms)
 Number     Number       Type             X           Y           Z
 ---------------------------------------------------------------------
      1          8           0        0.047566   -1.294725    0.000000
      2          1           0       -0.753770   -1.863378    0.000000
      3          1           0        0.845365   -1.868331    0.000000
      4          8           0        0.047566    1.345196    0.000000
      5          1           0        0.019947    2.327410    0.000000
      6          1           0       -0.872603    1.000529    0.000000
 ---------------------------------------------------------------------

 SCF Done:  E(RHF) =  -33.6427031579     A.U. after   11 cycles
 E2 =    -0.2298664644D+00 EUMP2 =    -0.33872569622295D+02
 CCSD(T)
 CCSD(T)= -0.33889882495D+02

 The electronic state is 1-A'.
 Alpha  occ. eigenvalues --   -1.34470  -1.32292  -0.70110  -0.68001  -0.54594
 Alpha  occ. eigenvalues --   -0.50801  -0.49047  -0.46710
 Alpha virt. eigenvalues --    0.20100   0.24805   0.31295   0.33090   0.78403
 Alpha virt. eigenvalues --    0.82349   0.85856   0.87621   0.93483   1.16460
 Alpha virt. eigenvalues --    1.18617   1.22275   1.22864   1.28931   2.60775

 Mulliken charges:
               1
     1  O   -0.733762
     2  H    0.352539
     3  H    0.377339
     4  O   -0.704780
     5  H    0.341671
     6  H    0.366995
 Sum of Mulliken charges =  -0.00000

 Dipole moment (field-independent basis, Debye):
    X=             -2.0640    Y=             -1.2643    Z=              0.0000  Tot=              2.4204
 Quadrupole moment (field-independent basis, Debye-Ang):
   XX=             -9.5414   YY=             -0.6324   ZZ=            -14.9916
   XY=             -2.3249   XZ=              0.0000   YZ=              0.0000

 MP4DQ=-33.8839938\MP4SDQ=-33.8861354\CCSD=-33.8871942\CCSD(T)=-33.8898
 Normal termination of Gaussian 16 at Sun Dec 10 06:43:16 2023.
