 Gaussian 16, Revision A.03,
 Gaussian 16:  ES64L-G16RevA.03 25-Dec-2016

 ------------------
 #p CCSD(T)/CEP-31G
 ------------------

 ------------
 H2O_H2O_2056
 ------------
 Symbolic Z-matrix:
 Charge =  0 Multiplicity = 1

                         Standard orientation:
 ---------------------------------------------------------------------
 Center     Atomic      Atomic             Coordinates (Angstroms)
 Number     Number       Type             X           Y           Z
 ---------------------------------------------------------------------
      1          8           0        0.021861   -1.889165    0.000000
      2          1           0       -0.778278   -2.459502    0.000000
      3          1           0        0.820864   -2.461091    0.000000
      4          8           0        0.021861    1.897816    0.000000
      5          1           0        0.542834    2.730938    0.000000
      6          1           0       -0.935189    2.120441    0.000000
 ---------------------------------------------------------------------

 SCF Done:  E(RHF) =  -33.6468574114     A.U. after   11 cycles
 E2 =    -0.2287562031D+00 EUMP2 =    -0.33875613614433D+02
 CCSD(T)
 CCSD(T)= -0.33892764540D+02

 The electronic state is 1-A'.
 Alpha  occ. eigenvalues --   -1.34152  -1.33963  -0.69774  -0.69573  -0.53826
 Alpha  occ. eigenvalues --   -0.53160  -0.48665  -0.48454
 Alpha virt. eigenvalues --    0.20972   0.21912   0.31572   0.31778   0.78242
 Alpha virt. eigenvalues --    0.81169   0.82800   0.86309   0.89641   0.95736
 Alpha virt. eigenvalues --    1.18549   1.18752   1.23040   1.23306   2.58199

 Mulliken charges:
               1
     1  O   -0.724321
     2  H    0.359879
     3  H    0.364499
     4  O   -0.723356
     5  H    0.358820
     6  H    0.364479
 Sum of Mulliken charges =   0.00000

 Dipole moment (field-independent basis, Debye):
    X=             -0.9961    Y=             -0.2109    Z=              0.0000  Tot=              1.0181
 Quadrupole moment (field-independent basis, Debye-Ang):
   XX=             -8.4023   YY=              7.3476   ZZ=            -14.9842
   XY=             -1.3348   XZ=              0.0000   YZ=              0.0000

 MP4DQ=-33.8870636\MP4SDQ=-33.8891169\CCSD=-33.8901748\CCSD(T)=-33.8927
 Normal termination of Gaussian 16 at Sun Dec 10 07:04:25 2023.
