 Gaussian 16, Revision A.03,
 Gaussian 16:  ES64L-G16RevA.03 25-Dec-2016

 ------------------
 #p CCSD(T)/CEP-31G
 ------------------

 -----------
 H2O_H2O_844
 -----------
 Symbolic Z-matrix:
 Charge =  0 Multiplicity = 1

                         Standard orientation:
 ---------------------------------------------------------------------
 Center     Atomic      Atomic             Coordinates (Angstroms)
 Number     Number       Type             X           Y           Z
 ---------------------------------------------------------------------
      1          8           0        0.054227   -1.200485    0.000000
      2          1           0       -0.747484   -1.768609    0.000000
      3          1           0        0.851647   -1.774617    0.000000
      4          8           0        0.054227    1.277588    0.000000
      5          1           0       -0.226045    2.219370    0.000000
      6          1           0       -0.745758    0.707035    0.000000
 ---------------------------------------------------------------------

 SCF Done:  E(RHF) =  -33.6429051147     A.U. after   11 cycles
 E2 =    -0.2302818649D+00 EUMP2 =    -0.33873186979540D+02
 CCSD(T)
 CCSD(T)= -0.33890329056D+02

 The electronic state is 1-A'.
 Alpha  occ. eigenvalues --   -1.35582  -1.31631  -0.71262  -0.67952  -0.54748
 Alpha  occ. eigenvalues --   -0.50928  -0.50171  -0.46113
 Alpha virt. eigenvalues --    0.19501   0.26091   0.30439   0.34362   0.77566
 Alpha virt. eigenvalues --    0.83134   0.88387   0.90295   0.94850   1.14858
 Alpha virt. eigenvalues --    1.19554   1.20726   1.23432   1.30312   2.68174

 Mulliken charges:
               1
     1  O   -0.756326
     2  H    0.358301
     3  H    0.393274
     4  O   -0.708079
     5  H    0.334505
     6  H    0.378325
 Sum of Mulliken charges =   0.00000

 Dipole moment (field-independent basis, Debye):
    X=             -2.3127    Y=             -1.9756    Z=              0.0000  Tot=              3.0416
 Quadrupole moment (field-independent basis, Debye-Ang):
   XX=             -9.9311   YY=             -2.6264   ZZ=            -14.9985
   XY=             -2.8697   XZ=              0.0000   YZ=              0.0000

 P4DQ=-33.8843699\MP4SDQ=-33.886551\CCSD=-33.8875688\CCSD(T)=-33.890329
 Normal termination of Gaussian 16 at Sun Dec 10 06:40:32 2023.
