 Gaussian 16, Revision A.03,
 Gaussian 16:  ES64L-G16RevA.03 25-Dec-2016

 ------------------
 #p CCSD(T)/CEP-31G
 ------------------

 ------------
 H2O_H2O_1022
 ------------
 Symbolic Z-matrix:
 Charge =  0 Multiplicity = 1

                         Standard orientation:
 ---------------------------------------------------------------------
 Center     Atomic      Atomic             Coordinates (Angstroms)
 Number     Number       Type             X           Y           Z
 ---------------------------------------------------------------------
      1          8           0        0.056806   -1.281719    0.000000
      2          1           0       -0.744851   -1.849919    0.000000
      3          1           0        0.854280   -1.855775    0.000000
      4          8           0        0.056806    1.380620    0.000000
      5          1           0       -0.401896    2.249585    0.000000
      6          1           0       -0.616430    0.664898    0.000000
 ---------------------------------------------------------------------

 SCF Done:  E(RHF) =  -33.6505781841     A.U. after   11 cycles
 E2 =    -0.2297621437D+00 EUMP2 =    -0.33880340327801D+02
 CCSD(T)
 CCSD(T)= -0.33897315288D+02

 The electronic state is 1-A'.
 Alpha  occ. eigenvalues --   -1.36412  -1.31738  -0.72076  -0.67994  -0.55679
 Alpha  occ. eigenvalues --   -0.51555  -0.51014  -0.46313
 Alpha virt. eigenvalues --    0.19049   0.26048   0.29771   0.35556   0.77136
 Alpha virt. eigenvalues --    0.79859   0.87349   0.87762   0.94966   1.13018
 Alpha virt. eigenvalues --    1.18469   1.19915   1.22902   1.30447   2.60627

 Mulliken charges:
               1
     1  O   -0.763127
     2  H    0.365049
     3  H    0.398950
     4  O   -0.731163
     5  H    0.337694
     6  H    0.392598
 Sum of Mulliken charges =   0.00000

 Dipole moment (field-independent basis, Debye):
    X=             -2.4691    Y=             -2.5671    Z=              0.0000  Tot=              3.5618
 Quadrupole moment (field-independent basis, Debye-Ang):
   XX=            -10.0920   YY=             -2.9705   ZZ=            -15.0026
   XY=             -3.6192   XZ=              0.0000   YZ=              0.0000

 P4DQ=-33.8914242\MP4SDQ=-33.8935776\CCSD=-33.8945817\CCSD(T)=-33.89731
 Normal termination of Gaussian 16 at Sun Dec 10 06:43:52 2023.
