 Gaussian 16, Revision A.03,
 Gaussian 16:  ES64L-G16RevA.03 25-Dec-2016

 ------------------
 #p CCSD(T)/CEP-31G
 ------------------

 ------------
 H2O_H2O_2707
 ------------
 Symbolic Z-matrix:
 Charge =  0 Multiplicity = 1

                         Standard orientation:
 ---------------------------------------------------------------------
 Center     Atomic      Atomic             Coordinates (Angstroms)
 Number     Number       Type             X           Y           Z
 ---------------------------------------------------------------------
      1          8           0        0.025266   -2.233186    0.000000
      2          1           0       -0.774859   -2.803541    0.000000
      3          1           0        0.824282   -2.805094    0.000000
      4          8           0        0.025266    2.244916    0.000000
      5          1           0        0.490615    3.110339    0.000000
      6          1           0       -0.944298    2.404449    0.000000
 ---------------------------------------------------------------------

 SCF Done:  E(RHF) =  -33.6488919843     A.U. after   11 cycles
 E2 =    -0.2285687194D+00 EUMP2 =    -0.33877460703780D+02
 CCSD(T)
 CCSD(T)= -0.33894545171D+02

 The electronic state is 1-A'.
 Alpha  occ. eigenvalues --   -1.34572  -1.34393  -0.70196  -0.70009  -0.54165
 Alpha  occ. eigenvalues --   -0.53930  -0.49101  -0.48923
 Alpha virt. eigenvalues --    0.20944   0.21315   0.31271   0.31440   0.81363
 Alpha virt. eigenvalues --    0.81710   0.82610   0.86411   0.87763   0.88808
 Alpha virt. eigenvalues --    1.18209   1.18385   1.22694   1.22874   2.58276

 Mulliken charges:
               1
     1  O   -0.731073
     2  H    0.363841
     3  H    0.367242
     4  O   -0.730457
     5  H    0.362989
     6  H    0.367458
 Sum of Mulliken charges =  -0.00000

 Dipole moment (field-independent basis, Debye):
    X=             -1.1588    Y=             -0.2795    Z=              0.0000  Tot=              1.1920
 Quadrupole moment (field-independent basis, Debye-Ang):
   XX=             -8.4766   YY=             10.7604   ZZ=            -14.9854
   XY=             -1.9474   XZ=              0.0000   YZ=              0.0000

 MP4DQ=-33.888876\MP4SDQ=-33.8909131\CCSD=-33.8919719\CCSD(T)=-33.89454
 Normal termination of Gaussian 16 at Sun Dec 10 06:28:36 2023.
