 Gaussian 16, Revision A.03,
 Gaussian 16:  ES64L-G16RevA.03 25-Dec-2016

 ------------------
 #p CCSD(T)/CEP-31G
 ------------------

 -----------
 H2O_H2O_130
 -----------
 Symbolic Z-matrix:
 Charge =  0 Multiplicity = 1

                         Standard orientation:
 ---------------------------------------------------------------------
 Center     Atomic      Atomic             Coordinates (Angstroms)
 Number     Number       Type             X           Y           Z
 ---------------------------------------------------------------------
      1          8           0        0.018364   -0.866821    0.000000
      2          1           0       -0.782244   -1.436499    0.000000
      3          1           0        0.816896   -1.439405    0.000000
      4          8           0        0.018364    0.872817    0.000000
      5          1           0        0.593367    1.669609    0.000000
      6          1           0       -0.921841    1.158333    0.000000
 ---------------------------------------------------------------------

 SCF Done:  E(RHF) =  -33.5242244813     A.U. after   11 cycles
 E2 =    -0.2363807203D+00 EUMP2 =    -0.33760605201667D+02
 CCSD(T)
 CCSD(T)= -0.33777258062D+02

 The electronic state is 1-A'.
 Alpha  occ. eigenvalues --   -1.35684  -1.29245  -0.70059  -0.66542  -0.62824
 Alpha  occ. eigenvalues --   -0.50505  -0.42787  -0.34710
 Alpha virt. eigenvalues --    0.21139   0.27898   0.31971   0.33647   0.80746
 Alpha virt. eigenvalues --    0.81975   0.89516   0.90130   1.03902   1.19864
 Alpha virt. eigenvalues --    1.22150   1.23646   1.27727   1.35515   2.50409

 Mulliken charges:
               1
     1  O   -0.704751
     2  H    0.336116
     3  H    0.364790
     4  O   -0.686185
     5  H    0.347179
     6  H    0.342851
 Sum of Mulliken charges =  -0.00000

 Dipole moment (field-independent basis, Debye):
    X=             -0.6730    Y=             -0.1614    Z=              0.0000  Tot=              0.6921
 Quadrupole moment (field-independent basis, Debye-Ang):
   XX=             -8.6444   YY=             -6.6149   ZZ=            -15.0241
   XY=             -0.4119   XZ=              0.0000   YZ=              0.0000

 P4DQ=-33.7705712\MP4SDQ=-33.7731984\CCSD=-33.7739125\CCSD(T)=-33.77725
 Normal termination of Gaussian 16 at Sun Dec 10 06:27:10 2023.
