 Gaussian 16, Revision A.03,
 Gaussian 16:  ES64L-G16RevA.03 25-Dec-2016

 ------------------
 #p CCSD(T)/CEP-31G
 ------------------

 -----------
 H2O_H2O_410
 -----------
 Symbolic Z-matrix:
 Charge =  0 Multiplicity = 1

                         Standard orientation:
 ---------------------------------------------------------------------
 Center     Atomic      Atomic             Coordinates (Angstroms)
 Number     Number       Type             X           Y           Z
 ---------------------------------------------------------------------
      1          8           0        0.034803   -1.003622    0.000000
      2          1           0       -0.766448   -1.572395    0.000000
      3          1           0        0.832687   -1.577109    0.000000
      4          8           0        0.034803    1.027022    0.000000
      5          1           0        0.324232    1.966031    0.000000
      6          1           0       -0.947318    0.996278    0.000000
 ---------------------------------------------------------------------

 SCF Done:  E(RHF) =  -33.6018125002     A.U. after   11 cycles
 E2 =    -0.2321201960D+00 EUMP2 =    -0.33833932696154D+02
 CCSD(T)
 CCSD(T)= -0.33851190847D+02

 The electronic state is 1-A'.
 Alpha  occ. eigenvalues --   -1.33908  -1.30689  -0.69319  -0.67133  -0.57495
 Alpha  occ. eigenvalues --   -0.48774  -0.44513  -0.43355
 Alpha virt. eigenvalues --    0.20835   0.26418   0.32123   0.33289   0.80175
 Alpha virt. eigenvalues --    0.82493   0.90042   0.98003   0.99296   1.16786
 Alpha virt. eigenvalues --    1.19488   1.23840   1.25555   1.30687   2.51051

 Mulliken charges:
               1
     1  O   -0.732734
     2  H    0.342653
     3  H    0.375766
     4  O   -0.677419
     5  H    0.346356
     6  H    0.345378
 Sum of Mulliken charges =  -0.00000

 Dipole moment (field-independent basis, Debye):
    X=             -1.3719    Y=             -0.5600    Z=              0.0000  Tot=              1.4818
 Quadrupole moment (field-independent basis, Debye-Ang):
   XX=             -9.0176   YY=             -3.7871   ZZ=            -15.0060
   XY=             -0.9933   XZ=              0.0000   YZ=              0.0000

 P4DQ=-33.8449895\MP4SDQ=-33.8472693\CCSD=-33.848263\CCSD(T)=-33.851190
 Normal termination of Gaussian 16 at Sun Dec 10 06:32:26 2023.
