 Gaussian 16, Revision A.03,
 Gaussian 16:  ES64L-G16RevA.03 25-Dec-2016

 ------------------
 #p CCSD(T)/CEP-31G
 ------------------

 ------------
 H2O_H2O_4159
 ------------
 Symbolic Z-matrix:
 Charge =  0 Multiplicity = 1

                         Standard orientation:
 ---------------------------------------------------------------------
 Center     Atomic      Atomic             Coordinates (Angstroms)
 Number     Number       Type             X           Y           Z
 ---------------------------------------------------------------------
      1          8           0        0.031739   -3.000296    0.000000
      2          1           0       -0.768350   -3.570702    0.000000
      3          1           0        0.830791   -3.572153    0.000000
      4          8           0        0.031739    3.019489    0.000000
      5          1           0        0.380088    3.938270    0.000000
      6          1           0       -0.950356    3.051041    0.000000
 ---------------------------------------------------------------------

 SCF Done:  E(RHF) =  -33.6507099705     A.U. after   11 cycles
 E2 =    -0.2284412461D+00 EUMP2 =    -0.33879151216601D+02
 CCSD(T)
 CCSD(T)= -0.33896182599D+02

 The electronic state is 1-A'.
 Alpha  occ. eigenvalues --   -1.35075  -1.34915  -0.70703  -0.70539  -0.54749
 Alpha  occ. eigenvalues --   -0.54589  -0.49630  -0.49471
 Alpha virt. eigenvalues --    0.20637   0.20799   0.30870   0.31026   0.80924
 Alpha virt. eigenvalues --    0.81081   0.84051   0.84213   0.87123   0.87313
 Alpha virt. eigenvalues --    1.17781   1.17939   1.22248   1.22407   2.57825

 Mulliken charges:
               1
     1  O   -0.737298
     2  H    0.367703
     3  H    0.369595
     4  O   -0.737058
     5  H    0.367116
     6  H    0.369942
 Sum of Mulliken charges =  -0.00000

 Dipole moment (field-independent basis, Debye):
    X=             -1.4642    Y=             -0.4496    Z=              0.0000  Tot=              1.5317
 Quadrupole moment (field-independent basis, Debye-Ang):
   XX=             -8.6930   YY=             17.8089   ZZ=            -14.9870
   XY=             -3.6233   XZ=              0.0000   YZ=              0.0000

 4DQ=-33.89053\MP4SDQ=-33.8925606\CCSD=-33.8936179\CCSD(T)=-33.8961826\
 Normal termination of Gaussian 16 at Sun Dec 10 06:55:00 2023.
