 Gaussian 16, Revision A.03,
 Gaussian 16:  ES64L-G16RevA.03 25-Dec-2016

 ------------------
 #p CCSD(T)/CEP-31G
 ------------------

 ------------
 H2O_H2O_1054
 ------------
 Symbolic Z-matrix:
 Charge =  0 Multiplicity = 1

                         Standard orientation:
 ---------------------------------------------------------------------
 Center     Atomic      Atomic             Coordinates (Angstroms)
 Number     Number       Type             X           Y           Z
 ---------------------------------------------------------------------
      1          8           0        0.014784   -1.359928    0.000000
      2          1           0       -0.785320   -1.930313    0.000000
      3          1           0        0.813821   -1.931807    0.000000
      4          8           0        0.014784    1.363792    0.000000
      5          1           0        0.639999    2.121824    0.000000
      6          1           0       -0.905041    1.709379    0.000000
 ---------------------------------------------------------------------

 SCF Done:  E(RHF) =  -33.6366333301     A.U. after   11 cycles
 E2 =    -0.2295847413D+00 EUMP2 =    -0.33866218071365D+02
 CCSD(T)
 CCSD(T)= -0.33883639133D+02

 The electronic state is 1-A'.
 Alpha  occ. eigenvalues --   -1.33025  -1.32601  -0.68599  -0.68243  -0.54122
 Alpha  occ. eigenvalues --   -0.49494  -0.47668  -0.46744
 Alpha virt. eigenvalues --    0.21330   0.23612   0.32383   0.32692   0.79498
 Alpha virt. eigenvalues --    0.80582   0.83114   0.87586   1.00970   1.10642
 Alpha virt. eigenvalues --    1.19429   1.20892   1.24276   1.24521   2.57949

 Mulliken charges:
               1
     1  O   -0.705072
     2  H    0.348518
     3  H    0.356073
     4  O   -0.702241
     5  H    0.349556
     6  H    0.353166
 Sum of Mulliken charges =   0.00000

 Dipole moment (field-independent basis, Debye):
    X=             -0.6467    Y=             -0.0951    Z=              0.0000  Tot=              0.6536
 Quadrupole moment (field-independent basis, Debye-Ang):
   XX=             -8.3458   YY=              1.4829   ZZ=            -14.9887
   XY=             -0.5503   XZ=              0.0000   YZ=              0.0000

 \MP4DQ=-33.8777756\MP4SDQ=-33.8798748\CCSD=-33.8809656\CCSD(T)=-33.883
 Normal termination of Gaussian 16 at Sun Dec 10 06:44:28 2023.
