 Gaussian 16, Revision A.03,
 Gaussian 16:  ES64L-G16RevA.03 25-Dec-2016

 ------------------
 #p CCSD(T)/CEP-31G
 ------------------

 ------------
 H2O_H2O_1297
 ------------
 Symbolic Z-matrix:
 Charge =  0 Multiplicity = 1

                         Standard orientation:
 ---------------------------------------------------------------------
 Center     Atomic      Atomic             Coordinates (Angstroms)
 Number     Number       Type             X           Y           Z
 ---------------------------------------------------------------------
      1          8           0        0.056788   -1.427952    0.000000
      2          1           0       -0.744663   -1.996443    0.000000
      3          1           0        0.854470   -2.001719    0.000000
      4          8           0        0.056788    1.526895    0.000000
      5          1           0       -0.402229    2.395693    0.000000
      6          1           0       -0.616189    0.810928    0.000000
 ---------------------------------------------------------------------

 SCF Done:  E(RHF) =  -33.6530344862     A.U. after   11 cycles
 E2 =    -0.2292788994D+00 EUMP2 =    -0.33882313385617D+02
 CCSD(T)
 CCSD(T)= -0.33899338073D+02

 The electronic state is 1-A'.
 Alpha  occ. eigenvalues --   -1.36183  -1.32405  -0.71836  -0.68144  -0.55911
 Alpha  occ. eigenvalues --   -0.52180  -0.50783  -0.47000
 Alpha virt. eigenvalues --    0.19088   0.25070   0.29910   0.34681   0.77099
 Alpha virt. eigenvalues --    0.77914   0.85658   0.86842   0.91092   1.11151
 Alpha virt. eigenvalues --    1.16828   1.20202   1.22040   1.29474   2.55148

 Mulliken charges:
               1
     1  O   -0.753708
     2  H    0.365074
     3  H    0.390025
     4  O   -0.739306
     5  H    0.345068
     6  H    0.392847
 Sum of Mulliken charges =   0.00000

 Dipole moment (field-independent basis, Debye):
    X=             -2.5226    Y=             -2.5203    Z=              0.0000  Tot=              3.5659
 Quadrupole moment (field-independent basis, Debye-Ang):
   XX=            -10.0974   YY=             -1.8719   ZZ=            -14.9984
   XY=             -4.0021   XZ=              0.0000   YZ=              0.0000

 P4DQ=-33.893537\MP4SDQ=-33.8956497\CCSD=-33.896674\CCSD(T)=-33.8993381
 Normal termination of Gaussian 16 at Sun Dec 10 06:49:00 2023.
