 Gaussian 16, Revision A.03,
 Gaussian 16:  ES64L-G16RevA.03 25-Dec-2016

 ------------------
 #p CCSD(T)/CEP-31G
 ------------------

 ------------
 H2O_H2O_2950
 ------------
 Symbolic Z-matrix:
 Charge =  0 Multiplicity = 1

                         Standard orientation:
 ---------------------------------------------------------------------
 Center     Atomic      Atomic             Coordinates (Angstroms)
 Number     Number       Type             X           Y           Z
 ---------------------------------------------------------------------
      1          8           0        0.000000   -0.000000    2.372516
      2          1           0        0.000000    0.799571    2.943648
      3          1           0       -0.000000   -0.799571    2.943648
      4          8           0        0.000000   -0.000000   -2.372516
      5          1           0       -0.000000   -0.799571   -2.943648
      6          1           0        0.000000    0.799571   -2.943648
 ---------------------------------------------------------------------

 SCF Done:  E(RHF) =  -33.6489580658     A.U. after   10 cycles
 E2 =    -0.2285425198D+00 EUMP2 =    -0.33877500585638D+02
 CCSD(T)
 CCSD(T)= -0.33894582602D+02

 The electronic state is 1-AG.
 Alpha  occ. eigenvalues --   -1.34534  -1.34533  -0.70158  -0.70156  -0.54150
 Alpha  occ. eigenvalues --   -0.54058  -0.49068  -0.49059
 Alpha virt. eigenvalues --    0.21005   0.21162   0.31292   0.31329   0.81418
 Alpha virt. eigenvalues --    0.81557   0.83545   0.86116   0.87616   0.87940
 Alpha virt. eigenvalues --    1.18249   1.18250   1.22709   1.22756   2.58320

 Mulliken charges:
               1
     1  O   -0.731239
     2  H    0.365619
     3  H    0.365619
     4  O   -0.731239
     5  H    0.365619
     6  H    0.365619
 Sum of Mulliken charges =   0.00000

 Dipole moment (field-independent basis, Debye):
    X=             -0.0000    Y=              0.0000    Z=              0.0000  Tot=              0.0000
 Quadrupole moment (field-independent basis, Debye-Ang):
   XX=            -14.9852   YY=             -8.0642   ZZ=             13.0621
   XY=              0.0000   XZ=              0.0000   YZ=             -0.0000

 3.8889153\MP4SDQ=-33.8909511\CCSD=-33.8920109\CCSD(T)=-33.8945826\RMSD
 Normal termination of Gaussian 16 at Sun Dec 10 06:33:05 2023.
