 Gaussian 16, Revision A.03,
 Gaussian 16:  ES64L-G16RevA.03 25-Dec-2016

 ------------------
 #p CCSD(T)/CEP-31G
 ------------------

 ------------
 H2O_H2O_1410
 ------------
 Symbolic Z-matrix:
 Charge =  0 Multiplicity = 1

                         Standard orientation:
 ---------------------------------------------------------------------
 Center     Atomic      Atomic             Coordinates (Angstroms)
 Number     Number       Type             X           Y           Z
 ---------------------------------------------------------------------
      1          8           0        0.034791   -1.535422    0.000000
      2          1           0       -0.765883   -2.105006    0.000000
      3          1           0        0.833256   -2.108100    0.000000
      4          8           0        0.034791    1.558892    0.000000
      5          1           0        0.323269    2.498193    0.000000
      6          1           0       -0.947298    1.527153    0.000000
 ---------------------------------------------------------------------

 SCF Done:  E(RHF) =  -33.6441982391     A.U. after   11 cycles
 E2 =    -0.2291826356D+00 EUMP2 =    -0.33873380874685D+02
 CCSD(T)
 CCSD(T)= -0.33890663009D+02

 The electronic state is 1-A'.
 Alpha  occ. eigenvalues --   -1.33948  -1.33191  -0.69571  -0.68774  -0.53945
 Alpha  occ. eigenvalues --   -0.51822  -0.48469  -0.47623
 Alpha virt. eigenvalues --    0.20691   0.23095   0.31708   0.32357   0.76478
 Alpha virt. eigenvalues --    0.79804   0.83777   0.85312   0.92809   1.10911
 Alpha virt. eigenvalues --    1.18645   1.20606   1.23318   1.24021   2.59805

 Mulliken charges:
               1
     1  O   -0.719315
     2  H    0.353362
     3  H    0.365752
     4  O   -0.712743
     5  H    0.349794
     6  H    0.363149
 Sum of Mulliken charges =  -0.00000

 Dipole moment (field-independent basis, Debye):
    X=             -1.5557    Y=             -0.5851    Z=              0.0000  Tot=              1.6621
 Quadrupole moment (field-independent basis, Debye-Ang):
   XX=             -8.8947   YY=              2.9109   ZZ=            -14.9855
   XY=             -1.7655   XZ=              0.0000   YZ=              0.0000

 \MP4DQ=-33.8848787\MP4SDQ=-33.8869719\CCSD=-33.8880356\CCSD(T)=-33.890
 Normal termination of Gaussian 16 at Sun Dec 10 06:51:06 2023.
