 Gaussian 16, Revision A.03,
 Gaussian 16:  ES64L-G16RevA.03 25-Dec-2016

 ------------------
 #p CCSD(T)/CEP-31G
 ------------------

 ------------
 H2O_H2O_2752
 ------------
 Symbolic Z-matrix:
 Charge =  0 Multiplicity = 1

                         Standard orientation:
 ---------------------------------------------------------------------
 Center     Atomic      Atomic             Coordinates (Angstroms)
 Number     Number       Type             X           Y           Z
 ---------------------------------------------------------------------
      1          8           0        0.007455   -2.265621    0.000000
      2          1           0       -0.792278   -2.836526    0.000000
      3          1           0        0.806864   -2.836979    0.000000
      4          8           0        0.007455    2.266594    0.000000
      5          1           0        0.725828    2.937001    0.000000
      6          1           0       -0.859693    2.728720    0.000000
 ---------------------------------------------------------------------

 SCF Done:  E(RHF) =  -33.6485878037     A.U. after   11 cycles
 E2 =    -0.2285705421D+00 EUMP2 =    -0.33877158345753D+02
 CCSD(T)
 CCSD(T)= -0.33894251223D+02

 The electronic state is 1-A'.
 Alpha  occ. eigenvalues --   -1.34451  -1.34436  -0.70074  -0.70058  -0.54066
 Alpha  occ. eigenvalues --   -0.53915  -0.48979  -0.48957
 Alpha virt. eigenvalues --    0.21029   0.21277   0.31351   0.31410   0.81452
 Alpha virt. eigenvalues --    0.81711   0.82889   0.86984   0.87682   0.88225
 Alpha virt. eigenvalues --    1.18317   1.18331   1.22773   1.22852   2.58358

 Mulliken charges:
               1
     1  O   -0.729985
     2  H    0.364506
     3  H    0.365480
     4  O   -0.729932
     5  H    0.364356
     6  H    0.365575
 Sum of Mulliken charges =  -0.00000

 Dipole moment (field-independent basis, Debye):
    X=             -0.3421    Y=             -0.0232    Z=              0.0000  Tot=              0.3429
 Quadrupole moment (field-independent basis, Debye-Ang):
   XX=             -8.1059   YY=             11.8385   ZZ=            -14.9849
   XY=             -0.5584   XZ=              0.0000   YZ=              0.0000

 P4DQ=-33.8885801\MP4SDQ=-33.8906176\CCSD=-33.8916775\CCSD(T)=-33.89425
 Normal termination of Gaussian 16 at Sun Dec 10 06:29:26 2023.
