 Gaussian 16, Revision A.03,
 Gaussian 16:  ES64L-G16RevA.03 25-Dec-2016

 ------------------
 #p CCSD(T)/CEP-31G
 ------------------

 -----------
 H2O_H2O_391
 -----------
 Symbolic Z-matrix:
 Charge =  0 Multiplicity = 1

                         Standard orientation:
 ---------------------------------------------------------------------
 Center     Atomic      Atomic             Coordinates (Angstroms)
 Number     Number       Type             X           Y           Z
 ---------------------------------------------------------------------
      1          8           0        0.049583   -0.972243    0.000000
      2          1           0       -0.752412   -1.539967    0.000000
      3          1           0        0.846716   -1.546772    0.000000
      4          8           0        0.049583    1.028934    0.000000
      5          1           0       -0.041084    2.007344    0.000000
      6          1           0       -0.846541    0.625860    0.000000
 ---------------------------------------------------------------------

 SCF Done:  E(RHF) =  -33.6011682397     A.U. after   11 cycles
 E2 =    -0.2324404229D+00 EUMP2 =    -0.33833608662532D+02
 CCSD(T)
 CCSD(T)= -0.33850776185D+02

 The electronic state is 1-A'.
 Alpha  occ. eigenvalues --   -1.35623  -1.30463  -0.71430  -0.68365  -0.55241
 Alpha  occ. eigenvalues --   -0.50205  -0.45790  -0.44619
 Alpha virt. eigenvalues --    0.19953   0.27458   0.30943   0.33849   0.79268
 Alpha virt. eigenvalues --    0.84834   0.89905   0.96395   0.99399   1.15750
 Alpha virt. eigenvalues --    1.19351   1.24402   1.26139   1.32485   2.58136

 Mulliken charges:
               1
     1  O   -0.770026
     2  H    0.351089
     3  H    0.396623
     4  O   -0.663269
     5  H    0.327000
     6  H    0.358582
 Sum of Mulliken charges =  -0.00000

 Dipole moment (field-independent basis, Debye):
    X=             -1.9495    Y=             -1.4173    Z=              0.0000  Tot=              2.4102
 Quadrupole moment (field-independent basis, Debye-Ang):
   XX=             -9.6880   YY=             -4.7353   ZZ=            -14.9912
   XY=             -1.7925   XZ=              0.0000   YZ=              0.0000

 MP4DQ=-33.8445146\MP4SDQ=-33.8468517\CCSD=-33.8477886\CCSD(T)=-33.8507
 Normal termination of Gaussian 16 at Sun Dec 10 06:32:05 2023.
