 Gaussian 16, Revision A.03,
 Gaussian 16:  ES64L-G16RevA.03 25-Dec-2016

 ------------------
 #p CCSD(T)/CEP-31G
 ------------------

 ------------
 H2O_H2O_2764
 ------------
 Symbolic Z-matrix:
 Charge =  0 Multiplicity = 1

                         Standard orientation:
 ---------------------------------------------------------------------
 Center     Atomic      Atomic             Coordinates (Angstroms)
 Number     Number       Type             X           Y           Z
 ---------------------------------------------------------------------
      1          8           0        0.045349   -2.241962    0.000000
      2          1           0       -0.755204   -2.811716    0.000000
      3          1           0        0.843935   -2.814471    0.000000
      4          8           0        0.045349    2.286496    0.000000
      5          1           0        0.080680    3.268462    0.000000
      6          1           0       -0.895001    2.001456    0.000000
 ---------------------------------------------------------------------

 SCF Done:  E(RHF) =  -33.6502321208     A.U. after   11 cycles
 E2 =    -0.2285190737D+00 EUMP2 =    -0.33878751194470D+02
 CCSD(T)
 CCSD(T)= -0.33895797334D+02

 The electronic state is 1-A'.
 Alpha  occ. eigenvalues --   -1.35031  -1.34361  -0.70659  -0.69963  -0.54678
 Alpha  occ. eigenvalues --   -0.54000  -0.49579  -0.48913
 Alpha virt. eigenvalues --    0.20563   0.21418   0.30881   0.31545   0.80950
 Alpha virt. eigenvalues --    0.81651   0.82617   0.85501   0.87200   0.88988
 Alpha virt. eigenvalues --    1.17806   1.18481   1.22263   1.22964   2.57864

 Mulliken charges:
               1
     1  O   -0.735773
     2  H    0.364975
     3  H    0.370826
     4  O   -0.734245
     5  H    0.362451
     6  H    0.371765
 Sum of Mulliken charges =   0.00000

 Dipole moment (field-independent basis, Debye):
    X=             -2.0802    Y=             -1.0596    Z=              0.0000  Tot=              2.3345
 Quadrupole moment (field-independent basis, Debye-Ang):
   XX=             -9.3765   YY=              8.3646   ZZ=            -14.9872
   XY=             -4.0160   XZ=              0.0000   YZ=              0.0000

 \MP4DQ=-33.8901387\MP4SDQ=-33.8921724\CCSD=-33.893228\CCSD(T)=-33.8957
 Normal termination of Gaussian 16 at Sun Dec 10 06:29:39 2023.
