 Gaussian 16, Revision A.03,
 Gaussian 16:  ES64L-G16RevA.03 25-Dec-2016

 ------------------
 #p CCSD(T)/CEP-31G
 ------------------

 ------------
 H2O_H2O_2765
 ------------
 Symbolic Z-matrix:
 Charge =  0 Multiplicity = 1

                         Standard orientation:
 ---------------------------------------------------------------------
 Center     Atomic      Atomic             Coordinates (Angstroms)
 Number     Number       Type             X           Y           Z
 ---------------------------------------------------------------------
      1          8           0        0.047534   -2.238671    0.000000
      2          1           0       -0.753067   -2.808358    0.000000
      3          1           0        0.846072   -2.811246    0.000000
      4          8           0        0.047534    2.289265    0.000000
      5          1           0        0.018646    3.271441    0.000000
      6          1           0       -0.872189    1.943410    0.000000
 ---------------------------------------------------------------------

 SCF Done:  E(RHF) =  -33.6504660802     A.U. after   11 cycles
 E2 =    -0.2285099745D+00 EUMP2 =    -0.33878976054650D+02
 CCSD(T)
 CCSD(T)= -0.33896015444D+02

 The electronic state is 1-A'.
 Alpha  occ. eigenvalues --   -1.35111  -1.34349  -0.70741  -0.69949  -0.54772
 Alpha  occ. eigenvalues --   -0.54001  -0.49663  -0.48904
 Alpha virt. eigenvalues --    0.20487   0.21452   0.30812   0.31574   0.80870
 Alpha virt. eigenvalues --    0.81654   0.82583   0.85428   0.87097   0.88986
 Alpha virt. eigenvalues --    1.17735   1.18507   1.22186   1.22996   2.57788

 Mulliken charges:
               1
     1  O   -0.736589
     2  H    0.365254
     3  H    0.371370
     4  O   -0.734998
     5  H    0.362420
     6  H    0.372543
 Sum of Mulliken charges =   0.00000

 Dipole moment (field-independent basis, Debye):
    X=             -2.1804    Y=             -1.2040    Z=              0.0000  Tot=              2.4908
 Quadrupole moment (field-independent basis, Debye-Ang):
   XX=             -9.5058   YY=              7.8345   ZZ=            -14.9875
   XY=             -4.3005   XZ=              0.0000   YZ=              0.0000

 \MP4DQ=-33.8903586\MP4SDQ=-33.8923918\CCSD=-33.8934468\CCSD(T)=-33.896
 Normal termination of Gaussian 16 at Sun Dec 10 06:29:40 2023.
