 Gaussian 16, Revision A.03,
 Gaussian 16:  ES64L-G16RevA.03 25-Dec-2016

 ------------------
 #p CCSD(T)/CEP-31G
 ------------------

 -----------
 H2O_H2O_504
 -----------
 Symbolic Z-matrix:
 Charge =  0 Multiplicity = 1

                         Standard orientation:
 ---------------------------------------------------------------------
 Center     Atomic      Atomic             Coordinates (Angstroms)
 Number     Number       Type             X           Y           Z
 ---------------------------------------------------------------------
      1          8           0        0.014784   -1.067422    0.000000
      2          1           0       -0.785466   -1.637602    0.000000
      3          1           0        0.813675   -1.639505    0.000000
      4          8           0        0.014784    1.071279    0.000000
      5          1           0        0.640194    1.829150    0.000000
      6          1           0       -0.904952    1.417100    0.000000
 ---------------------------------------------------------------------

 SCF Done:  E(RHF) =  -33.6090132577     A.U. after   11 cycles
 E2 =    -0.2314565180D+00 EUMP2 =    -0.33840469775698D+02
 CCSD(T)
 CCSD(T)= -0.33857749552D+02

 The electronic state is 1-A'.
 Alpha  occ. eigenvalues --   -1.32936  -1.30939  -0.68241  -0.66807  -0.57278
 Alpha  occ. eigenvalues --   -0.47829  -0.44670  -0.43506
 Alpha virt. eigenvalues --    0.21471   0.25522   0.32801   0.33279   0.78791
 Alpha virt. eigenvalues --    0.80251   0.90114   0.98474   1.00423   1.17132
 Alpha virt. eigenvalues --    1.20117   1.23121   1.24494   1.27172   2.50096

 Mulliken charges:
               1
     1  O   -0.703196
     2  H    0.343365
     3  H    0.357512
     4  O   -0.694506
     5  H    0.350556
     6  H    0.346268
 Sum of Mulliken charges =  -0.00000

 Dipole moment (field-independent basis, Debye):
    X=             -0.5910    Y=             -0.0903    Z=              0.0000  Tot=              0.5979
 Quadrupole moment (field-independent basis, Debye-Ang):
   XX=             -8.4370   YY=             -2.6822   ZZ=            -15.0154
   XY=             -0.3676   XZ=              0.0000   YZ=              0.0000

 MP4DQ=-33.8516441\MP4SDQ=-33.8538398\CCSD=-33.8548799\CCSD(T)=-33.8577
 Normal termination of Gaussian 16 at Sun Dec 10 06:34:11 2023.
