 Gaussian 16, Revision A.03,
 Gaussian 16:  ES64L-G16RevA.03 25-Dec-2016

 ------------------
 #p CCSD(T)/CEP-31G
 ------------------

 ------------
 H2O_H2O_2525
 ------------
 Symbolic Z-matrix:
 Charge =  0 Multiplicity = 1

                         Standard orientation:
 ---------------------------------------------------------------------
 Center     Atomic      Atomic             Coordinates (Angstroms)
 Number     Number       Type             X           Y           Z
 ---------------------------------------------------------------------
      1          8           0        0.000000   -0.000000    2.146486
      2          1           0        0.000000    0.799571    2.717618
      3          1           0       -0.000000   -0.799571    2.717618
      4          8           0        0.000000   -0.000000   -2.146486
      5          1           0       -0.000000   -0.799571   -2.717618
      6          1           0        0.000000    0.799571   -2.717618
 ---------------------------------------------------------------------

 SCF Done:  E(RHF) =  -33.6479985225     A.U. after   10 cycles
 E2 =    -0.2286142145D+00 EUMP2 =    -0.33876612737011D+02
 CCSD(T)
 CCSD(T)= -0.33893723032D+02

 The electronic state is 1-AG.
 Alpha  occ. eigenvalues --   -1.34317  -1.34313  -0.69940  -0.69933  -0.53951
 Alpha  occ. eigenvalues --   -0.53697  -0.48846  -0.48816
 Alpha virt. eigenvalues --    0.21059   0.21439   0.31427   0.31530   0.81471
 Alpha virt. eigenvalues --    0.81798   0.81962   0.87481   0.88624   0.88782
 Alpha virt. eigenvalues --    1.18429   1.18430   1.22852   1.22997   2.58369

 Mulliken charges:
               1
     1  O   -0.727985
     2  H    0.363993
     3  H    0.363993
     4  O   -0.727985
     5  H    0.363993
     6  H    0.363993
 Sum of Mulliken charges =  -0.00000

 Dipole moment (field-independent basis, Debye):
    X=             -0.0000    Y=              0.0000    Z=              0.0000  Tot=              0.0000
 Quadrupole moment (field-independent basis, Debye-Ang):
   XX=            -14.9845   YY=             -8.0796   ZZ=             10.6088
   XY=              0.0000   XZ=              0.0000   YZ=             -0.0000

 .8880452\MP4SDQ=-33.8900857\CCSD=-33.8911458\CCSD(T)=-33.893723\RMSD=5
 Normal termination of Gaussian 16 at Sun Dec 10 06:25:12 2023.
