 Gaussian 16, Revision A.03,
 Gaussian 16:  ES64L-G16RevA.03 25-Dec-2016

 ------------------
 #p CCSD(T)/CEP-31G
 ------------------

 ------------
 H2O_H2O_3927
 ------------
 Symbolic Z-matrix:
 Charge =  0 Multiplicity = 1

                         Standard orientation:
 ---------------------------------------------------------------------
 Center     Atomic      Atomic             Coordinates (Angstroms)
 Number     Number       Type             X           Y           Z
 ---------------------------------------------------------------------
      1          8           0        0.007455   -2.890528    0.000000
      2          1           0       -0.792243   -3.461482    0.000000
      3          1           0        0.806899   -3.461837    0.000000
      4          8           0        0.007455    2.891502    0.000000
      5          1           0        0.725787    3.561953    0.000000
      6          1           0       -0.859722    3.353575    0.000000
 ---------------------------------------------------------------------

 SCF Done:  E(RHF) =  -33.6502401047     A.U. after   11 cycles
 E2 =    -0.2284627219D+00 EUMP2 =    -0.33878702826530D+02
 CCSD(T)
 CCSD(T)= -0.33895747685D+02

 The electronic state is 1-A'.
 Alpha  occ. eigenvalues --   -1.34880  -1.34872  -0.70507  -0.70498  -0.54529
 Alpha  occ. eigenvalues --   -0.54519  -0.49428  -0.49420
 Alpha virt. eigenvalues --    0.20804   0.20817   0.31036   0.31044   0.81125
 Alpha virt. eigenvalues --    0.81134   0.84248   0.84370   0.87350   0.87364
 Alpha virt. eigenvalues --    1.17956   1.17964   1.22426   1.22435   2.58008

 Mulliken charges:
               1
     1  O   -0.735636
     2  H    0.367568
     3  H    0.368068
     4  O   -0.735619
     5  H    0.367469
     6  H    0.368149
 Sum of Mulliken charges =   0.00000

 Dipole moment (field-independent basis, Debye):
    X=             -0.3438    Y=             -0.0228    Z=              0.0000  Tot=              0.3445
 Quadrupole moment (field-independent basis, Debye-Ang):
   XX=             -8.0801   YY=             18.5457   ZZ=            -14.9863
   XY=             -0.7671   XZ=              0.0000   YZ=              0.0000

 P4DQ=-33.8900914\MP4SDQ=-33.8921232\CCSD=-33.8931814\CCSD(T)=-33.89574
 Normal termination of Gaussian 16 at Sun Dec 10 06:50:45 2023.
