 Gaussian 16, Revision A.03,
 Gaussian 16:  ES64L-G16RevA.03 25-Dec-2016

 ------------------
 #p CCSD(T)/CEP-31G
 ------------------

 ------------
 H2O_H2O_4754
 ------------
 Symbolic Z-matrix:
 Charge =  0 Multiplicity = 1

                         Standard orientation:
 ---------------------------------------------------------------------
 Center     Atomic      Atomic             Coordinates (Angstroms)
 Number     Number       Type             X           Y           Z
 ---------------------------------------------------------------------
      1          8           0        0.014783   -3.327714    0.000000
      2          1           0       -0.785006   -3.898541    0.000000
      3          1           0        0.814135   -3.899152    0.000000
      4          8           0        0.014783    3.331595    0.000000
      5          1           0        0.639580    4.089972    0.000000
      6          1           0       -0.905232    3.676673    0.000000
 ---------------------------------------------------------------------

 SCF Done:  E(RHF) =  -33.6508210330     A.U. after   11 cycles
 E2 =    -0.2284289391D+00 EUMP2 =    -0.33879249972022D+02
 CCSD(T)
 CCSD(T)= -0.33896278213D+02

 The electronic state is 1-A'.
 Alpha  occ. eigenvalues --   -1.35076  -1.35050  -0.70705  -0.70678  -0.54757
 Alpha  occ. eigenvalues --   -0.54731  -0.49633  -0.49607
 Alpha virt. eigenvalues --    0.20642   0.20668   0.30874   0.30900   0.80921
 Alpha virt. eigenvalues --    0.80947   0.84038   0.84064   0.87115   0.87146
 Alpha virt. eigenvalues --    1.17784   1.17810   1.22250   1.22276   2.57825

 Mulliken charges:
               1
     1  O   -0.737664
     2  H    0.368497
     3  H    0.369167
     4  O   -0.737629
     5  H    0.368335
     6  H    0.369294
 Sum of Mulliken charges =   0.00000

 Dipole moment (field-independent basis, Debye):
    X=             -0.6827    Y=             -0.0906    Z=              0.0000  Tot=              0.6887
 Quadrupole moment (field-independent basis, Debye-Ang):
   XX=             -8.1775   YY=             22.8614   ZZ=            -14.9870
   XY=             -1.8299   XZ=              0.0000   YZ=              0.0000

 DQ=-33.8906265\MP4SDQ=-33.8926568\CCSD=-33.8937141\CCSD(T)=-33.8962782
 Normal termination of Gaussian 16 at Sun Dec 10 07:07:16 2023.
