 Gaussian 16, Revision A.03,
 Gaussian 16:  ES64L-G16RevA.03 25-Dec-2016

 ------------------
 #p CCSD(T)/CEP-31G
 ------------------

 ------------
 H2O_H2O_3742
 ------------
 Symbolic Z-matrix:
 Charge =  0 Multiplicity = 1

                         Standard orientation:
 ---------------------------------------------------------------------
 Center     Atomic      Atomic             Coordinates (Angstroms)
 Number     Number       Type             X           Y           Z
 ---------------------------------------------------------------------
      1          8           0        0.051274   -2.750180    0.000000
      2          1           0       -0.749202   -3.320043    0.000000
      3          1           0        0.849938   -3.322578    0.000000
      4          8           0        0.051274    2.813722    0.000000
      5          1           0       -0.105780    3.783692    0.000000
      6          1           0       -0.815336    2.350586    0.000000
 ---------------------------------------------------------------------

 SCF Done:  E(RHF) =  -33.6513201480     A.U. after   11 cycles
 E2 =    -0.2284220791D+00 EUMP2 =    -0.33879742227062D+02
 CCSD(T)
 CCSD(T)= -0.33896755944D+02

 The electronic state is 1-A'.
 Alpha  occ. eigenvalues --   -1.35376  -1.34755  -0.71007  -0.70370  -0.55085
 Alpha  occ. eigenvalues --   -0.54458  -0.49940  -0.49320
 Alpha virt. eigenvalues --    0.20367   0.21008   0.30607   0.31227   0.80613
 Alpha virt. eigenvalues --    0.81222   0.83665   0.84312   0.86775   0.87487
 Alpha virt. eigenvalues --    1.17506   1.18121   1.21968   1.22593   2.57533

 Mulliken charges:
               1
     1  O   -0.739497
     2  H    0.367903
     3  H    0.371594
     4  O   -0.738890
     5  H    0.365999
     6  H    0.372891
 Sum of Mulliken charges =  -0.00000

 Dipole moment (field-independent basis, Debye):
    X=             -2.3628    Y=             -1.4934    Z=              0.0000  Tot=              2.7952
 Quadrupole moment (field-independent basis, Debye-Ang):
   XX=             -9.7440   YY=             10.7114   ZZ=            -14.9882
   XY=             -6.0545   XZ=              0.0000   YZ=              0.0000

 P4DQ=-33.891108\MP4SDQ=-33.8931371\CCSD=-33.8941927\CCSD(T)=-33.896755
 Normal termination of Gaussian 16 at Sun Dec 10 06:47:19 2023.
