 Gaussian 16, Revision A.03,
 Gaussian 16:  ES64L-G16RevA.03 25-Dec-2016

 ------------------
 #p CCSD(T)/CEP-31G
 ------------------

 -----------
 H2O_H2O_542
 -----------
 Symbolic Z-matrix:
 Charge =  0 Multiplicity = 1

                         Standard orientation:
 ---------------------------------------------------------------------
 Center     Atomic      Atomic             Coordinates (Angstroms)
 Number     Number       Type             X           Y           Z
 ---------------------------------------------------------------------
      1          8           0        0.051353   -1.048437    0.000000
      2          1           0       -0.750543   -1.616300    0.000000
      3          1           0        0.848586   -1.622828    0.000000
      4          8           0        0.051353    1.111723    0.000000
      5          1           0       -0.103278    2.082082    0.000000
      6          1           0       -0.816410    0.650753    0.000000
 ---------------------------------------------------------------------

 SCF Done:  E(RHF) =  -33.6222480247     A.U. after   11 cycles
 E2 =    -0.2314718754D+00 EUMP2 =    -0.33853719900062D+02
 CCSD(T)
 CCSD(T)= -0.33870906254D+02

 The electronic state is 1-A'.
 Alpha  occ. eigenvalues --   -1.35345  -1.30959  -0.71090  -0.68167  -0.54679
 Alpha  occ. eigenvalues --   -0.49960  -0.48268  -0.45236
 Alpha virt. eigenvalues --    0.19812   0.26912   0.30819   0.34044   0.78441
 Alpha virt. eigenvalues --    0.84675   0.89677   0.96039   0.98374   1.14267
 Alpha virt. eigenvalues --    1.18878   1.22459   1.25259   1.31832   2.60781

 Mulliken charges:
               1
     1  O   -0.765173
     2  H    0.353789
     3  H    0.395355
     4  O   -0.678500
     5  H    0.329335
     6  H    0.365195
 Sum of Mulliken charges =   0.00000

 Dipole moment (field-independent basis, Debye):
    X=             -2.0885    Y=             -1.5963    Z=              0.0000  Tot=              2.6287
 Quadrupole moment (field-independent basis, Debye-Ang):
   XX=             -9.7733   YY=             -3.8379   ZZ=            -14.9962
   XY=             -2.1362   XZ=              0.0000   YZ=              0.0000

 DQ=-33.8647765\MP4SDQ=-33.867037\CCSD=-33.8680215\CCSD(T)=-33.8709063\
 Normal termination of Gaussian 16 at Sun Dec 10 06:34:53 2023.
