 Gaussian 16, Revision A.03,
 Gaussian 16:  ES64L-G16RevA.03 25-Dec-2016

 ------------------
 #p CCSD(T)/CEP-31G
 ------------------

 -----------
 H2O_H2O_275
 -----------
 Symbolic Z-matrix:
 Charge =  0 Multiplicity = 1

                         Standard orientation:
 ---------------------------------------------------------------------
 Center     Atomic      Atomic             Coordinates (Angstroms)
 Number     Number       Type             X           Y           Z
 ---------------------------------------------------------------------
      1          8           0        0.000000   -0.000000    0.949854
      2          1           0        0.000000    0.799571    1.520986
      3          1           0       -0.000000   -0.799571    1.520986
      4          8           0        0.000000   -0.000000   -0.949854
      5          1           0       -0.000000   -0.799571   -1.520986
      6          1           0        0.000000    0.799571   -1.520986
 ---------------------------------------------------------------------

 SCF Done:  E(RHF) =  -33.5698561055     A.U. after   10 cycles
 E2 =    -0.2337169729D+00 EUMP2 =    -0.33803573078325D+02
 CCSD(T)
 CCSD(T)= -0.33820537516D+02

 The electronic state is 1-AG.
 Alpha  occ. eigenvalues --   -1.33766  -1.29898  -0.68565  -0.65948  -0.60801
 Alpha  occ. eigenvalues --   -0.48749  -0.43421  -0.38470
 Alpha virt. eigenvalues --    0.21531   0.26714   0.32662   0.33584   0.78460
 Alpha virt. eigenvalues --    0.81454   0.90142   0.92039   1.06767   1.20414
 Alpha virt. eigenvalues --    1.21459   1.23913   1.28012   1.28187   2.48043

 Mulliken charges:
               1
     1  O   -0.697213
     2  H    0.348606
     3  H    0.348606
     4  O   -0.697213
     5  H    0.348606
     6  H    0.348606
 Sum of Mulliken charges =  -0.00000

 Dipole moment (field-independent basis, Debye):
    X=             -0.0000    Y=              0.0000    Z=              0.0000  Tot=              0.0000
 Quadrupole moment (field-independent basis, Debye-Ang):
   XX=            -15.0357   YY=             -8.3807   ZZ=             -4.8538
   XY=              0.0000   XZ=             -0.0000   YZ=             -0.0000

 33.8141603\MP4SDQ=-33.8165385\CCSD=-33.8174449\CCSD(T)=-33.8205375\RMS
 Normal termination of Gaussian 16 at Sun Dec 10 06:29:54 2023.
