 Gaussian 16, Revision A.03,
 Gaussian 16:  ES64L-G16RevA.03 25-Dec-2016

 ------------------
 #p CCSD(T)/CEP-31G
 ------------------

 ------------
 H2O_H2O_4048
 ------------
 Symbolic Z-matrix:
 Charge =  0 Multiplicity = 1

                         Standard orientation:
 ---------------------------------------------------------------------
 Center     Atomic      Atomic             Coordinates (Angstroms)
 Number     Number       Type             X           Y           Z
 ---------------------------------------------------------------------
      1          8           0        0.057080   -2.886367    0.000000
      2          1           0       -0.743443   -3.456164    0.000000
      3          1           0        0.855697   -3.458833    0.000000
      4          8           0        0.057080    2.992932    0.000000
      5          1           0       -0.459140    3.829008    0.000000
      6          1           0       -0.566392    2.233466    0.000000
 ---------------------------------------------------------------------

 SCF Done:  E(RHF) =  -33.6521127881     A.U. after   11 cycles
 E2 =    -0.2283730830D+00 EUMP2 =    -0.33880485871096D+02
 CCSD(T)
 CCSD(T)= -0.33897476435D+02

 The electronic state is 1-A'.
 Alpha  occ. eigenvalues --   -1.35723  -1.34807  -0.71357  -0.70424  -0.55477
 Alpha  occ. eigenvalues --   -0.54545  -0.50299  -0.49383
 Alpha virt. eigenvalues --    0.20065   0.21013   0.30308   0.31250   0.80253
 Alpha virt. eigenvalues --    0.81153   0.83238   0.84181   0.86370   0.87356
 Alpha virt. eigenvalues --    1.17193   1.18105   1.21648   1.22583   2.57200

 Mulliken charges:
               1
     1  O   -0.742292
     2  H    0.369494
     3  H    0.372798
     4  O   -0.742082
     5  H    0.366960
     6  H    0.375122
 Sum of Mulliken charges =  -0.00000

 Dipole moment (field-independent basis, Debye):
    X=             -2.6317    Y=             -2.4996    Z=              0.0000  Tot=              3.6296
 Quadrupole moment (field-independent basis, Debye-Ang):
   XX=            -10.1552   YY=              6.2919   ZZ=            -14.9894
   XY=             -7.9440   XZ=              0.0000   YZ=              0.0000

 \MP4DQ=-33.8918347\MP4SDQ=-33.8938616\CCSD=-33.8949159\CCSD(T)=-33.897
 Normal termination of Gaussian 16 at Sun Dec 10 06:52:57 2023.
