 Gaussian 16, Revision A.03,
 Gaussian 16:  ES64L-G16RevA.03 25-Dec-2016

 ------------------
 #p CCSD(T)/CEP-31G
 ------------------

 ------------
 H2O_H2O_1628
 ------------
 Symbolic Z-matrix:
 Charge =  0 Multiplicity = 1

                         Standard orientation:
 ---------------------------------------------------------------------
 Center     Atomic      Atomic             Coordinates (Angstroms)
 Number     Number       Type             X           Y           Z
 ---------------------------------------------------------------------
      1          8           0        0.011143   -1.666648    0.000000
      2          1           0       -0.788756   -2.237320    0.000000
      3          1           0        0.810385   -2.238239    0.000000
      4          8           0        0.011143    1.668830    0.000000
      5          1           0        0.684340    2.384590    0.000000
      6          1           0       -0.884255    2.073514    0.000000
 ---------------------------------------------------------------------

 SCF Done:  E(RHF) =  -33.6438348057     A.U. after   11 cycles
 E2 =    -0.2289793723D+00 EUMP2 =    -0.33872814178040D+02
 CCSD(T)
 CCSD(T)= -0.33890074660D+02

 The electronic state is 1-A'.
 Alpha  occ. eigenvalues --   -1.33645  -1.33550  -0.69261  -0.69164  -0.53632
 Alpha  occ. eigenvalues --   -0.52088  -0.48192  -0.47926
 Alpha virt. eigenvalues --    0.21129   0.22452   0.31836   0.32169   0.76581
 Alpha virt. eigenvalues --    0.80612   0.84380   0.84567   0.93402   1.02898
 Alpha virt. eigenvalues --    1.18948   1.19116   1.23357   1.23856   2.58777

 Mulliken charges:
               1
     1  O   -0.715483
     2  H    0.356093
     3  H    0.359399
     4  O   -0.715004
     5  H    0.355726
     6  H    0.359270
 Sum of Mulliken charges =   0.00000

 Dipole moment (field-independent basis, Debye):
    X=             -0.5038    Y=             -0.0543    Z=              0.0000  Tot=              0.5067
 Quadrupole moment (field-independent basis, Debye-Ang):
   XX=             -8.2196   YY=              5.1991   ZZ=            -14.9834
   XY=             -0.5533   XZ=              0.0000   YZ=              0.0000

 \MP4DQ=-33.8843211\MP4SDQ=-33.8863959\CCSD=-33.8874611\CCSD(T)=-33.890
 Normal termination of Gaussian 16 at Sun Dec 10 06:55:09 2023.
