 Gaussian 16, Revision A.03,
 Gaussian 16:  ES64L-G16RevA.03 25-Dec-2016

 ------------------
 #p CCSD(T)/CEP-31G
 ------------------

 ------------
 H2O_H2O_2173
 ------------
 Symbolic Z-matrix:
 Charge =  0 Multiplicity = 1

                         Standard orientation:
 ---------------------------------------------------------------------
 Center     Atomic      Atomic             Coordinates (Angstroms)
 Number     Number       Type             X           Y           Z
 ---------------------------------------------------------------------
      1          8           0        0.057126   -1.889225    0.000000
      2          1           0       -0.743885   -2.458335    0.000000
      3          1           0        0.855252   -2.462374    0.000000
      4          8           0        0.057126    1.995692    0.000000
      5          1           0       -0.458378    2.832210    0.000000
      6          1           0       -0.566997    1.236761    0.000000
 ---------------------------------------------------------------------

 SCF Done:  E(RHF) =  -33.6533573157     A.U. after   11 cycles
 E2 =    -0.2285569204D+00 EUMP2 =    -0.33881914236147D+02
 CCSD(T)
 CCSD(T)= -0.33898886408D+02

 The electronic state is 1-A'.
 Alpha  occ. eigenvalues --   -1.35995  -1.33710  -0.71636  -0.69275  -0.55823
 Alpha  occ. eigenvalues --   -0.53465  -0.50587  -0.48303
 Alpha virt. eigenvalues --    0.19273   0.22761   0.30020   0.32654   0.79806
 Alpha virt. eigenvalues --    0.80092   0.82374   0.85577   0.86302   0.93055
 Alpha virt. eigenvalues --    1.16944   1.19689   1.21355   1.25957   2.55744

 Mulliken charges:
               1
     1  O   -0.745929
     2  H    0.368184
     3  H    0.378695
     4  O   -0.745142
     5  H    0.358722
     6  H    0.385470
 Sum of Mulliken charges =   0.00000

 Dipole moment (field-independent basis, Debye):
    X=             -2.6063    Y=             -2.5932    Z=              0.0000  Tot=              3.6767
 Quadrupole moment (field-independent basis, Debye-Ang):
   XX=            -10.1413   YY=              0.5254   ZZ=            -14.9929
   XY=             -5.3586   XZ=              0.0000   YZ=              0.0000

 8\MP4DQ=-33.8932196\MP4SDQ=-33.8952676\CCSD=-33.8963071\CCSD(T)=-33.89
 Normal termination of Gaussian 16 at Sun Dec 10 07:06:31 2023.
