 Gaussian 16, Revision A.03,
 Gaussian 16:  ES64L-G16RevA.03 25-Dec-2016

 ------------------
 #p CCSD(T)/CEP-31G
 ------------------

 ------------
 H2O_H2O_4168
 ------------
 Symbolic Z-matrix:
 Charge =  0 Multiplicity = 1

                         Standard orientation:
 ---------------------------------------------------------------------
 Center     Atomic      Atomic             Coordinates (Angstroms)
 Number     Number       Type             X           Y           Z
 ---------------------------------------------------------------------
      1          8           0        0.052819   -2.972511    0.000000
      2          1           0       -0.747614   -3.542435    0.000000
      3          1           0        0.851526   -3.544850    0.000000
      4          8           0        0.052819    3.042865    0.000000
      5          1           0       -0.167409    4.000470    0.000000
      6          1           0       -0.781606    2.523981    0.000000
 ---------------------------------------------------------------------

 SCF Done:  E(RHF) =  -33.6515249618     A.U. after   11 cycles
 E2 =    -0.2284039117D+00 EUMP2 =    -0.33879928873483D+02
 CCSD(T)
 CCSD(T)= -0.33896936606D+02

 The electronic state is 1-A'.
 Alpha  occ. eigenvalues --   -1.35457  -1.34874  -0.71089  -0.70493  -0.55177
 Alpha  occ. eigenvalues --   -0.54589  -0.50024  -0.49442
 Alpha virt. eigenvalues --    0.20299   0.20898   0.30538   0.31124   0.80528
 Alpha virt. eigenvalues --    0.81101   0.83575   0.84162   0.86679   0.87328
 Alpha virt. eigenvalues --    1.17434   1.18012   1.21894   1.22481   2.57457

 Mulliken charges:
               1
     1  O   -0.740204
     2  H    0.368586
     3  H    0.371619
     4  O   -0.739800
     5  H    0.366929
     6  H    0.372871
 Sum of Mulliken charges =  -0.00000

 Dipole moment (field-independent basis, Debye):
    X=             -2.4365    Y=             -1.6485    Z=              0.0000  Tot=              2.9418
 Quadrupole moment (field-independent basis, Debye-Ang):
   XX=             -9.8495   YY=             11.5874   ZZ=            -14.9884
   XY=             -6.8974   XZ=              0.0000   YZ=              0.0000

 MP4DQ=-33.8912904\MP4SDQ=-33.8933189\CCSD=-33.8943744\CCSD(T)=-33.8969
 Normal termination of Gaussian 16 at Sun Dec 10 06:55:09 2023.
