 Gaussian 16, Revision A.03,
 Gaussian 16:  ES64L-G16RevA.03 25-Dec-2016

 ------------------
 #p CCSD(T)/CEP-31G
 ------------------

 ------------
 H2O_H2O_3993
 ------------
 Symbolic Z-matrix:
 Charge =  0 Multiplicity = 1

                         Standard orientation:
 ---------------------------------------------------------------------
 Center     Atomic      Atomic             Coordinates (Angstroms)
 Number     Number       Type             X           Y           Z
 ---------------------------------------------------------------------
      1          8           0        0.052821   -2.879442    0.000000
      2          1           0       -0.747640   -3.449328    0.000000
      3          1           0        0.851500   -3.451820    0.000000
      4          8           0        0.052821    2.949792    0.000000
      5          1           0       -0.167361    3.907407    0.000000
      6          1           0       -0.781629    2.430947    0.000000
 ---------------------------------------------------------------------

 SCF Done:  E(RHF) =  -33.6514994851     A.U. after   11 cycles
 E2 =    -0.2284080340D+00 EUMP2 =    -0.33879907519112D+02
 CCSD(T)
 CCSD(T)= -0.33896915985D+02

 The electronic state is 1-A'.
 Alpha  occ. eigenvalues --   -1.35448  -1.34826  -0.71080  -0.70443  -0.55167
 Alpha  occ. eigenvalues --   -0.54538  -0.50015  -0.49393
 Alpha virt. eigenvalues --    0.20306   0.20947   0.30545   0.31171   0.80538
 Alpha virt. eigenvalues --    0.81149   0.83584   0.84214   0.86690   0.87388
 Alpha virt. eigenvalues --    1.17441   1.18059   1.21902   1.22529   2.57465

 Mulliken charges:
               1
     1  O   -0.740121
     2  H    0.368404
     3  H    0.371717
     4  O   -0.739651
     5  H    0.366587
     6  H    0.373064
 Sum of Mulliken charges =   0.00000

 Dipole moment (field-independent basis, Debye):
    X=             -2.4357    Y=             -1.6503    Z=              0.0000  Tot=              2.9421
 Quadrupole moment (field-independent basis, Debye-Ang):
   XX=             -9.8492   YY=             10.8965   ZZ=            -14.9884
   XY=             -6.6729   XZ=              0.0000   YZ=              0.0000

 \MP4DQ=-33.8912695\MP4SDQ=-33.8932981\CCSD=-33.8943536\CCSD(T)=-33.896
 Normal termination of Gaussian 16 at Sun Dec 10 06:51:58 2023.
