 Gaussian 16, Revision A.03,
 Gaussian 16:  ES64L-G16RevA.03 25-Dec-2016

 ------------------
 #p CCSD(T)/CEP-31G
 ------------------

 ------------
 H2O_H2O_2676
 ------------
 Symbolic Z-matrix:
 Charge =  0 Multiplicity = 1

                         Standard orientation:
 ---------------------------------------------------------------------
 Center     Atomic      Atomic             Coordinates (Angstroms)
 Number     Number       Type             X           Y           Z
 ---------------------------------------------------------------------
      1          8           0        0.003735   -2.226129    0.000000
      2          1           0       -0.795918   -2.797145    0.000000
      3          1           0        0.803224   -2.797376    0.000000
      4          8           0        0.003735    2.226372    0.000000
      5          1           0        0.764331    2.848466    0.000000
      6          1           0       -0.831403    2.744108    0.000000
 ---------------------------------------------------------------------

 SCF Done:  E(RHF) =  -33.6483893935     A.U. after   10 cycles
 E2 =    -0.2285840404D+00 EUMP2 =    -0.33876973433924D+02
 CCSD(T)
 CCSD(T)= -0.33894072111D+02

 The electronic state is 1-A'.
 Alpha  occ. eigenvalues --   -1.34403  -1.34398  -0.70025  -0.70019  -0.54025
 Alpha  occ. eigenvalues --   -0.53844  -0.48932  -0.48912
 Alpha virt. eigenvalues --    0.21042   0.21329   0.31377   0.31450   0.81466
 Alpha virt. eigenvalues --    0.81788   0.82572   0.87443   0.87715   0.88335
 Alpha virt. eigenvalues --    1.18358   1.18362   1.22800   1.22899   2.58369

 Mulliken charges:
               1
     1  O   -0.729308
     2  H    0.364398
     3  H    0.364910
     4  O   -0.729294
     5  H    0.364329
     6  H    0.364964
 Sum of Mulliken charges =  -0.00000

 Dipole moment (field-independent basis, Debye):
    X=             -0.1713    Y=             -0.0058    Z=              0.0000  Tot=              0.1714
 Quadrupole moment (field-independent basis, Debye-Ang):
   XX=             -8.0823   YY=             11.4591   ZZ=            -14.9848
   XY=             -0.2724   XZ=              0.0000   YZ=              0.0000

 \MP4DQ=-33.8883989\MP4SDQ=-33.8904373\CCSD=-33.8914973\CCSD(T)=-33.894
 Normal termination of Gaussian 16 at Sun Dec 10 06:28:01 2023.
