 Gaussian 16, Revision A.03,
 Gaussian 16:  ES64L-G16RevA.03 25-Dec-2016

 ------------------
 #p CCSD(T)/CEP-31G
 ------------------

 ------------
 H2O_H2O_2358
 ------------
 Symbolic Z-matrix:
 Charge =  0 Multiplicity = 1

                         Standard orientation:
 ---------------------------------------------------------------------
 Center     Atomic      Atomic             Coordinates (Angstroms)
 Number     Number       Type             X           Y           Z
 ---------------------------------------------------------------------
      1          8           0        0.028566   -2.045140    0.000000
      2          1           0       -0.771689   -2.615314    0.000000
      3          1           0        0.827452   -2.617229    0.000000
      4          8           0        0.028566    2.060374    0.000000
      5          1           0        0.436521    2.954287    0.000000
      6          1           0       -0.949335    2.156376    0.000000
 ---------------------------------------------------------------------

 SCF Done:  E(RHF) =  -33.6482418640     A.U. after   11 cycles
 E2 =    -0.2286437718D+00 EUMP2 =    -0.33876885635771D+02
 CCSD(T)
 CCSD(T)= -0.33893990736D+02

 The electronic state is 1-A'.
 Alpha  occ. eigenvalues --   -1.34453  -1.34174  -0.70077  -0.69783  -0.54050
 Alpha  occ. eigenvalues --   -0.53623  -0.48975  -0.48694
 Alpha virt. eigenvalues --    0.20901   0.21615   0.31357   0.31616   0.80454
 Alpha virt. eigenvalues --    0.81294   0.82128   0.86556   0.88254   0.91817
 Alpha virt. eigenvalues --    1.18301   1.18585   1.22798   1.23083   2.58243

 Mulliken charges:
               1
     1  O   -0.728903
     2  H    0.362046
     3  H    0.366901
     4  O   -0.727772
     5  H    0.360705
     6  H    0.367023
 Sum of Mulliken charges =  -0.00000

 Dipole moment (field-independent basis, Debye):
    X=             -1.3060    Y=             -0.3665    Z=              0.0000  Tot=              1.3564
 Quadrupole moment (field-independent basis, Debye-Ang):
   XX=             -8.5994   YY=              8.5995   ZZ=            -14.9851
   XY=             -1.9986   XZ=              0.0000   YZ=              0.0000

 \MP4DQ=-33.8883113\MP4SDQ=-33.890354\CCSD=-33.8914115\CCSD(T)=-33.8939
 Normal termination of Gaussian 16 at Sun Dec 10 07:09:50 2023.
