 Gaussian 16, Revision A.03,
 Gaussian 16:  ES64L-G16RevA.03 25-Dec-2016

 ------------------
 #p CCSD(T)/CEP-31G
 ------------------

 -----------
 H2O_H2O_382
 -----------
 Symbolic Z-matrix:
 Charge =  0 Multiplicity = 1

                         Standard orientation:
 ---------------------------------------------------------------------
 Center     Atomic      Atomic             Coordinates (Angstroms)
 Number     Number       Type             X           Y           Z
 ---------------------------------------------------------------------
      1          8           0        0.025273   -0.996698    0.000000
      2          1           0       -0.775535   -1.566094    0.000000
      3          1           0        0.823604   -1.569563    0.000000
      4          8           0        0.025273    1.008368    0.000000
      5          1           0        0.491658    1.873232    0.000000
      6          1           0       -0.944099    1.169062    0.000000
 ---------------------------------------------------------------------

 SCF Done:  E(RHF) =  -33.5947118557     A.U. after   11 cycles
 E2 =    -0.2323754554D+00 EUMP2 =    -0.33827087311071D+02
 CCSD(T)
 CCSD(T)= -0.33844276331D+02

 The electronic state is 1-A'.
 Alpha  occ. eigenvalues --   -1.33583  -1.30497  -0.68817  -0.66707  -0.58428
 Alpha  occ. eigenvalues --   -0.48507  -0.44193  -0.41858
 Alpha virt. eigenvalues --    0.21185   0.26302   0.32459   0.33354   0.80573
 Alpha virt. eigenvalues --    0.80624   0.90143   0.96513   1.01566   1.18641
 Alpha virt. eigenvalues --    1.19899   1.23537   1.26225   1.29222   2.49418

 Mulliken charges:
               1
     1  O   -0.716683
     2  H    0.340990
     3  H    0.367649
     4  O   -0.686230
     5  H    0.350605
     6  H    0.343669
 Sum of Mulliken charges =   0.00000

 Dipole moment (field-independent basis, Debye):
    X=             -0.9848    Y=             -0.2773    Z=              0.0000  Tot=              1.0231
 Quadrupole moment (field-independent basis, Debye-Ang):
   XX=             -8.7067   YY=             -3.8762   ZZ=            -15.0162
   XY=             -0.6300   XZ=              0.0000   YZ=              0.0000

 MP4DQ=-33.8380511\MP4SDQ=-33.8403346\CCSD=-33.8413199\CCSD(T)=-33.8442
 Normal termination of Gaussian 16 at Sun Dec 10 06:31:55 2023.
