 Gaussian 16, Revision A.03,
 Gaussian 16:  ES64L-G16RevA.03 25-Dec-2016

 ------------------
 #p CCSD(T)/CEP-31G
 ------------------

 -----------
 H2O_H2O_365
 -----------
 Symbolic Z-matrix:
 Charge =  0 Multiplicity = 1

                         Standard orientation:
 ---------------------------------------------------------------------
 Center     Atomic      Atomic             Coordinates (Angstroms)
 Number     Number       Type             X           Y           Z
 ---------------------------------------------------------------------
      1          8           0        0.047593   -0.962379    0.000000
      2          1           0       -0.754336   -1.530196    0.000000
      3          1           0        0.844793   -1.536816    0.000000
      4          8           0        0.047593    1.012751    0.000000
      5          1           0        0.020997    1.994992    0.000000
      6          1           0       -0.872935    0.669044    0.000000
 ---------------------------------------------------------------------

 SCF Done:  E(RHF) =  -33.5966304724     A.U. after   11 cycles
 E2 =    -0.2326234775D+00 EUMP2 =    -0.33829253949944D+02
 CCSD(T)
 CCSD(T)= -0.33846449717D+02

 The electronic state is 1-A'.
 Alpha  occ. eigenvalues --   -1.35425  -1.30414  -0.71169  -0.68185  -0.55849
 Alpha  occ. eigenvalues --   -0.50052  -0.44820  -0.44497
 Alpha virt. eigenvalues --    0.20102   0.27403   0.31161   0.33659   0.79599
 Alpha virt. eigenvalues --    0.84835   0.89913   0.96616   0.99155   1.16368
 Alpha virt. eigenvalues --    1.19405   1.24770   1.26057   1.32526   2.56403

 Mulliken charges:
               1
     1  O   -0.765647
     2  H    0.348974
     3  H    0.393451
     4  O   -0.661464
     5  H    0.329766
     6  H    0.354920
 Sum of Mulliken charges =  -0.00000

 Dipole moment (field-independent basis, Debye):
    X=             -1.8598    Y=             -1.2482    Z=              0.0000  Tot=              2.2398
 Quadrupole moment (field-independent basis, Debye-Ang):
   XX=             -9.5885   YY=             -4.7717   ZZ=            -14.9914
   XY=             -1.6203   XZ=              0.0000   YZ=              0.0000

 4DQ=-33.840168\MP4SDQ=-33.8425165\CCSD=-33.8434513\CCSD(T)=-33.8464497
 Normal termination of Gaussian 16 at Sun Dec 10 06:31:36 2023.
