 Gaussian 16, Revision A.03,
 Gaussian 16:  ES64L-G16RevA.03 25-Dec-2016

 ------------------
 #p CCSD(T)/CEP-31G
 ------------------

 ------------
 H2O_H2O_4350
 ------------
 Symbolic Z-matrix:
 Charge =  0 Multiplicity = 1

                         Standard orientation:
 ---------------------------------------------------------------------
 Center     Atomic      Atomic             Coordinates (Angstroms)
 Number     Number       Type             X           Y           Z
 ---------------------------------------------------------------------
      1          8           0        0.000000   -0.000000    3.117087
      2          1           0        0.000000    0.799571    3.688219
      3          1           0       -0.000000   -0.799571    3.688219
      4          8           0        0.000000   -0.000000   -3.117087
      5          1           0       -0.000000   -0.799571   -3.688219
      6          1           0        0.000000    0.799571   -3.688219
 ---------------------------------------------------------------------

 SCF Done:  E(RHF) =  -33.6505453638     A.U. after   10 cycles
 E2 =    -0.2284441400D+00 EUMP2 =    -0.33878989503806D+02
 CCSD(T)
 CCSD(T)= -0.33896025611D+02

 The electronic state is 1-AG.
 Alpha  occ. eigenvalues --   -1.34974  -1.34974  -0.70601  -0.70601  -0.54640
 Alpha  occ. eigenvalues --   -0.54639  -0.49526  -0.49526
 Alpha virt. eigenvalues --    0.20728   0.20730   0.30960   0.30960   0.81027
 Alpha virt. eigenvalues --    0.81028   0.84162   0.84186   0.87237   0.87239
 Alpha virt. eigenvalues --    1.17875   1.17875   1.22343   1.22343   2.57921

 Mulliken charges:
               1
     1  O   -0.736695
     2  H    0.368348
     3  H    0.368348
     4  O   -0.736695
     5  H    0.368348
     6  H    0.368348
 Sum of Mulliken charges =   0.00000

 Dipole moment (field-independent basis, Debye):
    X=             -0.0000    Y=              0.0000    Z=              0.0000  Tot=              0.0000
 Quadrupole moment (field-independent basis, Debye-Ang):
   XX=            -14.9867   YY=             -8.0392   ZZ=             21.0651
   XY=              0.0000   XZ=              0.0000   YZ=             -0.0000

 -33.8903718\MP4SDQ=-33.8924027\CCSD=-33.8934605\CCSD(T)=-33.8960256\RM
 Normal termination of Gaussian 16 at Sun Dec 10 06:58:20 2023.
