 Gaussian 16, Revision A.03,
 Gaussian 16:  ES64L-G16RevA.03 25-Dec-2016

 ------------------
 #p CCSD(T)/CEP-31G
 ------------------

 ------------
 H2O_H2O_3233
 ------------
 Symbolic Z-matrix:
 Charge =  0 Multiplicity = 1

                         Standard orientation:
 ---------------------------------------------------------------------
 Center     Atomic      Atomic             Coordinates (Angstroms)
 Number     Number       Type             X           Y           Z
 ---------------------------------------------------------------------
      1          8           0        0.028564   -2.510490    0.000000
      2          1           0       -0.771564   -3.080841    0.000000
      3          1           0        0.827577   -3.082402    0.000000
      4          8           0        0.028564    2.525738    0.000000
      5          1           0        0.436321    3.419741    0.000000
      6          1           0       -0.949358    2.621521    0.000000
 ---------------------------------------------------------------------

 SCF Done:  E(RHF) =  -33.6498314269     A.U. after   11 cycles
 E2 =    -0.2284998768D+00 EUMP2 =    -0.33878331303722D+02
 CCSD(T)
 CCSD(T)= -0.33895388210D+02

 The electronic state is 1-A'.
 Alpha  occ. eigenvalues --   -1.34813  -1.34630  -0.70439  -0.70249  -0.54438
 Alpha  occ. eigenvalues --   -0.54252  -0.49356  -0.49174
 Alpha virt. eigenvalues --    0.20838   0.21048   0.31081   0.31256   0.81193
 Alpha virt. eigenvalues --    0.81380   0.83956   0.85020   0.87438   0.87732
 Alpha virt. eigenvalues --    1.18006   1.18186   1.22481   1.22662   2.58070

 Mulliken charges:
               1
     1  O   -0.734277
     2  H    0.365744
     3  H    0.368534
     4  O   -0.733822
     5  H    0.364970
     6  H    0.368852
 Sum of Mulliken charges =   0.00000

 Dipole moment (field-independent basis, Debye):
    X=             -1.3140    Y=             -0.3601    Z=              0.0000  Tot=              1.3624
 Quadrupole moment (field-independent basis, Debye-Ang):
   XX=             -8.5790   YY=             13.3178   ZZ=            -14.9861
   XY=             -2.5891   XZ=              0.0000   YZ=              0.0000

 \MP4DQ=-33.8897283\MP4SDQ=-33.8917616\CCSD=-33.8928198\CCSD(T)=-33.895
 Normal termination of Gaussian 16 at Sun Dec 10 06:38:04 2023.
