 Gaussian 16, Revision A.03,
 Gaussian 16:  ES64L-G16RevA.03 25-Dec-2016

 ------------------
 #p CCSD(T)/CEP-31G
 ------------------

 ------------
 H2O_H2O_2662
 ------------
 Symbolic Z-matrix:
 Charge =  0 Multiplicity = 1

                         Standard orientation:
 ---------------------------------------------------------------------
 Center     Atomic      Atomic             Coordinates (Angstroms)
 Number     Number       Type             X           Y           Z
 ---------------------------------------------------------------------
      1          8           0        0.040411   -2.194864    0.000000
      2          1           0       -0.760056   -2.764738    0.000000
      3          1           0        0.839084   -2.767252    0.000000
      4          8           0        0.040411    2.228193    0.000000
      5          1           0        0.203466    3.197171    0.000000
      6          1           0       -0.929075    2.068186    0.000000
 ---------------------------------------------------------------------

 SCF Done:  E(RHF) =  -33.6496649442     A.U. after   11 cycles
 E2 =    -0.2285511576D+00 EUMP2 =    -0.33878216101782D+02
 CCSD(T)
 CCSD(T)= -0.33895278798D+02

 The electronic state is 1-A'.
 Alpha  occ. eigenvalues --   -1.34851  -1.34325  -0.70478  -0.69930  -0.54470
 Alpha  occ. eigenvalues --   -0.53927  -0.49391  -0.48869
 Alpha virt. eigenvalues --    0.20693   0.21436   0.31032   0.31544   0.81108
 Alpha virt. eigenvalues --    0.81726   0.82221   0.85835   0.87441   0.89510
 Alpha virt. eigenvalues --    1.17962   1.18491   1.22430   1.22973   2.58028

 Mulliken charges:
               1
     1  O   -0.733803
     2  H    0.364123
     3  H    0.369710
     4  O   -0.732333
     5  H    0.362030
     6  H    0.370273
 Sum of Mulliken charges =   0.00000

 Dipole moment (field-independent basis, Debye):
    X=             -1.8522    Y=             -0.7947    Z=              0.0000  Tot=              2.0155
 Quadrupole moment (field-independent basis, Debye-Ang):
   XX=             -9.1082   YY=              8.8196   ZZ=            -14.9865
   XY=             -3.3399   XZ=              0.0000   YZ=              0.0000

 \MP4DQ=-33.8896151\MP4SDQ=-33.8916508\CCSD=-33.8927072\CCSD(T)=-33.895
 Normal termination of Gaussian 16 at Sun Dec 10 06:27:45 2023.
