 Gaussian 16, Revision A.03,
 Gaussian 16:  ES64L-G16RevA.03 25-Dec-2016

 ------------------
 #p CCSD(T)/CEP-31G
 ------------------

 -----------
 H2O_H2O_642
 -----------
 Symbolic Z-matrix:
 Charge =  0 Multiplicity = 1

                         Standard orientation:
 ---------------------------------------------------------------------
 Center     Atomic      Atomic             Coordinates (Angstroms)
 Number     Number       Type             X           Y           Z
 ---------------------------------------------------------------------
      1          8           0        0.051347   -1.101610    0.000000
      2          1           0       -0.750440   -1.669627    0.000000
      3          1           0        0.848689   -1.675849    0.000000
      4          8           0        0.051347    1.164916    0.000000
      5          1           0       -0.103470    2.135245    0.000000
      6          1           0       -0.816328    0.703781    0.000000
 ---------------------------------------------------------------------

 SCF Done:  E(RHF) =  -33.6309863783     A.U. after   11 cycles
 E2 =    -0.2309841407D+00 EUMP2 =    -0.33861970519023D+02
 CCSD(T)
 CCSD(T)= -0.33879193769D+02

 The electronic state is 1-A'.
 Alpha  occ. eigenvalues --   -1.35124  -1.31282  -0.70823  -0.67979  -0.54698
 Alpha  occ. eigenvalues --   -0.49750  -0.49191  -0.45610
 Alpha virt. eigenvalues --    0.19816   0.26471   0.30878   0.33947   0.78170
 Alpha virt. eigenvalues --    0.84433   0.89356   0.95536   0.96135   1.14444
 Alpha virt. eigenvalues --    1.18897   1.21809   1.24490   1.31366   2.61583

 Mulliken charges:
               1
     1  O   -0.758344
     2  H    0.353999
     3  H    0.391892
     4  O   -0.687118
     5  H    0.332259
     6  H    0.367311
 Sum of Mulliken charges =   0.00000

 Dipole moment (field-independent basis, Debye):
    X=             -2.1278    Y=             -1.5973    Z=              0.0000  Tot=              2.6606
 Quadrupole moment (field-independent basis, Debye-Ang):
   XX=             -9.7680   YY=             -3.1861   ZZ=            -14.9970
   XY=             -2.2650   XZ=              0.0000   YZ=              0.0000

 MP4DQ=-33.8731347\MP4SDQ=-33.8753577\CCSD=-33.8763678\CCSD(T)=-33.8791
 Normal termination of Gaussian 16 at Sun Dec 10 06:36:44 2023.
