 Gaussian 16, Revision A.03,
 Gaussian 16:  ES64L-G16RevA.03 25-Dec-2016

 ------------------
 #p CCSD(T)/CEP-31G
 ------------------

 -----------
 H2O_H2O_703
 -----------
 Symbolic Z-matrix:
 Charge =  0 Multiplicity = 1

                         Standard orientation:
 ---------------------------------------------------------------------
 Center     Atomic      Atomic             Coordinates (Angstroms)
 Number     Number       Type             X           Y           Z
 ---------------------------------------------------------------------
      1          8           0        0.011143   -1.174702    0.000000
      2          1           0       -0.788893   -1.745182    0.000000
      3          1           0        0.810248   -1.746486    0.000000
      4          8           0        0.011143    1.176879    0.000000
      5          1           0        0.684512    1.892476    0.000000
      6          1           0       -0.884157    1.581778    0.000000
 ---------------------------------------------------------------------

 SCF Done:  E(RHF) =  -33.6242286376     A.U. after   11 cycles
 E2 =    -0.2304703082D+00 EUMP2 =    -0.33854698945762D+02
 CCSD(T)
 CCSD(T)= -0.33872092841D+02

 The electronic state is 1-A'.
 Alpha  occ. eigenvalues --   -1.32731  -1.31638  -0.68188  -0.67371  -0.55574
 Alpha  occ. eigenvalues --   -0.47516  -0.46230  -0.45527
 Alpha virt. eigenvalues --    0.21508   0.24662   0.32779   0.33076   0.78764
 Alpha virt. eigenvalues --    0.79663   0.89506   0.93846   1.02972   1.12219
 Alpha virt. eigenvalues --    1.19855   1.22267   1.24045   1.26043   2.53294

 Mulliken charges:
               1
     1  O   -0.700482
     2  H    0.345577
     3  H    0.354047
     4  O   -0.697042
     5  H    0.349334
     6  H    0.348566
 Sum of Mulliken charges =  -0.00000

 Dipole moment (field-independent basis, Debye):
    X=             -0.4641    Y=             -0.0515    Z=              0.0000  Tot=              0.4670
 Quadrupole moment (field-independent basis, Debye-Ang):
   XX=             -8.3432   YY=             -1.0120   ZZ=            -15.0029
   XY=             -0.3190   XZ=              0.0000   YZ=              0.0000

 P4DQ=-33.8661118\MP4SDQ=-33.8682413\CCSD=-33.8693242\CCSD(T)=-33.87209
 Normal termination of Gaussian 16 at Sun Dec 10 06:37:52 2023.
