 Gaussian 16, Revision A.03,
 Gaussian 16:  ES64L-G16RevA.03 25-Dec-2016

 ------------------
 #p CCSD(T)/CEP-31G
 ------------------

 ------------
 H2O_H2O_4315
 ------------
 Symbolic Z-matrix:
 Charge =  0 Multiplicity = 1

                         Standard orientation:
 ---------------------------------------------------------------------
 Center     Atomic      Atomic             Coordinates (Angstroms)
 Number     Number       Type             X           Y           Z
 ---------------------------------------------------------------------
      1          8           0        0.047521   -3.062993    0.000000
      2          1           0       -0.752805   -3.633066    0.000000
      3          1           0        0.846336   -3.635183    0.000000
      4          8           0        0.047521    3.113633    0.000000
      5          1           0        0.018161    4.095796    0.000000
      6          1           0       -0.872035    2.767334    0.000000
 ---------------------------------------------------------------------

 SCF Done:  E(RHF) =  -33.6512559555     A.U. after   11 cycles
 E2 =    -0.2284153123D+00 EUMP2 =    -0.33879671267750D+02
 CCSD(T)
 CCSD(T)= -0.33896686860D+02

 The electronic state is 1-A'.
 Alpha  occ. eigenvalues --   -1.35326  -1.34928  -0.70956  -0.70549  -0.55031
 Alpha  occ. eigenvalues --   -0.54630  -0.49889  -0.49492
 Alpha virt. eigenvalues --    0.20416   0.20823   0.30653   0.31049   0.80664
 Alpha virt. eigenvalues --    0.81056   0.83739   0.84135   0.86831   0.87282
 Alpha virt. eigenvalues --    1.17553   1.17948   1.22016   1.22415   2.57583

 Mulliken charges:
               1
     1  O   -0.739240
     2  H    0.368329
     3  H    0.370912
     4  O   -0.738872
     5  H    0.367164
     6  H    0.371709
 Sum of Mulliken charges =  -0.00000

 Dipole moment (field-independent basis, Debye):
    X=             -2.1928    Y=             -1.1854    Z=              0.0000  Tot=              2.4927
 Quadrupole moment (field-independent basis, Debye-Ang):
   XX=             -9.5039   YY=             14.7500   ZZ=            -14.9878
   XY=             -6.0777   XZ=              0.0000   YZ=              0.0000

 \MP4DQ=-33.8910386\MP4SDQ=-33.8930677\CCSD=-33.8941239\CCSD(T)=-33.896
 Normal termination of Gaussian 16 at Sun Dec 10 06:57:44 2023.
