 Gaussian 16, Revision A.03,
 Gaussian 16:  ES64L-G16RevA.03 25-Dec-2016

 ------------------
 #p CCSD(T)/CEP-31G
 ------------------

 ----------
 H2O_H2O_27
 ----------
 Symbolic Z-matrix:
 Charge =  0 Multiplicity = 1

                         Standard orientation:
 ---------------------------------------------------------------------
 Center     Atomic      Atomic             Coordinates (Angstroms)
 Number     Number       Type             X           Y           Z
 ---------------------------------------------------------------------
      1          8           0        0.007455   -0.816370    0.000000
      2          1           0       -0.792564   -1.386874    0.000000
      3          1           0        0.806577   -1.388130    0.000000
      4          8           0        0.007455    0.817335    0.000000
      5          1           0        0.726165    1.487382    0.000000
      6          1           0       -0.859461    1.279897    0.000000
 ---------------------------------------------------------------------

 SCF Done:  E(RHF) =  -33.4704182918     A.U. after   11 cycles
 E2 =    -0.2399342752D+00 EUMP2 =    -0.33710352566953D+02
 CCSD(T)
 CCSD(T)= -0.33726513684D+02

 The electronic state is 1-A'.
 Alpha  occ. eigenvalues --   -1.37538  -1.28836  -0.70909  -0.67551  -0.65075
 Alpha  occ. eigenvalues --   -0.52150  -0.42364  -0.30315
 Alpha virt. eigenvalues --    0.21058   0.28887   0.31432   0.33699   0.80031
 Alpha virt. eigenvalues --    0.82243   0.87528   0.88796   1.03735   1.19014
 Alpha virt. eigenvalues --    1.20460   1.25106   1.27782   1.40293   2.52405

 Mulliken charges:
               1
     1  O   -0.686221
     2  H    0.335605
     3  H    0.350306
     4  O   -0.683647
     5  H    0.341334
     6  H    0.342623
 Sum of Mulliken charges =  -0.00000

 Dipole moment (field-independent basis, Debye):
    X=             -0.2717    Y=             -0.0297    Z=              0.0000  Tot=              0.2733
 Quadrupole moment (field-independent basis, Debye-Ang):
   XX=             -8.6209   YY=             -8.0983   ZZ=            -15.0264
   XY=             -0.1915   XZ=              0.0000   YZ=              0.0000

 DQ=-33.7194662\MP4SDQ=-33.7223697\CCSD=-33.7228259\CCSD(T)=-33.7265137
 Normal termination of Gaussian 16 at Sun Dec 10 06:25:14 2023.
