 Gaussian 16, Revision A.03,
 Gaussian 16:  ES64L-G16RevA.03 25-Dec-2016

 ------------------
 #p CCSD(T)/CEP-31G
 ------------------

 ------------
 H2O_H2O_3464
 ------------
 Symbolic Z-matrix:
 Charge =  0 Multiplicity = 1

                         Standard orientation:
 ---------------------------------------------------------------------
 Center     Atomic      Atomic             Coordinates (Angstroms)
 Number     Number       Type             X           Y           Z
 ---------------------------------------------------------------------
      1          8           0        0.045344   -2.614236    0.000000
      2          1           0       -0.755071   -3.184185    0.000000
      3          1           0        0.844069   -3.186550    0.000000
      4          8           0        0.045344    2.658792    0.000000
      5          1           0        0.080436    3.640767    0.000000
      6          1           0       -0.894937    2.373522    0.000000
 ---------------------------------------------------------------------

 SCF Done:  E(RHF) =  -33.6507843202     A.U. after   11 cycles
 E2 =    -0.2284544946D+00 EUMP2 =    -0.33879238814797D+02
 CCSD(T)
 CCSD(T)= -0.33896268192D+02

 The electronic state is 1-A'.
 Alpha  occ. eigenvalues --   -1.35168  -1.34681  -0.70797  -0.70295  -0.54847
 Alpha  occ. eigenvalues --   -0.54356  -0.49724  -0.49239
 Alpha virt. eigenvalues --    0.20542   0.21049   0.30782   0.31261   0.80829
 Alpha virt. eigenvalues --    0.81306   0.83850   0.84512   0.87021   0.87623
 Alpha virt. eigenvalues --    1.17691   1.18173   1.22157   1.22645   2.57730

 Mulliken charges:
               1
     1  O   -0.737623
     2  H    0.366888
     3  H    0.370736
     4  O   -0.736872
     5  H    0.365255
     6  H    0.371616
 Sum of Mulliken charges =  -0.00000

 Dipole moment (field-independent basis, Debye):
    X=             -2.0877    Y=             -1.0496    Z=              0.0000  Tot=              2.3366
 Quadrupole moment (field-independent basis, Debye-Ang):
   XX=             -9.3737   YY=             11.6081   ZZ=            -14.9874
   XY=             -4.7774   XZ=              0.0000   YZ=              0.0000

 \MP4DQ=-33.8906159\MP4SDQ=-33.8926466\CCSD=-33.893703\CCSD(T)=-33.8962
 Normal termination of Gaussian 16 at Sun Dec 10 06:42:14 2023.
