 Gaussian 16, Revision A.03,
 Gaussian 16:  ES64L-G16RevA.03 25-Dec-2016

 ------------------
 #p CCSD(T)/CEP-31G
 ------------------

 -----------
 H2O_H2O_653
 -----------
 Symbolic Z-matrix:
 Charge =  0 Multiplicity = 1

                         Standard orientation:
 ---------------------------------------------------------------------
 Center     Atomic      Atomic             Coordinates (Angstroms)
 Number     Number       Type             X           Y           Z
 ---------------------------------------------------------------------
      1          8           0        0.011143   -1.148110    0.000000
      2          1           0       -0.788904   -1.718575    0.000000
      3          1           0        0.810237   -1.719909    0.000000
      4          8           0        0.011143    1.150286    0.000000
      5          1           0        0.684526    1.865872    0.000000
      6          1           0       -0.884149    1.555204    0.000000
 ---------------------------------------------------------------------

 SCF Done:  E(RHF) =  -33.6212192584     A.U. after   11 cycles
 E2 =    -0.2306705581D+00 EUMP2 =    -0.33851889816542D+02
 CCSD(T)
 CCSD(T)= -0.33869262576D+02

 The electronic state is 1-A'.
 Alpha  occ. eigenvalues --   -1.32736  -1.31471  -0.68162  -0.67227  -0.55931
 Alpha  occ. eigenvalues --   -0.47548  -0.45605  -0.45319
 Alpha virt. eigenvalues --    0.21518   0.24852   0.32814   0.33130   0.78638
 Alpha virt. eigenvalues --    0.79781   0.89707   0.95611   1.01976   1.13455
 Alpha virt. eigenvalues --    1.19922   1.22504   1.23960   1.26299   2.52453

 Mulliken charges:
               1
     1  O   -0.700399
     2  H    0.345221
     3  H    0.354208
     4  O   -0.696608
     5  H    0.349505
     6  H    0.348073
 Sum of Mulliken charges =  -0.00000

 Dipole moment (field-independent basis, Debye):
    X=             -0.4597    Y=             -0.0513    Z=              0.0000  Tot=              0.4625
 Quadrupole moment (field-independent basis, Debye-Ang):
   XX=             -8.3520   YY=             -1.4085   ZZ=            -15.0060
   XY=             -0.3065   XZ=              0.0000   YZ=              0.0000

 P4DQ=-33.8632563\MP4SDQ=-33.8653967\CCSD=-33.8664727\CCSD(T)=-33.86926
 Normal termination of Gaussian 16 at Sun Dec 10 06:36:57 2023.
