 Gaussian 16, Revision A.03,
 Gaussian 16:  ES64L-G16RevA.03 25-Dec-2016

 ------------------
 #p CCSD(T)/CEP-31G
 ------------------

 ------------
 H2O_H2O_1271
 ------------
 Symbolic Z-matrix:
 Charge =  0 Multiplicity = 1

                         Standard orientation:
 ---------------------------------------------------------------------
 Center     Atomic      Atomic             Coordinates (Angstroms)
 Number     Number       Type             X           Y           Z
 ---------------------------------------------------------------------
      1          8           0        0.056167   -1.418659    0.000000
      2          1           0       -0.745280   -1.987155    0.000000
      3          1           0        0.853853   -1.992420    0.000000
      4          8           0        0.056167    1.510231    0.000000
      5          1           0       -0.345051    2.407187    0.000000
      6          1           0       -0.662192    0.839807    0.000000
 ---------------------------------------------------------------------

 SCF Done:  E(RHF) =  -33.6518768476     A.U. after   11 cycles
 E2 =    -0.2293367054D+00 EUMP2 =    -0.33881213552995D+02
 CCSD(T)
 CCSD(T)= -0.33898279234D+02

 The electronic state is 1-A'.
 Alpha  occ. eigenvalues --   -1.35947  -1.32434  -0.71600  -0.68150  -0.55625
 Alpha  occ. eigenvalues --   -0.52162  -0.50536  -0.47018
 Alpha virt. eigenvalues --    0.19223   0.24980   0.30096   0.34271   0.77362
 Alpha virt. eigenvalues --    0.78018   0.85810   0.86899   0.90817   1.12426
 Alpha virt. eigenvalues --    1.17057   1.20348   1.22144   1.29084   2.56214

 Mulliken charges:
               1
     1  O   -0.750163
     2  H    0.363145
     3  H    0.387979
     4  O   -0.734391
     5  H    0.344490
     6  H    0.388940
 Sum of Mulliken charges =  -0.00000

 Dipole moment (field-independent basis, Debye):
    X=             -2.4903    Y=             -2.3278    Z=              0.0000  Tot=              3.4089
 Quadrupole moment (field-independent basis, Debye-Ang):
   XX=            -10.0562   YY=             -1.4891   ZZ=            -14.9969
   XY=             -3.7971   XZ=              0.0000   YZ=              0.0000

 2\MP4DQ=-33.8924722\MP4SDQ=-33.8945881\CCSD=-33.8956168\CCSD(T)=-33.89
 Normal termination of Gaussian 16 at Sun Dec 10 06:48:31 2023.
