 Gaussian 16, Revision A.03,
 Gaussian 16:  ES64L-G16RevA.03 25-Dec-2016

 ------------------
 #p CCSD(T)/CEP-31G
 ------------------

 ------------
 H2O_H2O_3920
 ------------
 Symbolic Z-matrix:
 Charge =  0 Multiplicity = 1

                         Standard orientation:
 ---------------------------------------------------------------------
 Center     Atomic      Atomic             Coordinates (Angstroms)
 Number     Number       Type             X           Y           Z
 ---------------------------------------------------------------------
      1          8           0        0.055237   -2.831881    0.000000
      2          1           0       -0.745277   -3.401691    0.000000
      3          1           0        0.853863   -3.404333    0.000000
      4          8           0        0.055237    2.916361    0.000000
      5          1           0       -0.287969    3.837075    0.000000
      6          1           0       -0.704409    2.293108    0.000000
 ---------------------------------------------------------------------

 SCF Done:  E(RHF) =  -33.6517454941     A.U. after   11 cycles
 E2 =    -0.2283962541D+00 EUMP2 =    -0.33880141748217D+02
 CCSD(T)
 CCSD(T)= -0.33897143026D+02

 The electronic state is 1-A'.
 Alpha  occ. eigenvalues --   -1.35557  -1.34790  -0.71190  -0.70405  -0.55290
 Alpha  occ. eigenvalues --   -0.54512  -0.50128  -0.49361
 Alpha virt. eigenvalues --    0.20210   0.21003   0.30451   0.31230   0.80425
 Alpha virt. eigenvalues --    0.81179   0.83444   0.84230   0.86562   0.87412
 Alpha virt. eigenvalues --    1.17343   1.18105   1.21801   1.22580   2.57359

 Mulliken charges:
               1
     1  O   -0.740995
     2  H    0.368728
     3  H    0.372268
     4  O   -0.740565
     5  H    0.366507
     6  H    0.374058
 Sum of Mulliken charges =  -0.00000

 Dipole moment (field-independent basis, Debye):
    X=             -2.5465    Y=             -1.9832    Z=              0.0000  Tot=              3.2276
 Quadrupole moment (field-independent basis, Debye-Ang):
   XX=            -10.0190   YY=              8.8206   ZZ=            -14.9888
   XY=             -7.1280   XZ=              0.0000   YZ=              0.0000

 4\MP4DQ=-33.8914984\MP4SDQ=-33.8935264\CCSD=-33.8945813\CCSD(T)=-33.89
 Normal termination of Gaussian 16 at Sun Dec 10 06:50:37 2023.
