 Gaussian 16, Revision A.03,
 Gaussian 16:  ES64L-G16RevA.03 25-Dec-2016

 ------------------
 #p CCSD(T)/CEP-31G
 ------------------

 ------------
 H2O_H2O_2451
 ------------
 Symbolic Z-matrix:
 Charge =  0 Multiplicity = 1

                         Standard orientation:
 ---------------------------------------------------------------------
 Center     Atomic      Atomic             Coordinates (Angstroms)
 Number     Number       Type             X           Y           Z
 ---------------------------------------------------------------------
      1          8           0        0.003735   -2.106466    0.000000
      2          1           0       -0.795923   -2.677476    0.000000
      3          1           0        0.803219   -2.677720    0.000000
      4          8           0        0.003735    2.106709    0.000000
      5          1           0        0.764336    2.728797    0.000000
      6          1           0       -0.831399    2.624452    0.000000
 ---------------------------------------------------------------------

 SCF Done:  E(RHF) =  -33.6477971820     A.U. after   10 cycles
 E2 =    -0.2286315836D+00 EUMP2 =    -0.33876428765587D+02
 CCSD(T)
 CCSD(T)= -0.33893545202D+02

 The electronic state is 1-A'.
 Alpha  occ. eigenvalues --   -1.34275  -1.34268  -0.69897  -0.69888  -0.53917
 Alpha  occ. eigenvalues --   -0.53618  -0.48803  -0.48766
 Alpha virt. eigenvalues --    0.21064   0.21499   0.31452   0.31571   0.81342
 Alpha virt. eigenvalues --    0.81461   0.82063   0.87390   0.88769   0.89539
 Alpha virt. eigenvalues --    1.18463   1.18467   1.22878   1.23048   2.58357

 Mulliken charges:
               1
     1  O   -0.727309
     2  H    0.363358
     3  H    0.363952
     4  O   -0.727291
     5  H    0.363283
     6  H    0.364007
 Sum of Mulliken charges =  -0.00000

 Dipole moment (field-independent basis, Debye):
    X=             -0.1710    Y=             -0.0058    Z=              0.0000  Tot=              0.1711
 Quadrupole moment (field-independent basis, Debye-Ang):
   XX=             -8.0917   YY=             10.1581   ZZ=            -14.9844
   XY=             -0.2528   XZ=              0.0000   YZ=              0.0000

 \MP4DQ=-33.8878647\MP4SDQ=-33.8899065\CCSD=-33.8909665\CCSD(T)=-33.893
 Normal termination of Gaussian 16 at Sun Dec 10 07:11:30 2023.
