 Gaussian 16, Revision A.03,
 Gaussian 16:  ES64L-G16RevA.03 25-Dec-2016

 ------------------
 #p CCSD(T)/CEP-31G
 ------------------

 -----------
 H2O_H2O_568
 -----------
 Symbolic Z-matrix:
 Charge =  0 Multiplicity = 1

                         Standard orientation:
 ---------------------------------------------------------------------
 Center     Atomic      Atomic             Coordinates (Angstroms)
 Number     Number       Type             X           Y           Z
 ---------------------------------------------------------------------
      1          8           0        0.052912   -1.058046    0.000000
      2          1           0       -0.749026   -1.625850    0.000000
      3          1           0        0.850102   -1.632496    0.000000
      4          8           0        0.052912    1.128121    0.000000
      5          1           0       -0.164782    2.086304    0.000000
      6          1           0       -0.782883    0.611445    0.000000
 ---------------------------------------------------------------------

 SCF Done:  E(RHF) =  -33.6251587991     A.U. after   11 cycles
 E2 =    -0.2313580376D+00 EUMP2 =    -0.33856516836760D+02
 CCSD(T)
 CCSD(T)= -0.33873637408D+02

 The electronic state is 1-A'.
 Alpha  occ. eigenvalues --   -1.35655  -1.30934  -0.71421  -0.68297  -0.54333
 Alpha  occ. eigenvalues --   -0.50236  -0.48969  -0.45272
 Alpha virt. eigenvalues --    0.19649   0.27010   0.30553   0.34368   0.78135
 Alpha virt. eigenvalues --    0.84623   0.89606   0.95615   0.98002   1.14169
 Alpha virt. eigenvalues --    1.18874   1.22055   1.25465   1.31665   2.63338

 Mulliken charges:
               1
     1  O   -0.768575
     2  H    0.355989
     3  H    0.398871
     4  O   -0.683160
     5  H    0.327574
     6  H    0.369301
 Sum of Mulliken charges =  -0.00000

 Dipole moment (field-independent basis, Debye):
    X=             -2.1612    Y=             -1.7874    Z=              0.0000  Tot=              2.8045
 Quadrupole moment (field-independent basis, Debye-Ang):
   XX=             -9.8598   YY=             -3.9184   ZZ=            -14.9972
   XY=             -2.3293   XZ=              0.0000   YZ=              0.0000

 MP4DQ=-33.8675192\MP4SDQ=-33.8697762\CCSD=-33.8707537\CCSD(T)=-33.8736
 Normal termination of Gaussian 16 at Sun Dec 10 06:35:22 2023.
