 Gaussian 16, Revision A.03,
 Gaussian 16:  ES64L-G16RevA.03 25-Dec-2016

 ------------------
 #p CCSD(T)/CEP-31G
 ------------------

 ------------
 H2O_H2O_2175
 ------------
 Symbolic Z-matrix:
 Charge =  0 Multiplicity = 1

                         Standard orientation:
 ---------------------------------------------------------------------
 Center     Atomic      Atomic             Coordinates (Angstroms)
 Number     Number       Type             X           Y           Z
 ---------------------------------------------------------------------
      1          8           0        0.000000   -0.000000    1.960343
      2          1           0        0.000000    0.799571    2.531475
      3          1           0       -0.000000   -0.799571    2.531475
      4          8           0        0.000000   -0.000000   -1.960343
      5          1           0       -0.000000   -0.799571   -2.531475
      6          1           0        0.000000    0.799571   -2.531475
 ---------------------------------------------------------------------

 SCF Done:  E(RHF) =  -33.6468419417     A.U. after   10 cycles
 E2 =    -0.2287132388D+00 EUMP2 =    -0.33875555180446D+02
 CCSD(T)
 CCSD(T)= -0.33892702214D+02

 The electronic state is 1-AG.
 Alpha  occ. eigenvalues --   -1.34091  -1.34077  -0.69713  -0.69695  -0.53784
 Alpha  occ. eigenvalues --   -0.53252  -0.48621  -0.48547
 Alpha virt. eigenvalues --    0.21084   0.21754   0.31550   0.31751   0.79416
 Alpha virt. eigenvalues --    0.81356   0.82564   0.86935   0.89770   0.92789
 Alpha virt. eigenvalues --    1.18611   1.18621   1.22979   1.23281   2.58270

 Mulliken charges:
               1
     1  O   -0.724148
     2  H    0.362074
     3  H    0.362074
     4  O   -0.724148
     5  H    0.362074
     6  H    0.362074
 Sum of Mulliken charges =   0.00000

 Dipole moment (field-independent basis, Debye):
    X=             -0.0000    Y=              0.0000    Z=              0.0000  Tot=              0.0000
 Quadrupole moment (field-independent basis, Debye-Ang):
   XX=            -14.9839   YY=             -8.0980   ZZ=              8.5731
   XY=              0.0000   XZ=              0.0000   YZ=             -0.0000

 -33.8870071\MP4SDQ=-33.8890562\CCSD=-33.890116\CCSD(T)=-33.8927022\RMS
 Normal termination of Gaussian 16 at Sun Dec 10 07:06:33 2023.
