 Gaussian 16, Revision A.03,
 Gaussian 16:  ES64L-G16RevA.03 25-Dec-2016

 ------------------
 #p CCSD(T)/CEP-31G
 ------------------

 ------------
 H2O_H2O_3727
 ------------
 Symbolic Z-matrix:
 Charge =  0 Multiplicity = 1

                         Standard orientation:
 ---------------------------------------------------------------------
 Center     Atomic      Atomic             Coordinates (Angstroms)
 Number     Number       Type             X           Y           Z
 ---------------------------------------------------------------------
      1          8           0        0.007455   -2.784161    0.000000
      2          1           0       -0.792248   -3.355108    0.000000
      3          1           0        0.806894   -3.355477    0.000000
      4          8           0        0.007455    2.785134    0.000000
      5          1           0        0.725792    3.455580    0.000000
      6          1           0       -0.859718    3.247215    0.000000
 ---------------------------------------------------------------------

 SCF Done:  E(RHF) =  -33.6500533787     A.U. after   11 cycles
 E2 =    -0.2284739677D+00 EUMP2 =    -0.33878527346421D+02
 CCSD(T)
 CCSD(T)= -0.33895577584D+02

 The electronic state is 1-A'.
 Alpha  occ. eigenvalues --   -1.34825  -1.34816  -0.70451  -0.70441  -0.54464
 Alpha  occ. eigenvalues --   -0.54451  -0.49371  -0.49361
 Alpha virt. eigenvalues --    0.20845   0.20866   0.31080   0.31089   0.81181
 Alpha virt. eigenvalues --    0.81194   0.84265   0.84510   0.87413   0.87437
 Alpha virt. eigenvalues --    1.18003   1.18012   1.22475   1.22485   2.58058

 Mulliken charges:
               1
     1  O   -0.734991
     2  H    0.367218
     3  H    0.367773
     4  O   -0.734970
     5  H    0.367112
     6  H    0.367858
 Sum of Mulliken charges =  -0.00000

 Dipole moment (field-independent basis, Debye):
    X=             -0.3436    Y=             -0.0229    Z=              0.0000  Tot=              0.3443
 Quadrupole moment (field-independent basis, Debye-Ang):
   XX=             -8.0830   YY=             17.4093   ZZ=            -14.9862
   XY=             -0.7313   XZ=              0.0000   YZ=              0.0000

 P4DQ=-33.8899198\MP4SDQ=-33.8919521\CCSD=-33.8930106\CCSD(T)=-33.89557
 Normal termination of Gaussian 16 at Sun Dec 10 06:47:02 2023.
