 Gaussian 16, Revision A.03,
 Gaussian 16:  ES64L-G16RevA.03 25-Dec-2016

 ------------------
 #p CCSD(T)/CEP-31G
 ------------------

 ------------
 H2O_H2O_1982
 ------------
 Symbolic Z-matrix:
 Charge =  0 Multiplicity = 1

                         Standard orientation:
 ---------------------------------------------------------------------
 Center     Atomic      Atomic             Coordinates (Angstroms)
 Number     Number       Type             X           Y           Z
 ---------------------------------------------------------------------
      1          8           0        0.025267   -1.847610    0.000000
      2          1           0       -0.774973   -2.417803    0.000000
      3          1           0        0.824168   -2.419679    0.000000
      4          8           0        0.025267    1.859330    0.000000
      5          1           0        0.490791    2.724659    0.000000
      6          1           0       -0.944265    2.019060    0.000000
 ---------------------------------------------------------------------

 SCF Done:  E(RHF) =  -33.6467375762     A.U. after   11 cycles
 E2 =    -0.2287876178D+00 EUMP2 =    -0.33875525194016D+02
 CCSD(T)
 CCSD(T)= -0.33892683034D+02

 The electronic state is 1-A'.
 Alpha  occ. eigenvalues --   -1.34157  -1.33890  -0.69779  -0.69496  -0.53837
 Alpha  occ. eigenvalues --   -0.53067  -0.48668  -0.48381
 Alpha virt. eigenvalues --    0.20920   0.22020   0.31575   0.31829   0.77600
 Alpha virt. eigenvalues --    0.81054   0.82986   0.86030   0.89803   0.97363
 Alpha virt. eigenvalues --    1.18539   1.18842   1.23059   1.23362   2.58170

 Mulliken charges:
               1
     1  O   -0.724010
     2  H    0.359224
     3  H    0.364871
     4  O   -0.722610
     5  H    0.357783
     6  H    0.364742
 Sum of Mulliken charges =  -0.00000

 Dipole moment (field-independent basis, Debye):
    X=             -1.1497    Y=             -0.2865    Z=              0.0000  Tot=              1.1849
 Quadrupole moment (field-independent basis, Debye-Ang):
   XX=             -8.5061   YY=              6.7475   ZZ=            -14.9843
   XY=             -1.5230   XZ=              0.0000   YZ=              0.0000

 \MP4DQ=-33.8869767\MP4SDQ=-33.8890333\CCSD=-33.8900906\CCSD(T)=-33.892
 Normal termination of Gaussian 16 at Sun Dec 10 07:03:01 2023.
