 Gaussian 16, Revision A.03,
 Gaussian 16:  ES64L-G16RevA.03 25-Dec-2016

 ------------------
 #p CCSD(T)/CEP-31G
 ------------------

 ------------
 H2O_H2O_3747
 ------------
 Symbolic Z-matrix:
 Charge =  0 Multiplicity = 1

                         Standard orientation:
 ---------------------------------------------------------------------
 Center     Atomic      Atomic             Coordinates (Angstroms)
 Number     Number       Type             X           Y           Z
 ---------------------------------------------------------------------
      1          8           0        0.056712   -2.730860    0.000000
      2          1           0       -0.743859   -3.300589    0.000000
      3          1           0        0.855280   -3.303393    0.000000
      4          8           0        0.056712    2.829978    0.000000
      5          1           0       -0.403648    3.698065    0.000000
      6          1           0       -0.615157    2.112972    0.000000
 ---------------------------------------------------------------------

 SCF Done:  E(RHF) =  -33.6520382070     A.U. after   11 cycles
 E2 =    -0.2283837897D+00 EUMP2 =    -0.33880421996643D+02
 CCSD(T)
 CCSD(T)= -0.33897414728D+02

 The electronic state is 1-A'.
 Alpha  occ. eigenvalues --   -1.35678  -1.34716  -0.71313  -0.70329  -0.55429
 Alpha  occ. eigenvalues --   -0.54449  -0.50254  -0.49291
 Alpha virt. eigenvalues --    0.20100   0.21106   0.30347   0.31334   0.80300
 Alpha virt. eigenvalues --    0.81243   0.83280   0.84286   0.86419   0.87473
 Alpha virt. eigenvalues --    1.17234   1.18191   1.21689   1.22675   2.57239

 Mulliken charges:
               1
     1  O   -0.742033
     2  H    0.369071
     3  H    0.372965
     4  O   -0.741668
     5  H    0.366242
     6  H    0.375423
 Sum of Mulliken charges =   0.00000

 Dipole moment (field-independent basis, Debye):
    X=             -2.6131    Y=             -2.3305    Z=              0.0000  Tot=              3.5014
 Quadrupole moment (field-independent basis, Debye-Ang):
   XX=            -10.1262   YY=              6.3418   ZZ=            -14.9894
   XY=             -7.3432   XZ=              0.0000   YZ=              0.0000

 4DQ=-33.8917723\MP4SDQ=-33.8937995\CCSD=-33.8948537\CCSD(T)=-33.897414
 Normal termination of Gaussian 16 at Sun Dec 10 06:47:24 2023.
