 Gaussian 16, Revision A.03,
 Gaussian 16:  ES64L-G16RevA.03 25-Dec-2016

 ------------------
 #p CCSD(T)/CEP-31G
 ------------------

 ------------
 H2O_H2O_2647
 ------------
 Symbolic Z-matrix:
 Charge =  0 Multiplicity = 1

                         Standard orientation:
 ---------------------------------------------------------------------
 Center     Atomic      Atomic             Coordinates (Angstroms)
 Number     Number       Type             X           Y           Z
 ---------------------------------------------------------------------
      1          8           0        0.056735   -2.145867    0.000000
      2          1           0       -0.744102   -2.715223    0.000000
      3          1           0        0.855036   -2.718773    0.000000
      4          8           0        0.056735    2.244932    0.000000
      5          1           0       -0.403220    3.113235    0.000000
      6          1           0       -0.615469    1.528240    0.000000
 ---------------------------------------------------------------------

 SCF Done:  E(RHF) =  -33.6524653005     A.U. after   11 cycles
 E2 =    -0.2284480499D+00 EUMP2 =    -0.33880913350427D+02
 CCSD(T)
 CCSD(T)= -0.33897895669D+02

 The electronic state is 1-A'.
 Alpha  occ. eigenvalues --   -1.35768  -1.34157  -0.71405  -0.69743  -0.55544
 Alpha  occ. eigenvalues --   -0.53892  -0.50348  -0.48738
 Alpha virt. eigenvalues --    0.19764   0.21918   0.30243   0.31962   0.80193
 Alpha virt. eigenvalues --    0.81795   0.82079   0.85347   0.86226   0.89071
 Alpha virt. eigenvalues --    1.17159   1.18917   1.21561   1.23787   2.57097

 Mulliken charges:
               1
     1  O   -0.743348
     2  H    0.368038
     3  H    0.375569
     4  O   -0.742332
     5  H    0.362097
     6  H    0.379977
 Sum of Mulliken charges =  -0.00000

 Dipole moment (field-independent basis, Debye):
    X=             -2.6008    Y=             -2.3713    Z=              0.0000  Tot=              3.5195
 Quadrupole moment (field-independent basis, Debye-Ang):
   XX=            -10.1194   YY=              2.7615   ZZ=            -14.9908
   XY=             -5.8354   XZ=              0.0000   YZ=              0.0000

 P4DQ=-33.8922484\MP4SDQ=-33.8942812\CCSD=-33.8953293\CCSD(T)=-33.89789
 Normal termination of Gaussian 16 at Sun Dec 10 06:27:28 2023.
