 Gaussian 16, Revision A.03,
 Gaussian 16:  ES64L-G16RevA.03 25-Dec-2016

 ------------------
 #p CCSD(T)/CEP-31G
 ------------------

 -----------
 H2O_H2O_740
 -----------
 Symbolic Z-matrix:
 Charge =  0 Multiplicity = 1

                         Standard orientation:
 ---------------------------------------------------------------------
 Center     Atomic      Atomic             Coordinates (Angstroms)
 Number     Number       Type             X           Y           Z
 ---------------------------------------------------------------------
      1          8           0        0.047575   -1.161783    0.000000
      2          1           0       -0.753958   -1.730158    0.000000
      3          1           0        0.845174   -1.735665    0.000000
      4          8           0        0.047575    1.212221    0.000000
      5          1           0        0.020297    2.194445    0.000000
      6          1           0       -0.872713    0.867873    0.000000
 ---------------------------------------------------------------------

 SCF Done:  E(RHF) =  -33.6350491216     A.U. after   11 cycles
 E2 =    -0.2305459539D+00 EUMP2 =    -0.33865595075544D+02
 CCSD(T)
 CCSD(T)= -0.33882922920D+02

 The electronic state is 1-A'.
 Alpha  occ. eigenvalues --   -1.34434  -1.31712  -0.70077  -0.67777  -0.54925
 Alpha  occ. eigenvalues --   -0.49262  -0.49081  -0.46007
 Alpha virt. eigenvalues --    0.20125   0.25688   0.31361   0.33376   0.78385
 Alpha virt. eigenvalues --    0.83896   0.88979   0.92266   0.95849   1.15311
 Alpha virt. eigenvalues --    1.18941   1.22013   1.23605   1.30820   2.58906

 Mulliken charges:
               1
     1  O   -0.743055
     2  H    0.350963
     3  H    0.382172
     4  O   -0.690998
     5  H    0.338169
     6  H    0.362748
 Sum of Mulliken charges =  -0.00000

 Dipole moment (field-independent basis, Debye):
    X=             -2.0041    Y=             -1.2556    Z=              0.0000  Tot=              2.3650
 Quadrupole moment (field-independent basis, Debye-Ang):
   XX=             -9.5562   YY=             -2.0928   ZZ=            -14.9950
   XY=             -2.0472   XZ=              0.0000   YZ=              0.0000

 \MP4DQ=-33.8769306\MP4SDQ=-33.8791146\CCSD=-33.8801605\CCSD(T)=-33.882
 Normal termination of Gaussian 16 at Sun Dec 10 06:38:34 2023.
