 Gaussian 16, Revision A.03,
 Gaussian 16:  ES64L-G16RevA.03 25-Dec-2016

 ------------------
 #p CCSD(T)/CEP-31G
 ------------------

 ------------
 H2O_H2O_2638
 ------------
 Symbolic Z-matrix:
 Charge =  0 Multiplicity = 1

                         Standard orientation:
 ---------------------------------------------------------------------
 Center     Atomic      Atomic             Coordinates (Angstroms)
 Number     Number       Type             X           Y           Z
 ---------------------------------------------------------------------
      1          8           0        0.042973   -2.178614    0.000000
      2          1           0       -0.757558   -2.748401    0.000000
      3          1           0        0.841582   -2.751090    0.000000
      4          8           0        0.042973    2.217381    0.000000
      5          1           0        0.142411    3.194938    0.000000
      6          1           0       -0.913998    1.994414    0.000000
 ---------------------------------------------------------------------

 SCF Done:  E(RHF) =  -33.6498554375     A.U. after   11 cycles
 E2 =    -0.2285478610D+00 EUMP2 =    -0.33878403298513D+02
 CCSD(T)
 CCSD(T)= -0.33895460638D+02

 The electronic state is 1-A'.
 Alpha  occ. eigenvalues --   -1.34919  -1.34300  -0.70547  -0.69901  -0.54548
 Alpha  occ. eigenvalues --   -0.53913  -0.49462  -0.48846
 Alpha virt. eigenvalues --    0.20620   0.21486   0.30971   0.31582   0.81037
 Alpha virt. eigenvalues --    0.81746   0.82056   0.85766   0.87356   0.89716
 Alpha virt. eigenvalues --    1.17901   1.18530   1.22361   1.23014   2.57962

 Mulliken charges:
               1
     1  O   -0.734473
     2  H    0.364242
     3  H    0.370270
     4  O   -0.732830
     5  H    0.361807
     6  H    0.370984
 Sum of Mulliken charges =  -0.00000

 Dipole moment (field-independent basis, Debye):
    X=             -1.9692    Y=             -0.9249    Z=              0.0000  Tot=              2.1756
 Quadrupole moment (field-independent basis, Debye-Ang):
   XX=             -9.2440   YY=              8.2570   ZZ=            -14.9868
   XY=             -3.5995   XZ=              0.0000   YZ=              0.0000

 MP4DQ=-33.8897981\MP4SDQ=-33.8918336\CCSD=-33.8928893\CCSD(T)=-33.8954
 Normal termination of Gaussian 16 at Sun Dec 10 06:27:18 2023.
