 Gaussian 16, Revision A.03,
 Gaussian 16:  ES64L-G16RevA.03 25-Dec-2016

 ------------------
 #p CCSD(T)/CEP-31G
 ------------------

 ------------
 H2O_H2O_1096
 ------------
 Symbolic Z-matrix:
 Charge =  0 Multiplicity = 1

                         Standard orientation:
 ---------------------------------------------------------------------
 Center     Atomic      Atomic             Coordinates (Angstroms)
 Number     Number       Type             X           Y           Z
 ---------------------------------------------------------------------
      1          8           0        0.056177   -1.325600    0.000000
      2          1           0       -0.745397   -1.893917    0.000000
      3          1           0        0.853735   -1.899540    0.000000
      4          8           0        0.056177    1.417148    0.000000
      5          1           0       -0.344840    2.314193    0.000000
      6          1           0       -0.662331    0.746885    0.000000
 ---------------------------------------------------------------------

 SCF Done:  E(RHF) =  -33.6504917216     A.U. after   11 cycles
 E2 =    -0.2296396621D+00 EUMP2 =    -0.33880131383617D+02
 CCSD(T)
 CCSD(T)= -0.33897189603D+02

 The electronic state is 1-A'.
 Alpha  occ. eigenvalues --   -1.36038  -1.32042  -0.71698  -0.67992  -0.55512
 Alpha  occ. eigenvalues --   -0.51776  -0.50630  -0.46613
 Alpha virt. eigenvalues --    0.19211   0.25584   0.30048   0.34736   0.77526
 Alpha virt. eigenvalues --    0.79220   0.86877   0.87483   0.93085   1.14044
 Alpha virt. eigenvalues --    1.18234   1.20015   1.22463   1.29747   2.59513

 Mulliken charges:
               1
     1  O   -0.755224
     2  H    0.362749
     3  H    0.392718
     4  O   -0.729268
     5  H    0.340158
     6  H    0.388866
 Sum of Mulliken charges =   0.00000

 Dipole moment (field-independent basis, Debye):
    X=             -2.4588    Y=             -2.3504    Z=              0.0000  Tot=              3.4015
 Quadrupole moment (field-independent basis, Debye-Ang):
   XX=            -10.0537   YY=             -2.2137   ZZ=            -14.9993
   XY=             -3.5585   XZ=              0.0000   YZ=              0.0000

 2\MP4DQ=-33.8913279\MP4SDQ=-33.8934679\CCSD=-33.8944882\CCSD(T)=-33.89
 Normal termination of Gaussian 16 at Sun Dec 10 06:45:15 2023.
