 Gaussian 16, Revision A.03,
 Gaussian 16:  ES64L-G16RevA.03 25-Dec-2016

 ------------------
 #p CCSD(T)/CEP-31G
 ------------------

 ------------
 H2O_H2O_1842
 ------------
 Symbolic Z-matrix:
 Charge =  0 Multiplicity = 1

                         Standard orientation:
 ---------------------------------------------------------------------
 Center     Atomic      Atomic             Coordinates (Angstroms)
 Number     Number       Type             X           Y           Z
 ---------------------------------------------------------------------
      1          8           0        0.051302   -1.739739    0.000000
      2          1           0       -0.749688   -2.308879    0.000000
      3          1           0        0.849449   -2.312859    0.000000
      4          8           0        0.051302    1.803189    0.000000
      5          1           0       -0.104874    2.773300    0.000000
      6          1           0       -0.815725    1.340837    0.000000
 ---------------------------------------------------------------------

 SCF Done:  E(RHF) =  -33.6501543464     A.U. after   11 cycles
 E2 =    -0.2287993215D+00 EUMP2 =    -0.33878953667909D+02
 CCSD(T)
 CCSD(T)= -0.33896029950D+02

 The electronic state is 1-A'.
 Alpha  occ. eigenvalues --   -1.35164  -1.33543  -0.70800  -0.69101  -0.54827
 Alpha  occ. eigenvalues --   -0.53134  -0.49714  -0.48099
 Alpha virt. eigenvalues --    0.19862   0.22837   0.30675   0.32408   0.76214
 Alpha virt. eigenvalues --    0.80090   0.83197   0.85840   0.87589   1.01332
 Alpha virt. eigenvalues --    1.17633   1.20024   1.22068   1.24669   2.56640

 Mulliken charges:
               1
     1  O   -0.735625
     2  H    0.361773
     3  H    0.374521
     4  O   -0.730930
     5  H    0.354356
     6  H    0.375905
 Sum of Mulliken charges =   0.00000

 Dipole moment (field-independent basis, Debye):
    X=             -2.3242    Y=             -1.5592    Z=              0.0000  Tot=              2.7988
 Quadrupole moment (field-independent basis, Debye-Ang):
   XX=             -9.7430   YY=              2.7546   ZZ=            -14.9890
   XY=             -3.7231   XZ=              0.0000   YZ=              0.0000

 \MP4DQ=-33.8903298\MP4SDQ=-33.8923923\CCSD=-33.8934364\CCSD(T)=-33.896
 Normal termination of Gaussian 16 at Sun Dec 10 06:59:06 2023.
