 Gaussian 16, Revision A.03,
 Gaussian 16:  ES64L-G16RevA.03 25-Dec-2016

 ------------------
 #p CCSD(T)/CEP-31G
 ------------------

 ------------
 H2O_H2O_4883
 ------------
 Symbolic Z-matrix:
 Charge =  0 Multiplicity = 1

                         Standard orientation:
 ---------------------------------------------------------------------
 Center     Atomic      Atomic             Coordinates (Angstroms)
 Number     Number       Type             X           Y           Z
 ---------------------------------------------------------------------
      1          8           0        0.028562   -3.388012    0.000000
      2          1           0       -0.771422   -3.958565    0.000000
      3          1           0        0.827719   -3.959723    0.000000
      4          8           0        0.028562    3.403274    0.000000
      5          1           0        0.436094    4.297381    0.000000
      6          1           0       -0.949384    3.498811    0.000000
 ---------------------------------------------------------------------

 SCF Done:  E(RHF) =  -33.6510043238     A.U. after   11 cycles
 E2 =    -0.2284205280D+00 EUMP2 =    -0.33879424851824D+02
 CCSD(T)
 CCSD(T)= -0.33896447838D+02

 The electronic state is 1-A'.
 Alpha  occ. eigenvalues --   -1.35165  -1.35066  -0.70794  -0.70693  -0.54856
 Alpha  occ. eigenvalues --   -0.54757  -0.49725  -0.49626
 Alpha virt. eigenvalues --    0.20563   0.20663   0.30797   0.30894   0.80829
 Alpha virt. eigenvalues --    0.80927   0.83929   0.84025   0.87013   0.87126
 Alpha virt. eigenvalues --    1.17703   1.17801   1.22167   1.22266   2.57739

 Mulliken charges:
               1
     1  O   -0.738318
     2  H    0.368551
     3  H    0.369768
     4  O   -0.738205
     5  H    0.368182
     6  H    0.370023
 Sum of Mulliken charges =  -0.00000

 Dipole moment (field-independent basis, Debye):
    X=             -1.3192    Y=             -0.3563    Z=              0.0000  Tot=              1.3665
 Quadrupole moment (field-independent basis, Debye-Ang):
   XX=             -8.5648   YY=             22.0990   ZZ=            -14.9873
   XY=             -3.7270   XZ=              0.0000   YZ=              0.0000

 \MP4DQ=-33.8907976\MP4SDQ=-33.8928274\CCSD=-33.8938843\CCSD(T)=-33.896
 Normal termination of Gaussian 16 at Sun Dec 10 07:09:40 2023.
