 Gaussian 16, Revision A.03,
 Gaussian 16:  ES64L-G16RevA.03 25-Dec-2016

 ------------------
 #p CCSD(T)/CEP-31G
 ------------------

 -----------
 H2O_H2O_731
 -----------
 Symbolic Z-matrix:
 Charge =  0 Multiplicity = 1

                         Standard orientation:
 ---------------------------------------------------------------------
 Center     Atomic      Atomic             Coordinates (Angstroms)
 Number     Number       Type             X           Y           Z
 ---------------------------------------------------------------------
      1          8           0        0.021863   -1.184495    0.000000
      2          1           0       -0.778611   -1.754360    0.000000
      3          1           0        0.820529   -1.756891    0.000000
      4          8           0        0.021863    1.193120    0.000000
      5          1           0        0.543327    2.025936    0.000000
      6          1           0       -0.935055    1.416309    0.000000
 ---------------------------------------------------------------------

 SCF Done:  E(RHF) =  -33.6270712994     A.U. after   11 cycles
 E2 =    -0.2303778287D+00 EUMP2 =    -0.33857449128112D+02
 CCSD(T)
 CCSD(T)= -0.33874858154D+02

 The electronic state is 1-A'.
 Alpha  occ. eigenvalues --   -1.32901  -1.31790  -0.68399  -0.67520  -0.55386
 Alpha  occ. eigenvalues --   -0.47671  -0.46899  -0.45739
 Alpha virt. eigenvalues --    0.21294   0.24682   0.32609   0.32979   0.79461
 Alpha virt. eigenvalues --    0.79683   0.89322   0.92321   1.02260   1.12424
 Alpha virt. eigenvalues --    1.19698   1.22721   1.24302   1.26448   2.53826

 Mulliken charges:
               1
     1  O   -0.707445
     2  H    0.344392
     3  H    0.360035
     4  O   -0.694932
     5  H    0.348703
     6  H    0.349246
 Sum of Mulliken charges =   0.00000

 Dipole moment (field-independent basis, Debye):
    X=             -0.9166    Y=             -0.2061    Z=              0.0000  Tot=              0.9395
 Quadrupole moment (field-independent basis, Debye-Ang):
   XX=             -8.5451   YY=             -0.9310   ZZ=            -14.9996
   XY=             -0.6816   XZ=              0.0000   YZ=              0.0000

 MP4DQ=-33.8688863\MP4SDQ=-33.8710214\CCSD=-33.8721049\CCSD(T)=-33.8748
 Normal termination of Gaussian 16 at Sun Dec 10 06:38:24 2023.
