 Gaussian 16, Revision A.03,
 Gaussian 16:  ES64L-G16RevA.03 25-Dec-2016

 ------------------
 #p CCSD(T)/CEP-31G
 ------------------

 -----------
 H2O_H2O_250
 -----------
 Symbolic Z-matrix:
 Charge =  0 Multiplicity = 1

                         Standard orientation:
 ---------------------------------------------------------------------
 Center     Atomic      Atomic             Coordinates (Angstroms)
 Number     Number       Type             X           Y           Z
 ---------------------------------------------------------------------
      1          8           0        0.000000   -0.000000    0.936558
      2          1           0        0.000000    0.799571    1.507690
      3          1           0       -0.000000   -0.799571    1.507690
      4          8           0        0.000000   -0.000000   -0.936558
      5          1           0       -0.000000   -0.799571   -1.507690
      6          1           0        0.000000    0.799571   -1.507690
 ---------------------------------------------------------------------

 SCF Done:  E(RHF) =  -33.5634113962     A.U. after   10 cycles
 E2 =    -0.2340932553D+00 EUMP2 =    -0.33797504651460D+02
 CCSD(T)
 CCSD(T)= -0.33814419440D+02

 The electronic state is 1-AG.
 Alpha  occ. eigenvalues --   -1.33964  -1.29781  -0.68677  -0.65864  -0.61305
 Alpha  occ. eigenvalues --   -0.48944  -0.43289  -0.37810
 Alpha virt. eigenvalues --    0.21512   0.26884   0.32596   0.33609   0.78550
 Alpha virt. eigenvalues --    0.81583   0.90081   0.91452   1.07020   1.20441
 Alpha virt. eigenvalues --    1.21262   1.24050   1.28083   1.29292   2.48121

 Mulliken charges:
               1
     1  O   -0.696979
     2  H    0.348489
     3  H    0.348489
     4  O   -0.696979
     5  H    0.348489
     6  H    0.348489
 Sum of Mulliken charges =   0.00000

 Dipole moment (field-independent basis, Debye):
    X=             -0.0000    Y=              0.0000    Z=              0.0000  Tot=              0.0000
 Quadrupole moment (field-independent basis, Debye-Ang):
   XX=            -15.0370   YY=             -8.3924   ZZ=             -5.1286
   XY=              0.0000   XZ=             -0.0000   YZ=             -0.0000

 33.8079974\MP4SDQ=-33.8104096\CCSD=-33.8112912\CCSD(T)=-33.8144194\RMS
 Normal termination of Gaussian 16 at Sun Dec 10 06:29:26 2023.
