 Gaussian 16, Revision A.03,
 Gaussian 16:  ES64L-G16RevA.03 25-Dec-2016

 ------------------
 #p CCSD(T)/CEP-31G
 ------------------

 ------------
 H2O_H2O_2794
 ------------
 Symbolic Z-matrix:
 Charge =  0 Multiplicity = 1

                         Standard orientation:
 ---------------------------------------------------------------------
 Center     Atomic      Atomic             Coordinates (Angstroms)
 Number     Number       Type             X           Y           Z
 ---------------------------------------------------------------------
      1          8           0        0.054161   -2.237469    0.000000
      2          1           0       -0.746576   -2.806965    0.000000
      3          1           0        0.852563   -2.810235    0.000000
      4          8           0        0.054161    2.314757    0.000000
      5          1           0       -0.227723    3.256059    0.000000
      6          1           0       -0.744846    1.742836    0.000000
 ---------------------------------------------------------------------

 SCF Done:  E(RHF) =  -33.6515160399     A.U. after   11 cycles
 E2 =    -0.2284640012D+00 EUMP2 =    -0.33879980041198D+02
 CCSD(T)
 CCSD(T)= -0.33896988861D+02

 The electronic state is 1-A'.
 Alpha  occ. eigenvalues --   -1.35466  -1.34309  -0.71099  -0.69902  -0.55187
 Alpha  occ. eigenvalues --   -0.54010  -0.50032  -0.48878
 Alpha virt. eigenvalues --    0.20148   0.21597   0.30508   0.31704   0.80513
 Alpha virt. eigenvalues --    0.81661   0.82557   0.85204   0.86638   0.88710
 Alpha virt. eigenvalues --    1.17424   1.18624   1.21852   1.23186   2.57453

 Mulliken charges:
               1
     1  O   -0.740214
     2  H    0.366787
     3  H    0.373505
     4  O   -0.738779
     5  H    0.362637
     6  H    0.376062
 Sum of Mulliken charges =   0.00000

 Dipole moment (field-independent basis, Debye):
    X=             -2.4854    Y=             -1.8405    Z=              0.0000  Tot=              3.0926
 Quadrupole moment (field-independent basis, Debye-Ang):
   XX=             -9.9370   YY=              5.4557   ZZ=            -14.9891
   XY=             -5.3912   XZ=              0.0000   YZ=              0.0000

 DQ=-33.8913393\MP4SDQ=-33.8933705\CCSD=-33.8944228\CCSD(T)=-33.8969889
 Normal termination of Gaussian 16 at Sun Dec 10 06:30:13 2023.
