 Gaussian 16, Revision A.03,
 Gaussian 16:  ES64L-G16RevA.03 25-Dec-2016

 ------------------
 #p CCSD(T)/CEP-31G
 ------------------

 ------------
 H2O_H2O_4385
 ------------
 Symbolic Z-matrix:
 Charge =  0 Multiplicity = 1

                         Standard orientation:
 ---------------------------------------------------------------------
 Center     Atomic      Atomic             Coordinates (Angstroms)
 Number     Number       Type             X           Y           Z
 ---------------------------------------------------------------------
      1          8           0        0.034780   -3.117599    0.000000
      2          1           0       -0.765337   -3.687967    0.000000
      3          1           0        0.833804   -3.689496    0.000000
      4          8           0        0.034780    3.141137    0.000000
      5          1           0        0.322338    4.080721    0.000000
      6          1           0       -0.947278    3.108439    0.000000
 ---------------------------------------------------------------------

 SCF Done:  E(RHF) =  -33.6508935962     A.U. after   11 cycles
 E2 =    -0.2284305368D+00 EUMP2 =    -0.33879324133005D+02
 CCSD(T)
 CCSD(T)= -0.33896350240D+02

 The electronic state is 1-A'.
 Alpha  occ. eigenvalues --   -1.35144  -1.34964  -0.70773  -0.70588  -0.54829
 Alpha  occ. eigenvalues --   -0.54649  -0.49702  -0.49522
 Alpha virt. eigenvalues --    0.20577   0.20761   0.30811   0.30988   0.80851
 Alpha virt. eigenvalues --    0.81029   0.83962   0.84139   0.87040   0.87250
 Alpha virt. eigenvalues --    1.17719   1.17898   1.22184   1.22364   2.57758

 Mulliken charges:
               1
     1  O   -0.737942
     2  H    0.368043
     3  H    0.369899
     4  O   -0.737709
     5  H    0.367426
     6  H    0.370283
 Sum of Mulliken charges =   0.00000

 Dipole moment (field-independent basis, Debye):
    X=             -1.6052    Y=             -0.5507    Z=              0.0000  Tot=              1.6970
 Quadrupole moment (field-independent basis, Debye-Ang):
   XX=             -8.8229   YY=             18.4624   ZZ=            -14.9872
   XY=             -4.2085   XZ=              0.0000   YZ=              0.0000

 \MP4DQ=-33.8906991\MP4SDQ=-33.8927292\CCSD=-33.8937862\CCSD(T)=-33.896
 Normal termination of Gaussian 16 at Sun Dec 10 06:58:56 2023.
