 Gaussian 16, Revision A.03,
 Gaussian 16:  ES64L-G16RevA.03 25-Dec-2016

 ------------------
 #p CCSD(T)/CEP-31G
 ------------------

 ------------
 H2O_H2O_3715
 ------------
 Symbolic Z-matrix:
 Charge =  0 Multiplicity = 1

                         Standard orientation:
 ---------------------------------------------------------------------
 Center     Atomic      Atomic             Coordinates (Angstroms)
 Number     Number       Type             X           Y           Z
 ---------------------------------------------------------------------
      1          8           0        0.047525   -2.743899    0.000000
      2          1           0       -0.752888   -3.313850    0.000000
      3          1           0        0.846252   -3.316211    0.000000
      4          8           0        0.047525    2.794524    0.000000
      5          1           0        0.018314    3.776691    0.000000
      6          1           0       -0.872084    2.448366    0.000000
 ---------------------------------------------------------------------

 SCF Done:  E(RHF) =  -33.6510466211     A.U. after   11 cycles
 E2 =    -0.2284356983D+00 EUMP2 =    -0.33879482319383D+02
 CCSD(T)
 CCSD(T)= -0.33896504001D+02

 The electronic state is 1-A'.
 Alpha  occ. eigenvalues --   -1.35260  -1.34761  -0.70890  -0.70377  -0.54954
 Alpha  occ. eigenvalues --   -0.54451  -0.49821  -0.49322
 Alpha virt. eigenvalues --    0.20468   0.20982   0.30706   0.31200   0.80733
 Alpha virt. eigenvalues --    0.81223   0.83806   0.84341   0.86911   0.87496
 Alpha virt. eigenvalues --    1.17610   1.18105   1.22074   1.22575   2.57644

 Mulliken charges:
               1
     1  O   -0.738529
     2  H    0.367513
     3  H    0.371017
     4  O   -0.737912
     5  H    0.365927
     6  H    0.371985
 Sum of Mulliken charges =   0.00000

 Dipole moment (field-independent basis, Debye):
    X=             -2.1899    Y=             -1.1899    Z=              0.0000  Tot=              2.4923
 Quadrupole moment (field-independent basis, Debye-Ang):
   XX=             -9.5042   YY=             12.0853   ZZ=            -14.9877
   XY=             -5.3864   XZ=              0.0000   YZ=              0.0000

 2\MP4DQ=-33.8908539\MP4SDQ=-33.8928838\CCSD=-33.8939399\CCSD(T)=-33.89
 Normal termination of Gaussian 16 at Sun Dec 10 06:46:49 2023.
