 Gaussian 16, Revision A.03,
 Gaussian 16:  ES64L-G16RevA.03 25-Dec-2016

 ------------------
 #p CCSD(T)/CEP-31G
 ------------------

 -----------
 H2O_H2O_538
 -----------
 Symbolic Z-matrix:
 Charge =  0 Multiplicity = 1

                         Standard orientation:
 ---------------------------------------------------------------------
 Center     Atomic      Atomic             Coordinates (Angstroms)
 Number     Number       Type             X           Y           Z
 ---------------------------------------------------------------------
      1          8           0        0.043006   -1.061835    0.000000
      2          1           0       -0.758513   -1.630230    0.000000
      3          1           0        0.840620   -1.635698    0.000000
      4          8           0        0.043006    1.100453    0.000000
      5          1           0        0.144143    2.077836    0.000000
      6          1           0       -0.914350    0.879149    0.000000
 ---------------------------------------------------------------------

 SCF Done:  E(RHF) =  -33.6196417871     A.U. after   11 cycles
 E2 =    -0.2313434487D+00 EUMP2 =    -0.33850985235785D+02
 CCSD(T)
 CCSD(T)= -0.33868318212D+02

 The electronic state is 1-A'.
 Alpha  occ. eigenvalues --   -1.34143  -1.31188  -0.69731  -0.67578  -0.55897
 Alpha  occ. eigenvalues --   -0.48903  -0.46483  -0.45246
 Alpha virt. eigenvalues --    0.20431   0.26191   0.31729   0.33303   0.79205
 Alpha virt. eigenvalues --    0.83768   0.89763   0.96129   0.99390   1.14313
 Alpha virt. eigenvalues --    1.19071   1.22906   1.24592   1.31404   2.54536

 Mulliken charges:
               1
     1  O   -0.743979
     2  H    0.347056
     3  H    0.381182
     4  O   -0.677520
     5  H    0.340121
     6  H    0.353141
 Sum of Mulliken charges =   0.00000

 Dipole moment (field-independent basis, Debye):
    X=             -1.7493    Y=             -0.9407    Z=              0.0000  Tot=              1.9862
 Quadrupole moment (field-independent basis, Debye-Ang):
   XX=             -9.3467   YY=             -3.0897   ZZ=            -14.9981
   XY=             -1.5139   XZ=              0.0000   YZ=              0.0000

 P4DQ=-33.8622135\MP4SDQ=-33.8644465\CCSD=-33.8654712\CCSD(T)=-33.86831
 Normal termination of Gaussian 16 at Sun Dec 10 06:34:48 2023.
