 Gaussian 16, Revision A.03,
 Gaussian 16:  ES64L-G16RevA.03 25-Dec-2016

 ------------------
 #p CCSD(T)/CEP-31G
 ------------------

 -----------
 H2O_H2O_603
 -----------
 Symbolic Z-matrix:
 Charge =  0 Multiplicity = 1

                         Standard orientation:
 ---------------------------------------------------------------------
 Center     Atomic      Atomic             Coordinates (Angstroms)
 Number     Number       Type             X           Y           Z
 ---------------------------------------------------------------------
      1          8           0        0.011143   -1.121519    0.000000
      2          1           0       -0.788915   -1.691968    0.000000
      3          1           0        0.810226   -1.693334    0.000000
      4          8           0        0.011143    1.123695    0.000000
      5          1           0        0.684540    1.839266    0.000000
      6          1           0       -0.884141    1.528629    0.000000
 ---------------------------------------------------------------------

 SCF Done:  E(RHF) =  -33.6176712403     A.U. after   11 cycles
 E2 =    -0.2308997375D+00 EUMP2 =    -0.33848570977815D+02
 CCSD(T)
 CCSD(T)= -0.33865917009D+02

 The electronic state is 1-A'.
 Alpha  occ. eigenvalues --   -1.32761  -1.31295  -0.68150  -0.67078  -0.56337
 Alpha  occ. eigenvalues --   -0.47599  -0.45101  -0.44925
 Alpha virt. eigenvalues --    0.21525   0.25053   0.32840   0.33186   0.78550
 Alpha virt. eigenvalues --    0.79926   0.89881   0.97369   1.00836   1.14807
 Alpha virt. eigenvalues --    1.19992   1.22741   1.23887   1.26558   2.51608

 Mulliken charges:
               1
     1  O   -0.700417
     2  H    0.344894
     3  H    0.354437
     4  O   -0.696258
     5  H    0.349732
     6  H    0.347612
 Sum of Mulliken charges =   0.00000

 Dipole moment (field-independent basis, Debye):
    X=             -0.4550    Y=             -0.0510    Z=              0.0000  Tot=              0.4579
 Quadrupole moment (field-independent basis, Debye-Ang):
   XX=             -8.3613   YY=             -1.8160   ZZ=            -15.0093
   XY=             -0.2943   XZ=              0.0000   YZ=              0.0000

 4DQ=-33.859882\MP4SDQ=-33.8620363\CCSD=-33.8631031\CCSD(T)=-33.865917\
 Normal termination of Gaussian 16 at Sun Dec 10 06:36:01 2023.
