 Gaussian 16, Revision A.03,
 Gaussian 16:  ES64L-G16RevA.03 25-Dec-2016

 ------------------
 #p CCSD(T)/CEP-31G
 ------------------

 ------------
 H2O_H2O_3377
 ------------
 Symbolic Z-matrix:
 Charge =  0 Multiplicity = 1

                         Standard orientation:
 ---------------------------------------------------------------------
 Center     Atomic      Atomic             Coordinates (Angstroms)
 Number     Number       Type             X           Y           Z
 ---------------------------------------------------------------------
      1          8           0        0.007455   -2.598018    0.000000
      2          1           0       -0.792257   -3.168952    0.000000
      3          1           0        0.806885   -3.169347    0.000000
      4          8           0        0.007455    2.598991    0.000000
      5          1           0        0.725803    3.269425    0.000000
      6          1           0       -0.859710    3.061086    0.000000
 ---------------------------------------------------------------------

 SCF Done:  E(RHF) =  -33.6496515737     A.U. after   11 cycles
 E2 =    -0.2284986069D+00 EUMP2 =    -0.33878150180628D+02
 CCSD(T)
 CCSD(T)= -0.33895212049D+02

 The electronic state is 1-A'.
 Alpha  occ. eigenvalues --   -1.34714  -1.34703  -0.70338  -0.70327  -0.54336
 Alpha  occ. eigenvalues --   -0.54306  -0.49253  -0.49242
 Alpha virt. eigenvalues --    0.20919   0.20974   0.31167   0.31181   0.81287
 Alpha virt. eigenvalues --    0.81322   0.84170   0.84932   0.87525   0.87603
 Alpha virt. eigenvalues --    1.18098   1.18109   1.22572   1.22588   2.58161

 Mulliken charges:
               1
     1  O   -0.733610
     2  H    0.366469
     3  H    0.367141
     4  O   -0.733581
     5  H    0.366350
     6  H    0.367231
 Sum of Mulliken charges =  -0.00000

 Dipole moment (field-independent basis, Debye):
    X=             -0.3432    Y=             -0.0230    Z=              0.0000  Tot=              0.3440
 Quadrupole moment (field-independent basis, Debye-Ang):
   XX=             -8.0893   YY=             15.4161   ZZ=            -14.9858
   XY=             -0.6688   XZ=              0.0000   YZ=              0.0000

 P4DQ=-33.8895509\MP4SDQ=-33.8915845\CCSD=-33.8926434\CCSD(T)=-33.89521
 Normal termination of Gaussian 16 at Sun Dec 10 06:40:39 2023.
