 Gaussian 16, Revision A.03,
 Gaussian 16:  ES64L-G16RevA.03 25-Dec-2016

 ------------------
 #p CCSD(T)/CEP-31G
 ------------------

 ------------
 H2O_H2O_4815
 ------------
 Symbolic Z-matrix:
 Charge =  0 Multiplicity = 1

                         Standard orientation:
 ---------------------------------------------------------------------
 Center     Atomic      Atomic             Coordinates (Angstroms)
 Number     Number       Type             X           Y           Z
 ---------------------------------------------------------------------
      1          8           0        0.047519   -3.328906    0.000000
      2          1           0       -0.752748   -3.899063    0.000000
      3          1           0        0.846393   -3.901012    0.000000
      4          8           0        0.047519    3.379556    0.000000
      5          1           0        0.018055    4.361716    0.000000
      6          1           0       -0.872001    3.033161    0.000000
 ---------------------------------------------------------------------

 SCF Done:  E(RHF) =  -33.6513778251     A.U. after   11 cycles
 E2 =    -0.2284042984D+00 EUMP2 =    -0.33879782123472D+02
 CCSD(T)
 CCSD(T)= -0.33896794266D+02

 The electronic state is 1-A'.
 Alpha  occ. eigenvalues --   -1.35368  -1.35033  -0.70999  -0.70657  -0.55080
 Alpha  occ. eigenvalues --   -0.54743  -0.49934  -0.49599
 Alpha virt. eigenvalues --    0.20380   0.20722   0.30617   0.30951   0.80619
 Alpha virt. eigenvalues --    0.80950   0.83683   0.84016   0.86780   0.87152
 Alpha virt. eigenvalues --    1.17516   1.17849   1.21977   1.22313   2.57543

 Mulliken charges:
               1
     1  O   -0.739661
     2  H    0.368807
     3  H    0.370854
     4  O   -0.739412
     5  H    0.367884
     6  H    0.371528
 Sum of Mulliken charges =   0.00000

 Dipole moment (field-independent basis, Debye):
    X=             -2.1944    Y=             -1.1828    Z=              0.0000  Tot=              2.4929
 Quadrupole moment (field-independent basis, Debye-Ang):
   XX=             -9.5038   YY=             16.9627   ZZ=            -14.9879
   XY=             -6.6557   XZ=              0.0000   YZ=              0.0000

 4\MP4DQ=-33.891147\MP4SDQ=-33.8931757\CCSD=-33.8942319\CCSD(T)=-33.896
 Normal termination of Gaussian 16 at Sun Dec 10 07:08:24 2023.
