 Gaussian 16, Revision A.03,
 Gaussian 16:  ES64L-G16RevA.03 25-Dec-2016

 ------------------
 #p CCSD(T)/CEP-31G
 ------------------

 -----------
 H2O_H2O_689
 -----------
 Symbolic Z-matrix:
 Charge =  0 Multiplicity = 1

                         Standard orientation:
 ---------------------------------------------------------------------
 Center     Atomic      Atomic             Coordinates (Angstroms)
 Number     Number       Type             X           Y           Z
 ---------------------------------------------------------------------
      1          8           0        0.045386   -1.138479    0.000000
      2          1           0       -0.756100   -1.706921    0.000000
      3          1           0        0.843033   -1.712295    0.000000
      4          8           0        0.045386    1.182864    0.000000
      5          1           0        0.082325    2.164771    0.000000
      6          1           0       -0.895430    0.899364    0.000000
 ---------------------------------------------------------------------

 SCF Done:  E(RHF) =  -33.6315629951     A.U. after   11 cycles
 E2 =    -0.2306957679D+00 EUMP2 =    -0.33862258763014D+02
 CCSD(T)
 CCSD(T)= -0.33879609498D+02

 The electronic state is 1-A'.
 Alpha  occ. eigenvalues --   -1.34199  -1.31627  -0.69824  -0.67708  -0.55154
 Alpha  occ. eigenvalues --   -0.48882  -0.48499  -0.45844
 Alpha virt. eigenvalues --    0.20280   0.25713   0.31565   0.33277   0.78630
 Alpha virt. eigenvalues --    0.83759   0.89233   0.93200   0.97195   1.14807
 Alpha virt. eigenvalues --    1.18944   1.22228   1.23861   1.30972   2.57128

 Mulliken charges:
               1
     1  O   -0.740983
     2  H    0.349284
     3  H    0.380370
     4  O   -0.686955
     5  H    0.339367
     6  H    0.358918
 Sum of Mulliken charges =  -0.00000

 Dipole moment (field-independent basis, Debye):
    X=             -1.8974    Y=             -1.0957    Z=              0.0000  Tot=              2.1910
 Quadrupole moment (field-independent basis, Debye-Ang):
   XX=             -9.4469   YY=             -2.2078   ZZ=            -14.9956
   XY=             -1.8248   XZ=              0.0000   YZ=              0.0000

 P4DQ=-33.8735949\MP4SDQ=-33.8757853\CCSD=-33.8768328\CCSD(T)=-33.87960
 Normal termination of Gaussian 16 at Sun Dec 10 06:37:37 2023.
