 Gaussian 16, Revision A.03,
 Gaussian 16:  ES64L-G16RevA.03 25-Dec-2016

 ------------------
 #p CCSD(T)/CEP-31G
 ------------------

 ------------
 H2O_H2O_1705
 ------------
 Symbolic Z-matrix:
 Charge =  0 Multiplicity = 1

                         Standard orientation:
 ---------------------------------------------------------------------
 Center     Atomic      Atomic             Coordinates (Angstroms)
 Number     Number       Type             X           Y           Z
 ---------------------------------------------------------------------
      1          8           0        0.018361   -1.704447    0.000000
      2          1           0       -0.781738   -2.274838    0.000000
      3          1           0        0.817403   -2.276319    0.000000
      4          8           0        0.018361    1.710475    0.000000
      5          1           0        0.592653    2.507779    0.000000
      6          1           0       -0.922098    1.995153    0.000000
 ---------------------------------------------------------------------

 SCF Done:  E(RHF) =  -33.6447505245     A.U. after   11 cycles
 E2 =    -0.2289355999D+00 EUMP2 =    -0.33873686124404D+02
 CCSD(T)
 CCSD(T)= -0.33890916999D+02

 The electronic state is 1-A'.
 Alpha  occ. eigenvalues --   -1.33804  -1.33633  -0.69422  -0.69242  -0.53686
 Alpha  occ. eigenvalues --   -0.52379  -0.48328  -0.48057
 Alpha virt. eigenvalues --    0.21036   0.22364   0.31785   0.32057   0.76449
 Alpha virt. eigenvalues --    0.80704   0.84013   0.84985   0.92175   1.02169
 Alpha virt. eigenvalues --    1.18821   1.19071   1.23302   1.23688   2.58506

 Mulliken charges:
               1
     1  O   -0.718119
     2  H    0.356526
     3  H    0.361635
     4  O   -0.716992
     5  H    0.355594
     6  H    0.361356
 Sum of Mulliken charges =   0.00000

 Dipole moment (field-independent basis, Debye):
    X=             -0.8313    Y=             -0.1494    Z=              0.0000  Tot=              0.8447
 Quadrupole moment (field-independent basis, Debye-Ang):
   XX=             -8.3417   YY=              5.4661   ZZ=            -14.9836
   XY=             -0.9625   XZ=              0.0000   YZ=              0.0000

 \MP4DQ=-33.8851758\MP4SDQ=-33.8872472\CCSD=-33.8883089\CCSD(T)=-33.890
 Normal termination of Gaussian 16 at Sun Dec 10 06:56:35 2023.
