 Gaussian 16, Revision A.03,
 Gaussian 16:  ES64L-G16RevA.03 25-Dec-2016

 ------------------
 #p CCSD(T)/CEP-31G
 ------------------

 ------------
 H2O_H2O_2355
 ------------
 Symbolic Z-matrix:
 Charge =  0 Multiplicity = 1

                         Standard orientation:
 ---------------------------------------------------------------------
 Center     Atomic      Atomic             Coordinates (Angstroms)
 Number     Number       Type             X           Y           Z
 ---------------------------------------------------------------------
      1          8           0        0.018361   -2.050137    0.000000
      2          1           0       -0.781650   -2.620654    0.000000
      3          1           0        0.817492   -2.621885    0.000000
      4          8           0        0.018361    2.056171    0.000000
      5          1           0        0.592529    2.853565    0.000000
      6          1           0       -0.922143    2.340703    0.000000
 ---------------------------------------------------------------------

 SCF Done:  E(RHF) =  -33.6477785410     A.U. after   11 cycles
 E2 =    -0.2286530978D+00 EUMP2 =    -0.33876431638843D+02
 CCSD(T)
 CCSD(T)= -0.33893549642D+02

 The electronic state is 1-A'.
 Alpha  occ. eigenvalues --   -1.34304  -1.34194  -0.69926  -0.69809  -0.53928
 Alpha  occ. eigenvalues --   -0.53558  -0.48822  -0.48703
 Alpha virt. eigenvalues --    0.21013   0.21588   0.31462   0.31599   0.80588
 Alpha virt. eigenvalues --    0.81387   0.82180   0.86946   0.88635   0.91242
 Alpha virt. eigenvalues --    1.18432   1.18542   1.22902   1.23079   2.58308

 Mulliken charges:
               1
     1  O   -0.727288
     2  H    0.362090
     3  H    0.365217
     4  O   -0.726802
     5  H    0.361449
     6  H    0.365334
 Sum of Mulliken charges =   0.00000

 Dipole moment (field-independent basis, Debye):
    X=             -0.8397    Y=             -0.1453    Z=              0.0000  Tot=              0.8522
 Quadrupole moment (field-independent basis, Debye-Ang):
   XX=             -8.2991   YY=              9.2078   ZZ=            -14.9846
   XY=             -1.2328   XZ=              0.0000   YZ=              0.0000

 MP4DQ=-33.8878668\MP4SDQ=-33.8899103\CCSD=-33.8909693\CCSD(T)=-33.8935
 Normal termination of Gaussian 16 at Sun Dec 10 07:09:47 2023.
