 Gaussian 16, Revision A.03,
 Gaussian 16:  ES64L-G16RevA.03 25-Dec-2016

 ------------------
 #p CCSD(T)/CEP-31G
 ------------------

 ------------
 H2O_H2O_2316
 ------------
 Symbolic Z-matrix:
 Charge =  0 Multiplicity = 1

                         Standard orientation:
 ---------------------------------------------------------------------
 Center     Atomic      Atomic             Coordinates (Angstroms)
 Number     Number       Type             X           Y           Z
 ---------------------------------------------------------------------
      1          8           0        0.049521   -1.995916    0.000000
      2          1           0       -0.751249   -2.565365    0.000000
      3          1           0        0.847889   -2.568729    0.000000
      4          8           0        0.049521    2.052822    0.000000
      5          1           0       -0.043250    3.031034    0.000000
      6          1           0       -0.845732    1.647820    0.000000
 ---------------------------------------------------------------------

 SCF Done:  E(RHF) =  -33.6503408137     A.U. after   11 cycles
 E2 =    -0.2285943692D+00 EUMP2 =    -0.33878935182930D+02
 CCSD(T)
 CCSD(T)= -0.33895981699D+02

 The electronic state is 1-A'.
 Alpha  occ. eigenvalues --   -1.35121  -1.34029  -0.70752  -0.69611  -0.54777
 Alpha  occ. eigenvalues --   -0.53660  -0.49671  -0.48584
 Alpha virt. eigenvalues --    0.20238   0.21970   0.30762   0.31905   0.79802
 Alpha virt. eigenvalues --    0.80719   0.82111   0.85818   0.87137   0.92931
 Alpha virt. eigenvalues --    1.17716   1.18965   1.22115   1.23489   2.57593

 Mulliken charges:
               1
     1  O   -0.736137
     2  H    0.363868
     3  H    0.372477
     4  O   -0.733499
     5  H    0.359408
     6  H    0.373883
 Sum of Mulliken charges =  -0.00000

 Dipole moment (field-independent basis, Debye):
    X=             -2.2619    Y=             -1.3710    Z=              0.0000  Tot=              2.6449
 Quadrupole moment (field-independent basis, Debye-Ang):
   XX=             -9.6293   YY=              5.3064   ZZ=            -14.9880
   XY=             -4.0485   XZ=              0.0000   YZ=              0.0000

 6\MP4DQ=-33.8903154\MP4SDQ=-33.8923556\CCSD=-33.8934064\CCSD(T)=-33.89
 Normal termination of Gaussian 16 at Sun Dec 10 07:09:05 2023.
