 Gaussian 16, Revision A.03,
 Gaussian 16:  ES64L-G16RevA.03 25-Dec-2016

 ------------------
 #p CCSD(T)/CEP-31G
 ------------------

 ------------
 H2O_H2O_1805
 ------------
 Symbolic Z-matrix:
 Charge =  0 Multiplicity = 1

                         Standard orientation:
 ---------------------------------------------------------------------
 Center     Atomic      Atomic             Coordinates (Angstroms)
 Number     Number       Type             X           Y           Z
 ---------------------------------------------------------------------
      1          8           0        0.018361   -1.757630    0.000000
      2          1           0       -0.781722   -2.328044    0.000000
      3          1           0        0.817419   -2.329479    0.000000
      4          8           0        0.018361    1.763659    0.000000
      5          1           0        0.592631    2.560980    0.000000
      6          1           0       -0.922106    2.048311    0.000000
 ---------------------------------------------------------------------

 SCF Done:  E(RHF) =  -33.6454008160     A.U. after   11 cycles
 E2 =    -0.2288779119D+00 EUMP2 =    -0.33874278727900D+02
 CCSD(T)
 CCSD(T)= -0.33891483838D+02

 The electronic state is 1-A'.
 Alpha  occ. eigenvalues --   -1.33897  -1.33740  -0.69517  -0.69349  -0.53707
 Alpha  occ. eigenvalues --   -0.52628  -0.48416  -0.48185
 Alpha virt. eigenvalues --    0.21022   0.22220   0.31723   0.31974   0.76772
 Alpha virt. eigenvalues --    0.80876   0.83616   0.85469   0.91377   1.00126
 Alpha virt. eigenvalues --    1.18750   1.18953   1.23218   1.23578   2.58304

 Mulliken charges:
               1
     1  O   -0.719891
     2  H    0.357615
     3  H    0.362325
     4  O   -0.718927
     5  H    0.356703
     6  H    0.362174
 Sum of Mulliken charges =  -0.00000

 Dipole moment (field-independent basis, Debye):
    X=             -0.8332    Y=             -0.1488    Z=              0.0000  Tot=              0.8464
 Quadrupole moment (field-independent basis, Debye-Ang):
   XX=             -8.3331   YY=              6.0532   ZZ=            -14.9837
   XY=             -1.0035   XZ=              0.0000   YZ=              0.0000

 MP4DQ=-33.8857558\MP4SDQ=-33.8878216\CCSD=-33.8888817\CCSD(T)=-33.8914
 Normal termination of Gaussian 16 at Sun Dec 10 06:58:25 2023.
