 Gaussian 16, Revision A.03,
 Gaussian 16:  ES64L-G16RevA.03 25-Dec-2016

 ------------------
 #p CCSD(T)/CEP-31G
 ------------------

 ------------
 H2O_H2O_4874
 ------------
 Symbolic Z-matrix:
 Charge =  0 Multiplicity = 1

                         Standard orientation:
 ---------------------------------------------------------------------
 Center     Atomic      Atomic             Coordinates (Angstroms)
 Number     Number       Type             X           Y           Z
 ---------------------------------------------------------------------
      1          8           0        0.057196   -3.321063    0.000000
      2          1           0       -0.743205   -3.891030    0.000000
      3          1           0        0.855935   -3.893358    0.000000
      4          8           0        0.057196    3.435123    0.000000
      5          1           0       -0.512771    4.235524    0.000000
      6          1           0       -0.515099    2.636383    0.000000
 ---------------------------------------------------------------------

 SCF Done:  E(RHF) =  -33.6520695139     A.U. after   11 cycles
 E2 =    -0.2283658635D+00 EUMP2 =    -0.33880435377464D+02
 CCSD(T)
 CCSD(T)= -0.33897427389D+02

 The electronic state is 1-A'.
 Alpha  occ. eigenvalues --   -1.35733  -1.35006  -0.71367  -0.70630  -0.55483
 Alpha  occ. eigenvalues --   -0.54746  -0.50309  -0.49581
 Alpha virt. eigenvalues --    0.20055   0.20801   0.30297   0.31041   0.80242
 Alpha virt. eigenvalues --    0.80960   0.83241   0.83981   0.86362   0.87128
 Alpha virt. eigenvalues --    1.17182   1.17906   1.21637   1.22376   2.57191

 Mulliken charges:
               1
     1  O   -0.742134
     2  H    0.369963
     3  H    0.372170
     4  O   -0.742065
     5  H    0.368229
     6  H    0.373836
 Sum of Mulliken charges =  -0.00000

 Dipole moment (field-independent basis, Debye):
    X=             -2.6404    Y=             -2.6631    Z=              0.0000  Tot=              3.7502
 Quadrupole moment (field-independent basis, Debye-Ang):
   XX=            -10.1668   YY=              7.6028   ZZ=            -14.9892
   XY=             -9.2505   XZ=              0.0000   YZ=              0.0000

 6\MP4DQ=-33.8917855\MP4SDQ=-33.8938123\CCSD=-33.8948672\CCSD(T)=-33.89
 Normal termination of Gaussian 16 at Sun Dec 10 07:09:30 2023.
