 Gaussian 16, Revision A.03,
 Gaussian 16:  ES64L-G16RevA.03 25-Dec-2016

 ------------------
 #p CCSD(T)/CEP-31G
 ------------------

 -----------
 H2O_H2O_894
 -----------
 Symbolic Z-matrix:
 Charge =  0 Multiplicity = 1

                         Standard orientation:
 ---------------------------------------------------------------------
 Center     Atomic      Atomic             Coordinates (Angstroms)
 Number     Number       Type             X           Y           Z
 ---------------------------------------------------------------------
      1          8           0        0.054224   -1.227073    0.000000
      2          1           0       -0.747442   -1.795259    0.000000
      3          1           0        0.851689   -1.801142    0.000000
      4          8           0        0.054224    1.304184    0.000000
      5          1           0       -0.226122    2.245944    0.000000
      6          1           0       -0.745716    0.733568    0.000000
 ---------------------------------------------------------------------

 SCF Done:  E(RHF) =  -33.6444669067     A.U. after   11 cycles
 E2 =    -0.2301393554D+00 EUMP2 =    -0.33874606262160D+02
 CCSD(T)
 CCSD(T)= -0.33891757356D+02

 The electronic state is 1-A'.
 Alpha  occ. eigenvalues --   -1.35547  -1.31760  -0.71220  -0.67932  -0.54835
 Alpha  occ. eigenvalues --   -0.51115  -0.50135  -0.46257
 Alpha virt. eigenvalues --    0.19504   0.25905   0.30456   0.34266   0.77594
 Alpha virt. eigenvalues --    0.82597   0.88105   0.89440   0.94238   1.15090
 Alpha virt. eigenvalues --    1.19605   1.20665   1.23069   1.30064   2.68270

 Mulliken charges:
               1
     1  O   -0.753876
     2  H    0.358363
     3  H    0.391697
     4  O   -0.711119
     5  H    0.335893
     6  H    0.379042
 Sum of Mulliken charges =  -0.00000

 Dipole moment (field-independent basis, Debye):
    X=             -2.3266    Y=             -1.9730    Z=              0.0000  Tot=              3.0506
 Quadrupole moment (field-independent basis, Debye-Ang):
   XX=             -9.9305   YY=             -2.3697   ZZ=            -14.9979
   XY=             -2.9366   XZ=              0.0000   YZ=              0.0000

 MP4DQ=-33.8858212\MP4SDQ=-33.887992\CCSD=-33.8890151\CCSD(T)=-33.89175
 Normal termination of Gaussian 16 at Sun Dec 10 06:41:28 2023.
