 Gaussian 16, Revision A.03,
 Gaussian 16:  ES64L-G16RevA.03 25-Dec-2016

 ------------------
 #p CCSD(T)/CEP-31G
 ------------------

 ------------
 H2O_H2O_3325
 ------------
 Symbolic Z-matrix:
 Charge =  0 Multiplicity = 1

                         Standard orientation:
 ---------------------------------------------------------------------
 Center     Atomic      Atomic             Coordinates (Angstroms)
 Number     Number       Type             X           Y           Z
 ---------------------------------------------------------------------
      1          8           0        0.000000   -0.000000    2.571955
      2          1           0        0.000000    0.799571    3.143087
      3          1           0       -0.000000   -0.799571    3.143087
      4          8           0        0.000000   -0.000000   -2.571955
      5          1           0       -0.000000   -0.799571   -3.143087
      6          1           0        0.000000    0.799571   -3.143087
 ---------------------------------------------------------------------

 SCF Done:  E(RHF) =  -33.6495600928     A.U. after   10 cycles
 E2 =    -0.2285034507D+00 EUMP2 =    -0.33878063543542D+02
 CCSD(T)
 CCSD(T)= -0.33895128049D+02

 The electronic state is 1-AG.
 Alpha  occ. eigenvalues --   -1.34686  -1.34686  -0.70311  -0.70310  -0.54310
 Alpha  occ. eigenvalues --   -0.54276  -0.49225  -0.49223
 Alpha virt. eigenvalues --    0.20933   0.20994   0.31185   0.31198   0.81309
 Alpha virt. eigenvalues --    0.81349   0.84139   0.85035   0.87543   0.87636
 Alpha virt. eigenvalues --    1.18122   1.18122   1.22592   1.22607   2.58183

 Mulliken charges:
               1
     1  O   -0.733293
     2  H    0.366647
     3  H    0.366647
     4  O   -0.733293
     5  H    0.366647
     6  H    0.366647
 Sum of Mulliken charges =   0.00000

 Dipole moment (field-independent basis, Debye):
    X=             -0.0000    Y=              0.0000    Z=              0.0000  Tot=              0.0000
 Quadrupole moment (field-independent basis, Debye-Ang):
   XX=            -14.9857   YY=             -8.0547   ZZ=             15.2156
   XY=              0.0000   XZ=              0.0000   YZ=             -0.0000

 -33.8894662\MP4SDQ=-33.8915\CCSD=-33.8925591\CCSD(T)=-33.895128\RMSD=4
 Normal termination of Gaussian 16 at Sun Dec 10 06:39:42 2023.
