 Gaussian 16, Revision A.03,
 Gaussian 16:  ES64L-G16RevA.03 25-Dec-2016

 ------------------
 #p CCSD(T)/CEP-31G
 ------------------

 ------------
 H2O_H2O_4578
 ------------
 Symbolic Z-matrix:
 Charge =  0 Multiplicity = 1

                         Standard orientation:
 ---------------------------------------------------------------------
 Center     Atomic      Atomic             Coordinates (Angstroms)
 Number     Number       Type             X           Y           Z
 ---------------------------------------------------------------------
      1          8           0        0.011143   -3.235562    0.000000
      2          1           0       -0.788598   -3.806457    0.000000
      3          1           0        0.810544   -3.806931    0.000000
      4          8           0        0.011143    3.237750    0.000000
      5          1           0        0.684140    3.953697    0.000000
      6          1           0       -0.884368    3.642185    0.000000
 ---------------------------------------------------------------------

 SCF Done:  E(RHF) =  -33.6507100811     A.U. after   11 cycles
 E2 =    -0.2284350578D+00 EUMP2 =    -0.33879145138905D+02
 CCSD(T)
 CCSD(T)= -0.33896176542D+02

 The electronic state is 1-A'.
 Alpha  occ. eigenvalues --   -1.35034  -1.35018  -0.70662  -0.70646  -0.54709
 Alpha  occ. eigenvalues --   -0.54693  -0.49589  -0.49573
 Alpha virt. eigenvalues --    0.20678   0.20694   0.30910   0.30925   0.80965
 Alpha virt. eigenvalues --    0.80980   0.84093   0.84110   0.87166   0.87184
 Alpha virt. eigenvalues --    1.17822   1.17837   1.22288   1.22304   2.57865

 Mulliken charges:
               1
     1  O   -0.737274
     2  H    0.368364
     3  H    0.368910
     4  O   -0.737250
     5  H    0.368239
     6  H    0.369011
 Sum of Mulliken charges =   0.00000

 Dipole moment (field-independent basis, Debye):
    X=             -0.5145    Y=             -0.0511    Z=              0.0000  Tot=              0.5170
 Quadrupole moment (field-independent basis, Debye-Ang):
   XX=             -8.1176   YY=             22.0854   ZZ=            -14.9869
   XY=             -1.3260   XZ=              0.0000   YZ=              0.0000

 \MP4DQ=-33.890524\MP4SDQ=-33.8925545\CCSD=-33.893612\CCSD(T)=-33.89617
 Normal termination of Gaussian 16 at Sun Dec 10 07:04:03 2023.
