 Gaussian 16, Revision A.03,
 Gaussian 16:  ES64L-G16RevA.03 25-Dec-2016

 ------------------
 #p CCSD(T)/CEP-31G
 ------------------

 ------------
 H2O_H2O_3997
 ------------
 Symbolic Z-matrix:
 Charge =  0 Multiplicity = 1

                         Standard orientation:
 ---------------------------------------------------------------------
 Center     Atomic      Atomic             Coordinates (Angstroms)
 Number     Number       Type             X           Y           Z
 ---------------------------------------------------------------------
      1          8           0        0.056708   -2.863814    0.000000
      2          1           0       -0.743818   -3.433608    0.000000
      3          1           0        0.855322   -3.436283    0.000000
      4          8           0        0.056708    2.962942    0.000000
      5          1           0       -0.403722    3.830991    0.000000
      6          1           0       -0.615104    2.245882    0.000000
 ---------------------------------------------------------------------

 SCF Done:  E(RHF) =  -33.6519978127     A.U. after   11 cycles
 E2 =    -0.2283806647D+00 EUMP2 =    -0.33880378477455D+02
 CCSD(T)
 CCSD(T)= -0.33897372386D+02

 The electronic state is 1-A'.
 Alpha  occ. eigenvalues --   -1.35670  -1.34798  -0.71303  -0.70415  -0.55417
 Alpha  occ. eigenvalues --   -0.54532  -0.50244  -0.49373
 Alpha virt. eigenvalues --    0.20111   0.21013   0.30354   0.31246   0.80308
 Alpha virt. eigenvalues --    0.81164   0.83304   0.84198   0.86431   0.87378
 Alpha virt. eigenvalues --    1.17241   1.18108   1.21697   1.22585   2.57251

 Mulliken charges:
               1
     1  O   -0.741886
     2  H    0.369236
     3  H    0.372651
     4  O   -0.741596
     5  H    0.366785
     6  H    0.374810
 Sum of Mulliken charges =  -0.00000

 Dipole moment (field-independent basis, Debye):
    X=             -2.6145    Y=             -2.3259    Z=              0.0000  Tot=              3.4994
 Quadrupole moment (field-independent basis, Debye-Ang):
   XX=            -10.1271   YY=              7.1509   ZZ=            -14.9892
   XY=             -7.6878   XZ=              0.0000   YZ=              0.0000

 MP4DQ=-33.8917298\MP4SDQ=-33.893757\CCSD=-33.8948115\CCSD(T)=-33.89737
 Normal termination of Gaussian 16 at Sun Dec 10 06:52:02 2023.
