 Gaussian 16, Revision A.03,
 Gaussian 16:  ES64L-G16RevA.03 25-Dec-2016

 ------------------
 #p CCSD(T)/CEP-31G
 ------------------

 ------------
 H2O_H2O_1561
 ------------
 Symbolic Z-matrix:
 Charge =  0 Multiplicity = 1

                         Standard orientation:
 ---------------------------------------------------------------------
 Center     Atomic      Atomic             Coordinates (Angstroms)
 Number     Number       Type             X           Y           Z
 ---------------------------------------------------------------------
      1          8           0        0.037686   -1.612630    0.000000
      2          1           0       -0.763022   -2.182168    0.000000
      3          1           0        0.836117   -2.185354    0.000000
      4          8           0        0.037686    1.640826    0.000000
      5          1           0        0.264167    2.596971    0.000000
      6          1           0       -0.940231    1.544981    0.000000
 ---------------------------------------------------------------------

 SCF Done:  E(RHF) =  -33.6458460909     A.U. after   11 cycles
 E2 =    -0.2290479842D+00 EUMP2 =    -0.33874894075030D+02
 CCSD(T)
 CCSD(T)= -0.33892116657D+02

 The electronic state is 1-A'.
 Alpha  occ. eigenvalues --   -1.34203  -1.33373  -0.69829  -0.68952  -0.53999
 Alpha  occ. eigenvalues --   -0.52364  -0.48718  -0.47851
 Alpha virt. eigenvalues --    0.20563   0.22860   0.31503   0.32262   0.75616
 Alpha virt. eigenvalues --    0.80079   0.84500   0.84565   0.91120   1.07994
 Alpha virt. eigenvalues --    1.18443   1.20105   1.23035   1.23922   2.58679

 Mulliken charges:
               1
     1  O   -0.722809
     2  H    0.355574
     3  H    0.367357
     4  O   -0.717259
     5  H    0.351412
     6  H    0.365726
 Sum of Mulliken charges =   0.00000

 Dipole moment (field-independent basis, Debye):
    X=             -1.6946    Y=             -0.7004    Z=              0.0000  Tot=              1.8337
 Quadrupole moment (field-independent basis, Debye-Ang):
   XX=             -9.0105   YY=              3.5161   ZZ=            -14.9855
   XY=             -2.0921   XZ=              0.0000   YZ=              0.0000

 \MP4DQ=-33.886362\MP4SDQ=-33.8884451\CCSD=-33.8895018\CCSD(T)=-33.8921
 Normal termination of Gaussian 16 at Sun Dec 10 06:53:55 2023.
