 Gaussian 16, Revision A.03,
 Gaussian 16:  ES64L-G16RevA.03 25-Dec-2016

 ------------------
 #p CCSD(T)/CEP-31G
 ------------------

 ------------
 H2O_H2O_1723
 ------------
 Symbolic Z-matrix:
 Charge =  0 Multiplicity = 1

                         Standard orientation:
 ---------------------------------------------------------------------
 Center     Atomic      Atomic             Coordinates (Angstroms)
 Number     Number       Type             X           Y           Z
 ---------------------------------------------------------------------
      1          8           0        0.057144   -1.649920    0.000000
      2          1           0       -0.744068   -2.218746    0.000000
      3          1           0        0.855067   -2.223352    0.000000
      4          8           0        0.057144    1.756347    0.000000
      5          1           0       -0.458062    2.593047    0.000000
      6          1           0       -0.567248    0.997636    0.000000
 ---------------------------------------------------------------------

 SCF Done:  E(RHF) =  -33.6540522581     A.U. after   11 cycles
 E2 =    -0.2288072341D+00 EUMP2 =    -0.33882859492150D+02
 CCSD(T)
 CCSD(T)= -0.33899846902D+02

 The electronic state is 1-A'.
 Alpha  occ. eigenvalues --   -1.36170  -1.33123  -0.71816  -0.68694  -0.56041
 Alpha  occ. eigenvalues --   -0.52894  -0.50771  -0.47725
 Alpha virt. eigenvalues --    0.19034   0.23871   0.29879   0.33756   0.77461
 Alpha virt. eigenvalues --    0.79025   0.83584   0.86093   0.87572   1.01101
 Alpha virt. eigenvalues --    1.16721   1.20290   1.21428   1.28400   2.53729

 Mulliken charges:
               1
     1  O   -0.749356
     2  H    0.367553
     3  H    0.383386
     4  O   -0.746403
     5  H    0.353305
     6  H    0.391515
 Sum of Mulliken charges =   0.00000

 Dipole moment (field-independent basis, Debye):
    X=             -2.5852    Y=             -2.6496    Z=              0.0000  Tot=              3.7018
 Quadrupole moment (field-independent basis, Debye-Ang):
   XX=            -10.1327   YY=             -0.9201   ZZ=            -14.9954
   XY=             -4.7442   XZ=              0.0000   YZ=              0.0000

 1\MP4DQ=-33.8941319\MP4SDQ=-33.8962051\CCSD=-33.8972375\CCSD(T)=-33.89
 Normal termination of Gaussian 16 at Sun Dec 10 06:56:54 2023.
