 Gaussian 16, Revision A.03,
 Gaussian 16:  ES64L-G16RevA.03 25-Dec-2016

 ------------------
 #p CCSD(T)/CEP-31G
 ------------------

 -----------
 H2O_H2O_209
 -----------
 Symbolic Z-matrix:
 Charge =  0 Multiplicity = 1

                         Standard orientation:
 ---------------------------------------------------------------------
 Center     Atomic      Atomic             Coordinates (Angstroms)
 Number     Number       Type             X           Y           Z
 ---------------------------------------------------------------------
      1          8           0        0.031759   -0.899612    0.000000
      2          1           0       -0.769524   -1.468339    0.000000
      3          1           0        0.829611   -1.473143    0.000000
      4          8           0        0.031759    0.918672    0.000000
      5          1           0        0.382034    1.836720    0.000000
      6          1           0       -0.950267    0.952283    0.000000
 ---------------------------------------------------------------------

 SCF Done:  E(RHF) =  -33.5565187454     A.U. after   11 cycles
 E2 =    -0.2344915779D+00 EUMP2 =    -0.33791010323314D+02
 CCSD(T)
 CCSD(T)= -0.33807982912D+02

 The electronic state is 1-A'.
 Alpha  occ. eigenvalues --   -1.35222  -1.29691  -0.70291  -0.67154  -0.59973
 Alpha  occ. eigenvalues --   -0.50020  -0.43390  -0.38463
 Alpha virt. eigenvalues --    0.20838   0.27524   0.31879   0.33489   0.81311
 Alpha virt. eigenvalues --    0.82979   0.89778   0.93793   1.00591   1.19599
 Alpha virt. eigenvalues --    1.21087   1.24616   1.27045   1.33445   2.50973

 Mulliken charges:
               1
     1  O   -0.729810
     2  H    0.338379
     3  H    0.377881
     4  O   -0.673232
     5  H    0.344717
     6  H    0.342066
 Sum of Mulliken charges =  -0.00000

 Dipole moment (field-independent basis, Debye):
    X=             -1.1866    Y=             -0.4772    Z=              0.0000  Tot=              1.2789
 Quadrupole moment (field-independent basis, Debye-Ang):
   XX=             -8.9557   YY=             -5.7225   ZZ=            -15.0059
   XY=             -0.7783   XZ=              0.0000   YZ=              0.0000

 P4DQ=-33.8014957\MP4SDQ=-33.8039789\CCSD=-33.8048159\CCSD(T)=-33.80798
 Normal termination of Gaussian 16 at Sun Dec 10 06:28:39 2023.
