 Gaussian 16, Revision A.03,
 Gaussian 16:  ES64L-G16RevA.03 25-Dec-2016

 ------------------
 #p CCSD(T)/CEP-31G
 ------------------

 ----------
 H2O_H2O_59
 ----------
 Symbolic Z-matrix:
 Charge =  0 Multiplicity = 1

                         Standard orientation:
 ---------------------------------------------------------------------
 Center     Atomic      Atomic             Coordinates (Angstroms)
 Number     Number       Type             X           Y           Z
 ---------------------------------------------------------------------
      1          8           0        0.031762   -0.819846    0.000000
      2          1           0       -0.769686   -1.388341    0.000000
      3          1           0        0.829448   -1.393608    0.000000
      4          8           0        0.031762    0.838887    0.000000
      5          1           0        0.382302    1.756835    0.000000
      6          1           0       -0.950255    0.872783    0.000000
 ---------------------------------------------------------------------

 SCF Done:  E(RHF) =  -33.4936975789     A.U. after   12 cycles
 E2 =    -0.2379154862D+00 EUMP2 =    -0.33731613065102D+02
 CCSD(T)
 CCSD(T)= -0.33748174147D+02

 The electronic state is 1-A'.
 Alpha  occ. eigenvalues --   -1.37778  -1.28912  -0.72305  -0.68528  -0.61507
 Alpha  occ. eigenvalues --   -0.52164  -0.42674  -0.33631
 Alpha virt. eigenvalues --    0.20565   0.28560   0.31447   0.33564   0.81806
 Alpha virt. eigenvalues --    0.83852   0.88981   0.91183   0.99176   1.19472
 Alpha virt. eigenvalues --    1.22453   1.23912   1.26809   1.38935   2.54440

 Mulliken charges:
               1
     1  O   -0.720232
     2  H    0.330586
     3  H    0.380001
     4  O   -0.665377
     5  H    0.332136
     6  H    0.342886
 Sum of Mulliken charges =  -0.00000

 Dipole moment (field-independent basis, Debye):
    X=             -1.1448    Y=             -0.5288    Z=              0.0000  Tot=              1.2610
 Quadrupole moment (field-independent basis, Debye-Ang):
   XX=             -9.0154   YY=             -7.6508   ZZ=            -14.9811
   XY=             -0.7832   XZ=              0.0000   YZ=              0.0000

 P4DQ=-33.7413055\MP4SDQ=-33.7440836\CCSD=-33.7446571\CCSD(T)=-33.74817
 Normal termination of Gaussian 16 at Sun Dec 10 06:25:50 2023.
