 Gaussian 16, Revision A.03,
 Gaussian 16:  ES64L-G16RevA.03 25-Dec-2016

 ------------------
 #p CCSD(T)/CEP-31G
 ------------------

 ------------
 H2O_H2O_2021
 ------------
 Symbolic Z-matrix:
 Charge =  0 Multiplicity = 1

                         Standard orientation:
 ---------------------------------------------------------------------
 Center     Atomic      Atomic             Coordinates (Angstroms)
 Number     Number       Type             X           Y           Z
 ---------------------------------------------------------------------
      1          8           0        0.056135   -1.817495    0.000000
      2          1           0       -0.744912   -2.386556    0.000000
      3          1           0        0.854225   -2.390694    0.000000
      4          8           0        0.056135    1.909147    0.000000
      5          1           0       -0.345715    2.805820    0.000000
      6          1           0       -0.661751    1.238216    0.000000
 ---------------------------------------------------------------------

 SCF Done:  E(RHF) =  -33.6524732362     A.U. after   11 cycles
 E2 =    -0.2286460102D+00 EUMP2 =    -0.33881119246349D+02
 CCSD(T)
 CCSD(T)= -0.33898121761D+02

 The electronic state is 1-A'.
 Alpha  occ. eigenvalues --   -1.35752  -1.33610  -0.71393  -0.69168  -0.55526
 Alpha  occ. eigenvalues --   -0.53331  -0.50332  -0.48194
 Alpha virt. eigenvalues --    0.19423   0.22883   0.30198   0.32649   0.78356
 Alpha virt. eigenvalues --    0.79883   0.82670   0.85874   0.86542   0.96282
 Alpha virt. eigenvalues --    1.17139   1.19868   1.21565   1.25712   2.55780

 Mulliken charges:
               1
     1  O   -0.743088
     2  H    0.366047
     3  H    0.377961
     4  O   -0.740749
     5  H    0.356837
     6  H    0.382992
 Sum of Mulliken charges =   0.00000

 Dipole moment (field-independent basis, Debye):
    X=             -2.5546    Y=             -2.2423    Z=              0.0000  Tot=              3.3991
 Quadrupole moment (field-independent basis, Debye-Ang):
   XX=            -10.0674   YY=              1.3112   ZZ=            -14.9918
   XY=             -4.8024   XZ=              0.0000   YZ=              0.0000

 \MP4DQ=-33.8924437\MP4SDQ=-33.8944968\CCSD=-33.8955369\CCSD(T)=-33.898
 Normal termination of Gaussian 16 at Sun Dec 10 07:03:47 2023.
