 Gaussian 16, Revision A.03,
 Gaussian 16:  ES64L-G16RevA.03 25-Dec-2016

 ------------------
 #p CCSD(T)/CEP-31G
 ------------------

 ------------
 H2O_H2O_1894
 ------------
 Symbolic Z-matrix:
 Charge =  0 Multiplicity = 1

                         Standard orientation:
 ---------------------------------------------------------------------
 Center     Atomic      Atomic             Coordinates (Angstroms)
 Number     Number       Type             X           Y           Z
 ---------------------------------------------------------------------
      1          8           0        0.054182   -1.758847    0.000000
      2          1           0       -0.746865   -2.327907    0.000000
      3          1           0        0.852272   -2.332048    0.000000
      4          8           0        0.054182    1.836077    0.000000
      5          1           0       -0.227189    2.777531    0.000000
      6          1           0       -0.745136    1.264591    0.000000
 ---------------------------------------------------------------------

 SCF Done:  E(RHF) =  -33.6513476210     A.U. after   11 cycles
 E2 =    -0.2287412927D+00 EUMP2 =    -0.33880088913707D+02
 CCSD(T)
 CCSD(T)= -0.33897129421D+02

 The electronic state is 1-A'.
 Alpha  occ. eigenvalues --   -1.35467  -1.33534  -0.71106  -0.69090  -0.55180
 Alpha  occ. eigenvalues --   -0.53202  -0.50032  -0.48106
 Alpha virt. eigenvalues --    0.19617   0.22941   0.30422   0.32569   0.76906
 Alpha virt. eigenvalues --    0.79942   0.83011   0.85996   0.86977   0.99559
 Alpha virt. eigenvalues --    1.17372   1.20035   1.21814   1.25293   2.56066

 Mulliken charges:
               1
     1  O   -0.739486
     2  H    0.363725
     3  H    0.376602
     4  O   -0.735609
     5  H    0.355103
     6  H    0.379666
 Sum of Mulliken charges =   0.00000

 Dipole moment (field-independent basis, Debye):
    X=             -2.4586    Y=             -1.8964    Z=              0.0000  Tot=              3.1049
 Quadrupole moment (field-independent basis, Debye-Ang):
   XX=             -9.9313   YY=              1.9748   ZZ=            -14.9905
   XY=             -4.2289   XZ=              0.0000   YZ=              0.0000

 MP4DQ=-33.8914379\MP4SDQ=-33.8934973\CCSD=-33.8945388\CCSD(T)=-33.8971
 Normal termination of Gaussian 16 at Sun Dec 10 07:00:04 2023.
