 Gaussian 16, Revision A.03,
 Gaussian 16:  ES64L-G16RevA.03 25-Dec-2016

 ------------------
 #p CCSD(T)/CEP-31G
 ------------------

 ------------
 H2O_H2O_4946
 ------------
 Symbolic Z-matrix:
 Charge =  0 Multiplicity = 1

                         Standard orientation:
 ---------------------------------------------------------------------
 Center     Atomic      Atomic             Coordinates (Angstroms)
 Number     Number       Type             X           Y           Z
 ---------------------------------------------------------------------
      1          8           0        0.056081   -3.373047    0.000000
      2          1           0       -0.744295   -3.943051    0.000000
      3          1           0        0.854845   -3.945306    0.000000
      4          8           0        0.056081    3.464831    0.000000
      5          1           0       -0.346825    4.361030    0.000000
      6          1           0       -0.661015    2.793057    0.000000
 ---------------------------------------------------------------------

 SCF Done:  E(RHF) =  -33.6518355567     A.U. after   11 cycles
 E2 =    -0.2283791120D+00 EUMP2 =    -0.33880214668689D+02
 CCSD(T)
 CCSD(T)= -0.33897213491D+02

 The electronic state is 1-A'.
 Alpha  occ. eigenvalues --   -1.35610  -1.35033  -0.71242  -0.70657  -0.55347
 Alpha  occ. eigenvalues --   -0.54764  -0.50182  -0.49605
 Alpha virt. eigenvalues --    0.20165   0.20755   0.30405   0.30990   0.80369
 Alpha virt. eigenvalues --    0.80939   0.83390   0.83973   0.86503   0.87120
 Alpha virt. eigenvalues --    1.17294   1.17868   1.21752   1.22335   2.57310

 Mulliken charges:
               1
     1  O   -0.741297
     2  H    0.369559
     3  H    0.371738
     4  O   -0.741135
     5  H    0.368148
     6  H    0.372987
 Sum of Mulliken charges =  -0.00000

 Dipole moment (field-independent basis, Debye):
    X=             -2.5897    Y=             -2.1425    Z=              0.0000  Tot=              3.3611
 Quadrupole moment (field-independent basis, Debye-Ang):
   XX=            -10.0836   YY=             11.3719   ZZ=            -14.9887
   XY=             -8.7702   XZ=              0.0000   YZ=              0.0000

 \MP4DQ=-33.8915698\MP4SDQ=-33.8935973\CCSD=-33.8946526\CCSD(T)=-33.897
 Normal termination of Gaussian 16 at Sun Dec 10 07:10:51 2023.
