 Gaussian 16, Revision A.03,
 Gaussian 16:  ES64L-G16RevA.03 25-Dec-2016

 ------------------
 #p CCSD(T)/CEP-31G
 ------------------

 ------------
 H2O_H2O_2841
 ------------
 Symbolic Z-matrix:
 Charge =  0 Multiplicity = 1

                         Standard orientation:
 ---------------------------------------------------------------------
 Center     Atomic      Atomic             Coordinates (Angstroms)
 Number     Number       Type             X           Y           Z
 ---------------------------------------------------------------------
      1          8           0        0.049514   -2.275117    0.000000
      2          1           0       -0.751111   -2.844770    0.000000
      3          1           0        0.848028   -2.847726    0.000000
      4          8           0        0.049514    2.332048    0.000000
      5          1           0       -0.043507    3.310236    0.000000
      6          1           0       -0.845636    1.926818    0.000000
 ---------------------------------------------------------------------

 SCF Done:  E(RHF) =  -33.6507611588     A.U. after   11 cycles
 E2 =    -0.2284904806D+00 EUMP2 =    -0.33879251639391D+02
 CCSD(T)
 CCSD(T)= -0.33896282321D+02

 The electronic state is 1-A'.
 Alpha  occ. eigenvalues --   -1.35207  -1.34379  -0.70837  -0.69979  -0.54884
 Alpha  occ. eigenvalues --   -0.54047  -0.49762  -0.48938
 Alpha virt. eigenvalues --    0.20420   0.21430   0.30733   0.31565   0.80779
 Alpha virt. eigenvalues --    0.81610   0.82823   0.85255   0.86975   0.88644
 Alpha virt. eigenvalues --    1.17652   1.18489   1.22101   1.22982   2.57697

 Mulliken charges:
               1
     1  O   -0.737611
     2  H    0.365796
     3  H    0.371846
     4  O   -0.736114
     5  H    0.362798
     6  H    0.373284
 Sum of Mulliken charges =  -0.00000

 Dipole moment (field-independent basis, Debye):
    X=             -2.2726    Y=             -1.3531    Z=              0.0000  Tot=              2.6449
 Quadrupole moment (field-independent basis, Debye-Ang):
   XX=             -9.6285   YY=              7.5935   ZZ=            -14.9879
   XY=             -4.6679   XZ=              0.0000   YZ=              0.0000

 7\MP4DQ=-33.8906281\MP4SDQ=-33.8926603\CCSD=-33.8937149\CCSD(T)=-33.89
 Normal termination of Gaussian 16 at Sun Dec 10 06:31:05 2023.
