 Gaussian 16, Revision A.03,
 Gaussian 16:  ES64L-G16RevA.03 25-Dec-2016

 ------------------
 #p CCSD(T)/CEP-31G
 ------------------

 ------------
 H2O_H2O_2198
 ------------
 Symbolic Z-matrix:
 Charge =  0 Multiplicity = 1

                         Standard orientation:
 ---------------------------------------------------------------------
 Center     Atomic      Atomic             Coordinates (Angstroms)
 Number     Number       Type             X           Y           Z
 ---------------------------------------------------------------------
      1          8           0        0.057125   -1.902519    0.000000
      2          1           0       -0.743876   -2.471644    0.000000
      3          1           0        0.855260   -2.475655    0.000000
      4          8           0        0.057125    2.008989    0.000000
      5          1           0       -0.458394    2.845498    0.000000
      6          1           0       -0.566985    1.250046    0.000000
 ---------------------------------------------------------------------

 SCF Done:  E(RHF) =  -33.6533220336     A.U. after   11 cycles
 E2 =    -0.2285477060D+00 EUMP2 =    -0.33881869739586D+02
 CCSD(T)
 CCSD(T)= -0.33898841522D+02

 The electronic state is 1-A'.
 Alpha  occ. eigenvalues --   -1.35987  -1.33737  -0.71628  -0.69303  -0.55813
 Alpha  occ. eigenvalues --   -0.53491  -0.50579  -0.48329
 Alpha virt. eigenvalues --    0.19292   0.22711   0.30028   0.32608   0.79831
 Alpha virt. eigenvalues --    0.80233   0.82331   0.85568   0.86273   0.92727
 Alpha virt. eigenvalues --    1.16953   1.19648   1.21359   1.25824   2.55845

 Mulliken charges:
               1
     1  O   -0.745822
     2  H    0.368213
     3  H    0.378519
     4  O   -0.745055
     5  H    0.358954
     6  H    0.385192
 Sum of Mulliken charges =  -0.00000

 Dipole moment (field-independent basis, Debye):
    X=             -2.6071    Y=             -2.5906    Z=              0.0000  Tot=              3.6753
 Quadrupole moment (field-independent basis, Debye-Ang):
   XX=            -10.1417   YY=              0.6040   ZZ=            -14.9928
   XY=             -5.3927   XZ=              0.0000   YZ=              0.0000

 MP4DQ=-33.8931765\MP4SDQ=-33.8952233\CCSD=-33.8962633\CCSD(T)=-33.8988
 Normal termination of Gaussian 16 at Sun Dec 10 07:06:58 2023.
