 Gaussian 16, Revision A.03,
 Gaussian 16:  ES64L-G16RevA.03 25-Dec-2016

 ------------------
 #p CCSD(T)/CEP-31G
 ------------------

 ------------
 H2O_H2O_3896
 ------------
 Symbolic Z-matrix:
 Charge =  0 Multiplicity = 1

                         Standard orientation:
 ---------------------------------------------------------------------
 Center     Atomic      Atomic             Coordinates (Angstroms)
 Number     Number       Type             X           Y           Z
 ---------------------------------------------------------------------
      1          8           0        0.056093   -2.814635    0.000000
      2          1           0       -0.744439   -3.384418    0.000000
      3          1           0        0.854700   -3.387114    0.000000
      4          8           0        0.056093    2.906388    0.000000
      5          1           0       -0.346565    3.802698    0.000000
      6          1           0       -0.661187    2.234811    0.000000
 ---------------------------------------------------------------------

 SCF Done:  E(RHF) =  -33.6518787311     A.U. after   11 cycles
 E2 =    -0.2283893910D+00 EUMP2 =    -0.33880268122120D+02
 CCSD(T)
 CCSD(T)= -0.33897265507D+02

 The electronic state is 1-A'.
 Alpha  occ. eigenvalues --   -1.35615  -1.34774  -0.71248  -0.70390  -0.55356
 Alpha  occ. eigenvalues --   -0.54502  -0.50188  -0.49347
 Alpha virt. eigenvalues --    0.20159   0.21030   0.30402   0.31258   0.80365
 Alpha virt. eigenvalues --    0.81190   0.83370   0.84234   0.86495   0.87418
 Alpha virt. eigenvalues --    1.17291   1.18126   1.21748   1.22603   2.57303

 Mulliken charges:
               1
     1  O   -0.741467
     2  H    0.368933
     3  H    0.372535
     4  O   -0.741083
     5  H    0.366510
     6  H    0.374572
 Sum of Mulliken charges =  -0.00000

 Dipole moment (field-independent basis, Debye):
    X=             -2.5857    Y=             -2.1545    Z=              0.0000  Tot=              3.3657
 Quadrupole moment (field-independent basis, Debye-Ang):
   XX=            -10.0812   YY=              7.7940   ZZ=            -14.9891
   XY=             -7.3353   XZ=              0.0000   YZ=              0.0000

 MP4DQ=-33.8916219\MP4SDQ=-33.8936495\CCSD=-33.8947042\CCSD(T)=-33.8972
 Normal termination of Gaussian 16 at Sun Dec 10 06:50:11 2023.
