 Gaussian 16, Revision A.03,
 Gaussian 16:  ES64L-G16RevA.03 25-Dec-2016

 ------------------
 #p CCSD(T)/CEP-31G
 ------------------

 ------------
 H2O_H2O_3011
 ------------
 Symbolic Z-matrix:
 Charge =  0 Multiplicity = 1

                         Standard orientation:
 ---------------------------------------------------------------------
 Center     Atomic      Atomic             Coordinates (Angstroms)
 Number     Number       Type             X           Y           Z
 ---------------------------------------------------------------------
      1          8           0        0.037677   -2.383768    0.000000
      2          1           0       -0.762666   -2.953818    0.000000
      3          1           0        0.836475   -2.955980    0.000000
      4          8           0        0.037677    2.412013    0.000000
      5          1           0        0.263545    3.368302    0.000000
      6          1           0       -0.940179    2.315539    0.000000
 ---------------------------------------------------------------------

 SCF Done:  E(RHF) =  -33.6499413378     A.U. after   11 cycles
 E2 =    -0.2285089340D+00 EUMP2 =    -0.33878450271777D+02
 CCSD(T)
 CCSD(T)= -0.33895504315D+02

 The electronic state is 1-A'.
 Alpha  occ. eigenvalues --   -1.34892  -1.34517  -0.70519  -0.70129  -0.54523
 Alpha  occ. eigenvalues --   -0.54143  -0.49436  -0.49062
 Alpha virt. eigenvalues --    0.20746   0.21188   0.31009   0.31372   0.81107
 Alpha virt. eigenvalues --    0.81492   0.83507   0.85284   0.87356   0.88091
 Alpha virt. eigenvalues --    1.17932   1.18303   1.22405   1.22780   2.57994

 Mulliken charges:
               1
     1  O   -0.734709
     2  H    0.365264
     3  H    0.369450
     4  O   -0.733794
     5  H    0.363821
     6  H    0.369968
 Sum of Mulliken charges =   0.00000

 Dipole moment (field-independent basis, Debye):
    X=             -1.7310    Y=             -0.6690    Z=              0.0000  Tot=              1.8558
 Quadrupole moment (field-independent basis, Debye-Ang):
   XX=             -8.9680   YY=             10.9970   ZZ=            -14.9865
   XY=             -3.3674   XZ=              0.0000   YZ=              0.0000

 \MP4DQ=-33.8898448\MP4SDQ=-33.8918782\CCSD=-33.8929356\CCSD(T)=-33.895
 Normal termination of Gaussian 16 at Sun Dec 10 06:34:09 2023.
