 Gaussian 16, Revision A.03,
 Gaussian 16:  ES64L-G16RevA.03 25-Dec-2016

 ------------------
 #p CCSD(T)/CEP-31G
 ------------------

 ------------
 H2O_H2O_4769
 ------------
 Symbolic Z-matrix:
 Charge =  0 Multiplicity = 1

                         Standard orientation:
 ---------------------------------------------------------------------
 Center     Atomic      Atomic             Coordinates (Angstroms)
 Number     Number       Type             X           Y           Z
 ---------------------------------------------------------------------
      1          8           0        0.054136   -3.287810    0.000000
      2          1           0       -0.746233   -3.857822    0.000000
      3          1           0        0.852907   -3.860060    0.000000
      4          8           0        0.054136    3.365168    0.000000
      5          1           0       -0.228356    4.306287    0.000000
      6          1           0       -0.744501    2.792731    0.000000
 ---------------------------------------------------------------------

 SCF Done:  E(RHF) =  -33.6516758222     A.U. after   11 cycles
 E2 =    -0.2283893755D+00 EUMP2 =    -0.33880065197732D+02
 CCSD(T)
 CCSD(T)= -0.33897068638D+02

 The electronic state is 1-A'.
 Alpha  occ. eigenvalues --   -1.35525  -1.35008  -0.71157  -0.70631  -0.55253
 Alpha  occ. eigenvalues --   -0.54731  -0.50095  -0.49578
 Alpha virt. eigenvalues --    0.20240   0.20770   0.30479   0.31002   0.80457
 Alpha virt. eigenvalues --    0.80968   0.83492   0.84013   0.86600   0.87162
 Alpha virt. eigenvalues --    1.17372   1.17887   1.21831   1.22353   2.57391

 Mulliken charges:
               1
     1  O   -0.740728
     2  H    0.369204
     3  H    0.371524
     4  O   -0.740494
     5  H    0.367871
     6  H    0.372623
 Sum of Mulliken charges =  -0.00000

 Dipole moment (field-independent basis, Debye):
    X=             -2.4996    Y=             -1.8070    Z=              0.0000  Tot=              3.0844
 Quadrupole moment (field-independent basis, Debye-Ang):
   XX=             -9.9428   YY=             12.9307   ZZ=            -14.9885
   XY=             -7.9829   XZ=              0.0000   YZ=              0.0000

 MP4DQ=-33.8914237\MP4SDQ=-33.8934516\CCSD=-33.8945072\CCSD(T)=-33.8970
 Normal termination of Gaussian 16 at Sun Dec 10 07:07:33 2023.
