 Gaussian 16, Revision A.03,
 Gaussian 16:  ES64L-G16RevA.03 25-Dec-2016

 ------------------
 #p CCSD(T)/CEP-31G
 ------------------

 ------------
 H2O_H2O_4257
 ------------
 Symbolic Z-matrix:
 Charge =  0 Multiplicity = 1

                         Standard orientation:
 ---------------------------------------------------------------------
 Center     Atomic      Atomic             Coordinates (Angstroms)
 Number     Number       Type             X           Y           Z
 ---------------------------------------------------------------------
      1          8           0        0.025265   -3.057525    0.000000
      2          1           0       -0.774711   -3.628090    0.000000
      3          1           0        0.824430   -3.629225    0.000000
      4          8           0        0.025265    3.069269    0.000000
      5          1           0        0.490387    3.934813    0.000000
      6          1           0       -0.944341    3.228549    0.000000
 ---------------------------------------------------------------------

 SCF Done:  E(RHF) =  -33.6506543514     A.U. after   11 cycles
 E2 =    -0.2284417512D+00 EUMP2 =    -0.33879096102619D+02
 CCSD(T)
 CCSD(T)= -0.33896129085D+02

 The electronic state is 1-A'.
 Alpha  occ. eigenvalues --   -1.35038  -1.34944  -0.70666  -0.70569  -0.54709
 Alpha  occ. eigenvalues --   -0.54615  -0.49592  -0.49498
 Alpha virt. eigenvalues --    0.20671   0.20766   0.30903   0.30995   0.80961
 Alpha virt. eigenvalues --    0.81054   0.84094   0.84191   0.87165   0.87277
 Alpha virt. eigenvalues --    1.17815   1.17908   1.22283   1.22376   2.57860

 Mulliken charges:
               1
     1  O   -0.737092
     2  H    0.367827
     3  H    0.369265
     4  O   -0.736945
     5  H    0.367430
     6  H    0.369516
 Sum of Mulliken charges =  -0.00000

 Dipole moment (field-independent basis, Debye):
    X=             -1.1658    Y=             -0.2749    Z=              0.0000  Tot=              1.1978
 Quadrupole moment (field-independent basis, Debye-Ang):
   XX=             -8.4534   YY=             19.1850   ZZ=            -14.9869
   XY=             -2.8851   XZ=              0.0000   YZ=              0.0000

 MP4DQ=-33.8904761\MP4SDQ=-33.8925068\CCSD=-33.8935643\CCSD(T)=-33.8961
 Normal termination of Gaussian 16 at Sun Dec 10 06:56:43 2023.
