 Gaussian 16, Revision A.03,
 Gaussian 16:  ES64L-G16RevA.03 25-Dec-2016

 ------------------
 #p CCSD(T)/CEP-31G
 ------------------

 -----------
 H2O_H2O_663
 -----------
 Symbolic Z-matrix:
 Charge =  0 Multiplicity = 1

                         Standard orientation:
 ---------------------------------------------------------------------
 Center     Atomic      Atomic             Coordinates (Angstroms)
 Number     Number       Type             X           Y           Z
 ---------------------------------------------------------------------
      1          8           0        0.043002   -1.128306    0.000000
      2          1           0       -0.758404   -1.696860    0.000000
      3          1           0        0.840730   -1.702011    0.000000
      4          8           0        0.043002    1.166941    0.000000
      5          1           0        0.143945    2.144344    0.000000
      6          1           0       -0.914310    0.945447    0.000000
 ---------------------------------------------------------------------

 SCF Done:  E(RHF) =  -33.6291665223     A.U. after   11 cycles
 E2 =    -0.2307615742D+00 EUMP2 =    -0.33859928096487D+02
 CCSD(T)
 CCSD(T)= -0.33877294980D+02

 The electronic state is 1-A'.
 Alpha  occ. eigenvalues --   -1.33975  -1.31591  -0.69577  -0.67636  -0.55363
 Alpha  occ. eigenvalues --   -0.48690  -0.47910  -0.45742
 Alpha virt. eigenvalues --    0.20430   0.25656   0.31754   0.33189   0.78840
 Alpha virt. eigenvalues --    0.83407   0.89369   0.93568   0.98244   1.14434
 Alpha virt. eigenvalues --    1.19018   1.22413   1.24023   1.30862   2.55794

 Mulliken charges:
               1
     1  O   -0.737526
     2  H    0.347837
     3  H    0.378088
     4  O   -0.685347
     5  H    0.341055
     6  H    0.355892
 Sum of Mulliken charges =  -0.00000

 Dipole moment (field-independent basis, Debye):
    X=             -1.7900    Y=             -0.9466    Z=              0.0000  Tot=              2.0248
 Quadrupole moment (field-independent basis, Debye-Ang):
   XX=             -9.3325   YY=             -2.1988   ZZ=            -14.9963
   XY=             -1.6369   XZ=              0.0000   YZ=              0.0000

 MP4DQ=-33.8712705\MP4SDQ=-33.8734614\CCSD=-33.8745122\CCSD(T)=-33.8772
 Normal termination of Gaussian 16 at Sun Dec 10 06:37:08 2023.
