 Gaussian 16, Revision A.03,
 Gaussian 16:  ES64L-G16RevA.03 25-Dec-2016

 ------------------
 #p CCSD(T)/CEP-31G
 ------------------

 ------------
 H2O_H2O_4004
 ------------
 Symbolic Z-matrix:
 Charge =  0 Multiplicity = 1

                         Standard orientation:
 ---------------------------------------------------------------------
 Center     Atomic      Atomic             Coordinates (Angstroms)
 Number     Number       Type             X           Y           Z
 ---------------------------------------------------------------------
      1          8           0        0.014783   -2.928838    0.000000
      2          1           0       -0.785036   -3.499622    0.000000
      3          1           0        0.814106   -3.500317    0.000000
      4          8           0        0.014783    2.932717    0.000000
      5          1           0        0.639619    3.691061    0.000000
      6          1           0       -0.905214    3.277843    0.000000
 ---------------------------------------------------------------------

 SCF Done:  E(RHF) =  -33.6503534398     A.U. after   11 cycles
 E2 =    -0.2284572302D+00 EUMP2 =    -0.33878810669999D+02
 CCSD(T)
 CCSD(T)= -0.33895852281D+02

 The electronic state is 1-A'.
 Alpha  occ. eigenvalues --   -1.34923  -1.34889  -0.70550  -0.70515  -0.54577
 Alpha  occ. eigenvalues --   -0.54543  -0.49473  -0.49439
 Alpha virt. eigenvalues --    0.20769   0.20804   0.31000   0.31033   0.81081
 Alpha virt. eigenvalues --    0.81115   0.84217   0.84312   0.87301   0.87343
 Alpha virt. eigenvalues --    1.17918   1.17951   1.22388   1.22421   2.57969

 Mulliken charges:
               1
     1  O   -0.736034
     2  H    0.367540
     3  H    0.368495
     4  O   -0.735970
     5  H    0.367325
     6  H    0.368645
 Sum of Mulliken charges =   0.00000

 Dipole moment (field-independent basis, Debye):
    X=             -0.6818    Y=             -0.0910    Z=              0.0000  Tot=              0.6878
 Quadrupole moment (field-independent basis, Debye-Ang):
   XX=             -8.1844   YY=             18.6682   ZZ=            -14.9865
   XY=             -1.5616   XZ=              0.0000   YZ=              0.0000

 \MP4DQ=-33.8901969\MP4SDQ=-33.8922284\CCSD=-33.8932864\CCSD(T)=-33.895
 Normal termination of Gaussian 16 at Sun Dec 10 06:52:10 2023.
