 Gaussian 16, Revision A.03,
 Gaussian 16:  ES64L-G16RevA.03 25-Dec-2016

 ------------------
 #p CCSD(T)/CEP-31G
 ------------------

 -----------
 H2O_H2O_632
 -----------
 Symbolic Z-matrix:
 Charge =  0 Multiplicity = 1

                         Standard orientation:
 ---------------------------------------------------------------------
 Center     Atomic      Atomic             Coordinates (Angstroms)
 Number     Number       Type             X           Y           Z
 ---------------------------------------------------------------------
      1          8           0        0.025272   -1.129650    0.000000
      2          1           0       -0.775391   -1.699250    0.000000
      3          1           0        0.823748   -1.702312    0.000000
      4          8           0        0.025272    1.141333    0.000000
      5          1           0        0.491437    2.006316    0.000000
      6          1           0       -0.944142    1.301781    0.000000
 ---------------------------------------------------------------------

 SCF Done:  E(RHF) =  -33.6219774857     A.U. after   11 cycles
 E2 =    -0.2307645283D+00 EUMP2 =    -0.33852742014068D+02
 CCSD(T)
 CCSD(T)= -0.33870119739D+02

 The electronic state is 1-A'.
 Alpha  occ. eigenvalues --   -1.33013  -1.31490  -0.68476  -0.67300  -0.56006
 Alpha  occ. eigenvalues --   -0.47830  -0.45897  -0.45382
 Alpha virt. eigenvalues --    0.21210   0.25123   0.32572   0.33066   0.79613
 Alpha virt. eigenvalues --    0.80025   0.89692   0.95294   1.01252   1.13422
 Alpha virt. eigenvalues --    1.19731   1.22995   1.24587   1.27607   2.52415

 Mulliken charges:
               1
     1  O   -0.711893
     2  H    0.343417
     3  H    0.363342
     4  O   -0.691597
     5  H    0.348901
     6  H    0.347830
 Sum of Mulliken charges =   0.00000

 Dipole moment (field-independent basis, Debye):
    X=             -1.0415    Y=             -0.2774    Z=              0.0000  Tot=              1.0779
 Quadrupole moment (field-independent basis, Debye-Ang):
   XX=             -8.6546   YY=             -1.7490   ZZ=            -15.0035
   XY=             -0.7550   XZ=              0.0000   YZ=              0.0000

 4DQ=-33.8640965\MP4SDQ=-33.8662585\CCSD=-33.8673277\CCSD(T)=-33.870119
 Normal termination of Gaussian 16 at Sun Dec 10 06:36:33 2023.
