 Gaussian 16, Revision A.03,
 Gaussian 16:  ES64L-G16RevA.03 25-Dec-2016

 ------------------
 #p CCSD(T)/CEP-31G
 ------------------

 -----------
 H2O_H2O_584
 -----------
 Symbolic Z-matrix:
 Charge =  0 Multiplicity = 1

                         Standard orientation:
 ---------------------------------------------------------------------
 Center     Atomic      Atomic             Coordinates (Angstroms)
 Number     Number       Type             X           Y           Z
 ---------------------------------------------------------------------
      1          8           0        0.031754   -1.099032    0.000000
      2          1           0       -0.769222   -1.668192    0.000000
      3          1           0        0.829915   -1.672133    0.000000
      4          8           0        0.031754    1.118126    0.000000
      5          1           0        0.381533    2.036364    0.000000
      6          1           0       -0.950290    1.151207    0.000000
 ---------------------------------------------------------------------

 SCF Done:  E(RHF) =  -33.6200860723     A.U. after   11 cycles
 E2 =    -0.2310044307D+00 EUMP2 =    -0.33851090502935D+02
 CCSD(T)
 CCSD(T)= -0.33868454336D+02

 The electronic state is 1-A'.
 Alpha  occ. eigenvalues --   -1.33301  -1.31361  -0.68782  -0.67291  -0.56227
 Alpha  occ. eigenvalues --   -0.48125  -0.45743  -0.45275
 Alpha virt. eigenvalues --    0.20983   0.25488   0.32358   0.33099   0.79573
 Alpha virt. eigenvalues --    0.81209   0.89780   0.96024   1.00504   1.13836
 Alpha virt. eigenvalues --    1.19545   1.23016   1.24698   1.29226   2.52282

 Mulliken charges:
               1
     1  O   -0.721486
     2  H    0.343592
     3  H    0.369095
     4  O   -0.686706
     5  H    0.347526
     6  H    0.347979
 Sum of Mulliken charges =   0.00000

 Dipole moment (field-independent basis, Debye):
    X=             -1.2993    Y=             -0.4556    Z=              0.0000  Tot=              1.3768
 Quadrupole moment (field-independent basis, Debye-Ang):
   XX=             -8.8735   YY=             -2.2711   ZZ=            -15.0029
   XY=             -0.9832   XZ=              0.0000   YZ=              0.0000

 P4DQ=-33.8623976\MP4SDQ=-33.8645859\CCSD=-33.8656415\CCSD(T)=-33.86845
 Normal termination of Gaussian 16 at Sun Dec 10 06:35:40 2023.
