 Gaussian 16, Revision A.03,
 Gaussian 16:  ES64L-G16RevA.03 25-Dec-2016

 ------------------
 #p CCSD(T)/CEP-31G
 ------------------

 -----------
 H2O_H2O_336
 -----------
 Symbolic Z-matrix:
 Charge =  0 Multiplicity = 1

                         Standard orientation:
 ---------------------------------------------------------------------
 Center     Atomic      Atomic             Coordinates (Angstroms)
 Number     Number       Type             X           Y           Z
 ---------------------------------------------------------------------
      1          8           0        0.037704   -0.961183    0.000000
      2          1           0       -0.763761   -1.529654    0.000000
      3          1           0        0.835373   -1.534969    0.000000
      4          8           0        0.037704    0.989279    0.000000
      5          1           0        0.265459    1.945121    0.000000
      6          1           0       -0.940339    0.894735    0.000000
 ---------------------------------------------------------------------

 SCF Done:  E(RHF) =  -33.5898843537     A.U. after   11 cycles
 E2 =    -0.2328017055D+00 EUMP2 =    -0.33822686059202D+02
 CCSD(T)
 CCSD(T)= -0.33839885750D+02

 The electronic state is 1-A'.
 Alpha  occ. eigenvalues --   -1.34504  -1.30359  -0.69926  -0.67322  -0.57842
 Alpha  occ. eigenvalues --   -0.49327  -0.44192  -0.42333
 Alpha virt. eigenvalues --    0.20674   0.26941   0.31876   0.33370   0.80415
 Alpha virt. eigenvalues --    0.83540   0.89991   0.97138   0.99067   1.18081
 Alpha virt. eigenvalues --    1.19450   1.24584   1.26076   1.31647   2.51623

 Mulliken charges:
               1
     1  O   -0.741514
     2  H    0.342733
     3  H    0.380801
     4  O   -0.670372
     5  H    0.343042
     6  H    0.345310
 Sum of Mulliken charges =   0.00000

 Dipole moment (field-independent basis, Debye):
    X=             -1.4604    Y=             -0.6802    Z=              0.0000  Tot=              1.6111
 Quadrupole moment (field-independent basis, Debye-Ang):
   XX=             -9.1454   YY=             -4.5384   ZZ=            -15.0022
   XY=             -1.0669   XZ=              0.0000   YZ=              0.0000

 MP4DQ=-33.8335956\MP4SDQ=-33.8359397\CCSD=-33.8368869\CCSD(T)=-33.8398
 Normal termination of Gaussian 16 at Sun Dec 10 06:31:03 2023.
