 Gaussian 16, Revision A.03,
 Gaussian 16:  ES64L-G16RevA.03 25-Dec-2016

 ------------------
 #p CCSD(T)/CEP-31G
 ------------------

 ------------
 H2O_H2O_1759
 ------------
 Symbolic Z-matrix:
 Charge =  0 Multiplicity = 1

                         Standard orientation:
 ---------------------------------------------------------------------
 Center     Atomic      Atomic             Coordinates (Angstroms)
 Number     Number       Type             X           Y           Z
 ---------------------------------------------------------------------
      1          8           0        0.031746   -1.723911    0.000000
      2          1           0       -0.768724   -2.293782    0.000000
      3          1           0        0.830416   -2.296302    0.000000
      4          8           0        0.031746    1.743061    0.000000
      5          1           0        0.380708    2.661610    0.000000
      6          1           0       -0.950328    1.775270    0.000000
 ---------------------------------------------------------------------

 SCF Done:  E(RHF) =  -33.6461944695     A.U. after   11 cycles
 E2 =    -0.2289055220D+00 EUMP2 =    -0.33875099991490D+02
 CCSD(T)
 CCSD(T)= -0.33892289686D+02

 The electronic state is 1-A'.
 Alpha  occ. eigenvalues --   -1.34144  -1.33645  -0.69768  -0.69238  -0.53876
 Alpha  occ. eigenvalues --   -0.52716  -0.48655  -0.48127
 Alpha virt. eigenvalues --    0.20767   0.22399   0.31576   0.32028   0.76080
 Alpha virt. eigenvalues --    0.80624   0.83697   0.85215   0.90546   1.02693
 Alpha virt. eigenvalues --    1.18528   1.19248   1.23095   1.23590   2.58238

 Mulliken charges:
               1
     1  O   -0.722733
     2  H    0.357221
     3  H    0.365667
     4  O   -0.719798
     5  H    0.354634
     6  H    0.365009
 Sum of Mulliken charges =   0.00000

 Dipole moment (field-independent basis, Debye):
    X=             -1.4371    Y=             -0.4726    Z=              0.0000  Tot=              1.5128
 Quadrupole moment (field-independent basis, Debye-Ang):
   XX=             -8.7471   YY=              5.0827   ZZ=            -14.9847
   XY=             -1.8216   XZ=              0.0000   YZ=              0.0000

 4DQ=-33.8865611\MP4SDQ=-33.8886302\CCSD=-33.8896866\CCSD(T)=-33.892289
 Normal termination of Gaussian 16 at Sun Dec 10 06:57:34 2023.
