 Gaussian 16, Revision A.03,
 Gaussian 16:  ES64L-G16RevA.03 25-Dec-2016

 ------------------
 #p CCSD(T)/CEP-31G
 ------------------

 -----------
 H2O_H2O_691
 -----------
 Symbolic Z-matrix:
 Charge =  0 Multiplicity = 1

                         Standard orientation:
 ---------------------------------------------------------------------
 Center     Atomic      Atomic             Coordinates (Angstroms)
 Number     Number       Type             X           Y           Z
 ---------------------------------------------------------------------
      1          8           0        0.049566   -1.131763    0.000000
      2          1           0       -0.752096   -1.699956    0.000000
      3          1           0        0.847035   -1.705826    0.000000
      4          8           0        0.049566    1.188513    0.000000
      5          1           0       -0.041673    2.166869    0.000000
      6          1           0       -0.846321    0.784915    0.000000
 ---------------------------------------------------------------------

 SCF Done:  E(RHF) =  -33.6333894072     A.U. after   11 cycles
 E2 =    -0.2307546796D+00 EUMP2 =    -0.33864144086764D+02
 CCSD(T)
 CCSD(T)= -0.33881429433D+02

 The electronic state is 1-A'.
 Alpha  occ. eigenvalues --   -1.34745  -1.31511  -0.70411  -0.67836  -0.54868
 Alpha  occ. eigenvalues --   -0.49389  -0.49216  -0.45821
 Alpha virt. eigenvalues --    0.19974   0.26067   0.31138   0.33630   0.78275
 Alpha virt. eigenvalues --    0.84205   0.89174   0.94291   0.95674   1.14880
 Alpha virt. eigenvalues --    1.18936   1.21872   1.23935   1.31134   2.60054

 Mulliken charges:
               1
     1  O   -0.750387
     2  H    0.352326
     3  H    0.386697
     4  O   -0.689017
     5  H    0.335480
     6  H    0.364900
 Sum of Mulliken charges =  -0.00000

 Dipole moment (field-independent basis, Debye):
    X=             -2.0718    Y=             -1.4208    Z=              0.0000  Tot=              2.5122
 Quadrupole moment (field-independent basis, Debye-Ang):
   XX=             -9.6666   YY=             -2.6312   ZZ=            -14.9960
   XY=             -2.1592   XZ=              0.0000   YZ=              0.0000

 \MP4DQ=-33.875406\MP4SDQ=-33.8776081\CCSD=-33.8786384\CCSD(T)=-33.8814
 Normal termination of Gaussian 16 at Sun Dec 10 06:37:39 2023.
