 Gaussian 16, Revision A.03,
 Gaussian 16:  ES64L-G16RevA.03 25-Dec-2016

 ------------------
 #p CCSD(T)/CEP-31G
 ------------------

 -----------
 H2O_H2O_816
 -----------
 Symbolic Z-matrix:
 Charge =  0 Multiplicity = 1

                         Standard orientation:
 ---------------------------------------------------------------------
 Center     Atomic      Atomic             Coordinates (Angstroms)
 Number     Number       Type             X           Y           Z
 ---------------------------------------------------------------------
      1          8           0        0.049560   -1.198233    0.000000
      2          1           0       -0.751988   -1.766586    0.000000
      3          1           0        0.847144   -1.772137    0.000000
      4          8           0        0.049560    1.255002    0.000000
      5          1           0       -0.041873    2.233340    0.000000
      6          1           0       -0.846247    0.851225    0.000000
 ---------------------------------------------------------------------

 SCF Done:  E(RHF) =  -33.6390772167     A.U. after   11 cycles
 E2 =    -0.2303302331D+00 EUMP2 =    -0.33869407449838D+02
 CCSD(T)
 CCSD(T)= -0.33886703248D+02

 The electronic state is 1-A'.
 Alpha  occ. eigenvalues --   -1.34685  -1.31838  -0.70339  -0.67840  -0.54758
 Alpha  occ. eigenvalues --   -0.50088  -0.49299  -0.46214
 Alpha virt. eigenvalues --    0.19968   0.25587   0.31145   0.33479   0.78154
 Alpha virt. eigenvalues --    0.83698   0.88578   0.90595   0.94523   1.15809
 Alpha virt. eigenvalues --    1.19054   1.21822   1.23229   1.30403   2.61086

 Mulliken charges:
               1
     1  O   -0.743890
     2  H    0.352830
     3  H    0.383476
     4  O   -0.697429
     5  H    0.337795
     6  H    0.367218
 Sum of Mulliken charges =   0.00000

 Dipole moment (field-independent basis, Debye):
    X=             -2.1089    Y=             -1.4249    Z=              0.0000  Tot=              2.5451
 Quadrupole moment (field-independent basis, Debye-Ang):
   XX=             -9.6598   YY=             -1.8801   ZZ=            -14.9947
   XY=             -2.3075   XZ=              0.0000   YZ=              0.0000

 \MP4DQ=-33.8807433\MP4SDQ=-33.8829166\CCSD=-33.8839614\CCSD(T)=-33.886
 Normal termination of Gaussian 16 at Sun Dec 10 06:40:00 2023.
