 Gaussian 16, Revision A.03,
 Gaussian 16:  ES64L-G16RevA.03 25-Dec-2016

 ------------------
 #p CCSD(T)/CEP-31G
 ------------------

 ------------
 H2O_H2O_3486
 ------------
 Symbolic Z-matrix:
 Charge =  0 Multiplicity = 1

                         Standard orientation:
 ---------------------------------------------------------------------
 Center     Atomic      Atomic             Coordinates (Angstroms)
 Number     Number       Type             X           Y           Z
 ---------------------------------------------------------------------
      1          8           0        0.037675   -2.636385    0.000000
      2          1           0       -0.762594   -3.206539    0.000000
      3          1           0        0.836547   -3.208494    0.000000
      4          8           0        0.037675    2.664639    0.000000
      5          1           0        0.263420    3.620958    0.000000
      6          1           0       -0.940168    2.568041    0.000000
 ---------------------------------------------------------------------

 SCF Done:  E(RHF) =  -33.6504147497     A.U. after   11 cycles
 E2 =    -0.2284688640D+00 EUMP2 =    -0.33878883613692D+02
 CCSD(T)
 CCSD(T)= -0.33895923637D+02

 The electronic state is 1-A'.
 Alpha  occ. eigenvalues --   -1.35014  -1.34709  -0.70642  -0.70326  -0.54671
 Alpha  occ. eigenvalues --   -0.54365  -0.49565  -0.49261
 Alpha virt. eigenvalues --    0.20678   0.20995   0.30914   0.31211   0.80988
 Alpha virt. eigenvalues --    0.81288   0.84019   0.84563   0.87202   0.87592
 Alpha virt. eigenvalues --    1.17830   1.18131   1.22299   1.22602   2.57879

 Mulliken charges:
               1
     1  O   -0.736309
     2  H    0.366565
     3  H    0.369745
     4  O   -0.735734
     5  H    0.365464
     6  H    0.370270
 Sum of Mulliken charges =  -0.00000

 Dipole moment (field-independent basis, Debye):
    X=             -1.7347    Y=             -0.6653    Z=              0.0000  Tot=              1.8579
 Quadrupole moment (field-independent basis, Debye-Ang):
   XX=             -8.9636   YY=             13.3881   ZZ=            -14.9868
   XY=             -3.7963   XZ=              0.0000   YZ=              0.0000

 \MP4DQ=-33.8902685\MP4SDQ=-33.8923001\CCSD=-33.8933574\CCSD(T)=-33.895
 Normal termination of Gaussian 16 at Sun Dec 10 06:42:38 2023.
