 Gaussian 16, Revision A.03,
 Gaussian 16:  ES64L-G16RevA.03 25-Dec-2016

 ------------------
 #p CCSD(T)/CEP-31G
 ------------------

 ------------
 H2O_H2O_2259
 ------------
 Symbolic Z-matrix:
 Charge =  0 Multiplicity = 1

                         Standard orientation:
 ---------------------------------------------------------------------
 Center     Atomic      Atomic             Coordinates (Angstroms)
 Number     Number       Type             X           Y           Z
 ---------------------------------------------------------------------
      1          8           0        0.031744   -1.989822    0.000000
      2          1           0       -0.768607   -2.559861    0.000000
      3          1           0        0.830534   -2.562046    0.000000
      4          8           0        0.031744    2.008986    0.000000
      5          1           0        0.380514    2.927607    0.000000
      6          1           0       -0.950337    2.040989    0.000000
 ---------------------------------------------------------------------

 SCF Done:  E(RHF) =  -33.6481745393     A.U. after   11 cycles
 E2 =    -0.2286701759D+00 EUMP2 =    -0.33876844715244D+02
 CCSD(T)
 CCSD(T)= -0.33893953327D+02

 The electronic state is 1-A'.
 Alpha  occ. eigenvalues --   -1.34466  -1.34093  -0.70090  -0.69698  -0.54064
 Alpha  occ. eigenvalues --   -0.53530  -0.48987  -0.48614
 Alpha virt. eigenvalues --    0.20834   0.21737   0.31342   0.31688   0.79616
 Alpha virt. eigenvalues --    0.81205   0.82284   0.86371   0.88363   0.93284
 Alpha virt. eigenvalues --    1.18286   1.18676   1.22784   1.23167   2.58177

 Mulliken charges:
               1
     1  O   -0.728708
     2  H    0.361498
     3  H    0.367284
     4  O   -0.727176
     5  H    0.359740
     6  H    0.367362
 Sum of Mulliken charges =  -0.00000

 Dipole moment (field-independent basis, Debye):
    X=             -1.4494    Y=             -0.4626    Z=              0.0000  Tot=              1.5215
 Quadrupole moment (field-independent basis, Debye-Ang):
   XX=             -8.7230   YY=              7.7973   ZZ=            -14.9852
   XY=             -2.1855   XZ=              0.0000   YZ=              0.0000

 \MP4DQ=-33.8882705\MP4SDQ=-33.8903155\CCSD=-33.891372\CCSD(T)=-33.8939
 Normal termination of Gaussian 16 at Sun Dec 10 07:08:03 2023.
