 Gaussian 16, Revision A.03,
 Gaussian 16:  ES64L-G16RevA.03 25-Dec-2016

 ------------------
 #p CCSD(T)/CEP-31G
 ------------------

 -----------
 H2O_H2O_601
 -----------
 Symbolic Z-matrix:
 Charge =  0 Multiplicity = 1

                         Standard orientation:
 ---------------------------------------------------------------------
 Center     Atomic      Atomic             Coordinates (Angstroms)
 Number     Number       Type             X           Y           Z
 ---------------------------------------------------------------------
      1          8           0        0.003735   -1.122569    0.000000
      2          1           0       -0.795999   -1.693472    0.000000
      3          1           0        0.803143   -1.693930    0.000000
      4          8           0        0.003735    1.122812    0.000000
      5          1           0        0.764420    1.744797    0.000000
      6          1           0       -0.831329    1.640665    0.000000
 ---------------------------------------------------------------------

 SCF Done:  E(RHF) =  -33.6171235663     A.U. after   11 cycles
 E2 =    -0.2309100109D+00 EUMP2 =    -0.33848033577239D+02
 CCSD(T)
 CCSD(T)= -0.33865374336D+02

 The electronic state is 1-A'.
 Alpha  occ. eigenvalues --   -1.32712  -1.31266  -0.68089  -0.67041  -0.56362
 Alpha  occ. eigenvalues --   -0.47550  -0.45061  -0.44794
 Alpha virt. eigenvalues --    0.21591   0.25022   0.32891   0.33214   0.78253
 Alpha virt. eigenvalues --    0.79973   0.89904   0.97674   1.00732   1.15224
 Alpha virt. eigenvalues --    1.19984   1.22378   1.23692   1.26515   2.51560

 Mulliken charges:
               1
     1  O   -0.697853
     2  H    0.347247
     3  H    0.350484
     4  O   -0.697386
     5  H    0.349152
     6  H    0.348356
 Sum of Mulliken charges =  -0.00000

 Dipole moment (field-independent basis, Debye):
    X=             -0.1524    Y=             -0.0057    Z=              0.0000  Tot=              0.1525
 Quadrupole moment (field-independent basis, Debye-Ang):
   XX=             -8.2966   YY=             -1.7958   ZZ=            -15.0103
   XY=             -0.0963   XZ=              0.0000   YZ=              0.0000

 MP4DQ=-33.8593396\MP4SDQ=-33.8614907\CCSD=-33.8625575\CCSD(T)=-33.8653
 Normal termination of Gaussian 16 at Sun Dec 10 06:35:59 2023.
