 Gaussian 16, Revision A.03,
 Gaussian 16:  ES64L-G16RevA.03 25-Dec-2016

 ------------------
 #p CCSD(T)/CEP-31G
 ------------------

 ------------
 H2O_H2O_3494
 ------------
 Symbolic Z-matrix:
 Charge =  0 Multiplicity = 1

                         Standard orientation:
 ---------------------------------------------------------------------
 Center     Atomic      Atomic             Coordinates (Angstroms)
 Number     Number       Type             X           Y           Z
 ---------------------------------------------------------------------
      1          8           0        0.054150   -2.609738    0.000000
      2          1           0       -0.746423   -3.179464    0.000000
      3          1           0        0.852716   -3.182275    0.000000
      4          8           0        0.054150    2.687058    0.000000
      5          1           0       -0.228005    3.628278    0.000000
      6          1           0       -0.744693    2.114907    0.000000
 ---------------------------------------------------------------------

 SCF Done:  E(RHF) =  -33.6515773724     A.U. after   11 cycles
 E2 =    -0.2284159924D+00 EUMP2 =    -0.33879993364744D+02
 CCSD(T)
 CCSD(T)= -0.33896999639D+02

 The electronic state is 1-A'.
 Alpha  occ. eigenvalues --   -1.35486  -1.34650  -0.71119  -0.70260  -0.55211
 Alpha  occ. eigenvalues --   -0.54362  -0.50054  -0.49219
 Alpha virt. eigenvalues --    0.20262   0.21144   0.30511   0.31356   0.80499
 Alpha virt. eigenvalues --    0.81318   0.83486   0.84423   0.86644   0.87606
 Alpha virt. eigenvalues --    1.17407   1.18238   1.21865   1.22718   2.57422

 Mulliken charges:
               1
     1  O   -0.740420
     2  H    0.368009
     3  H    0.372415
     4  O   -0.739718
     5  H    0.365387
     6  H    0.374327
 Sum of Mulliken charges =   0.00000

 Dipole moment (field-independent basis, Debye):
    X=             -2.4934    Y=             -1.8219    Z=              0.0000  Tot=              3.0881
 Quadrupole moment (field-independent basis, Debye-Ang):
   XX=             -9.9400   YY=              8.1199   ZZ=            -14.9887
   XY=             -6.3051   XZ=              0.0000   YZ=              0.0000

 \MP4DQ=-33.8913535\MP4SDQ=-33.8933821\CCSD=-33.8944368\CCSD(T)=-33.896
 Normal termination of Gaussian 16 at Sun Dec 10 06:42:46 2023.
