 Gaussian 16, Revision A.03,
 Gaussian 16:  ES64L-G16RevA.03 25-Dec-2016

 ------------------
 #p CCSD(T)/CEP-31G
 ------------------

 ------------
 H2O_H2O_4190
 ------------
 Symbolic Z-matrix:
 Charge =  0 Multiplicity = 1

                         Standard orientation:
 ---------------------------------------------------------------------
 Center     Atomic      Atomic             Coordinates (Angstroms)
 Number     Number       Type             X           Y           Z
 ---------------------------------------------------------------------
      1          8           0        0.047522   -2.996515    0.000000
      2          1           0       -0.752821   -3.566565    0.000000
      3          1           0        0.846320   -3.568728    0.000000
      4          8           0        0.047522    3.047152    0.000000
      5          1           0        0.018190    4.029316    0.000000
      6          1           0       -0.872044    2.700881    0.000000
 ---------------------------------------------------------------------

 SCF Done:  E(RHF) =  -33.6512189989     A.U. after   11 cycles
 E2 =    -0.2284187577D+00 EUMP2 =    -0.33879637756577D+02
 CCSD(T)
 CCSD(T)= -0.33896654409D+02

 The electronic state is 1-A'.
 Alpha  occ. eigenvalues --   -1.35314  -1.34897  -0.70944  -0.70517  -0.55017
 Alpha  occ. eigenvalues --   -0.54597  -0.49876  -0.49460
 Alpha virt. eigenvalues --    0.20426   0.20852   0.30663   0.31077   0.80676
 Alpha virt. eigenvalues --    0.81087   0.83754   0.84170   0.86846   0.87320
 Alpha virt. eigenvalues --    1.17564   1.17977   1.22027   1.22444   2.57595

 Mulliken charges:
               1
     1  O   -0.739114
     2  H    0.368184
     3  H    0.370930
     4  O   -0.738706
     5  H    0.366945
     6  H    0.371760
 Sum of Mulliken charges =   0.00000

 Dipole moment (field-independent basis, Debye):
    X=             -2.1923    Y=             -1.1861    Z=              0.0000  Tot=              2.4927
 Quadrupole moment (field-independent basis, Debye-Ang):
   XX=             -9.5039   YY=             14.1958   ZZ=            -14.9878
   XY=             -5.9334   XZ=              0.0000   YZ=              0.0000

 \MP4DQ=-33.8910058\MP4SDQ=-33.8930351\CCSD=-33.8940913\CCSD(T)=-33.896
 Normal termination of Gaussian 16 at Sun Dec 10 06:55:32 2023.
