 Gaussian 16, Revision A.03,
 Gaussian 16:  ES64L-G16RevA.03 25-Dec-2016

 ------------------
 #p CCSD(T)/CEP-31G
 ------------------

 ------------
 H2O_H2O_3772
 ------------
 Symbolic Z-matrix:
 Charge =  0 Multiplicity = 1

                         Standard orientation:
 ---------------------------------------------------------------------
 Center     Atomic      Atomic             Coordinates (Angstroms)
 Number     Number       Type             X           Y           Z
 ---------------------------------------------------------------------
      1          8           0        0.056711   -2.744155    0.000000
      2          1           0       -0.743855   -3.313891    0.000000
      3          1           0        0.855284   -3.316681    0.000000
      4          8           0        0.056711    2.843274    0.000000
      5          1           0       -0.403656    3.711358    0.000000
      6          1           0       -0.615152    2.126262    0.000000
 ---------------------------------------------------------------------

 SCF Done:  E(RHF) =  -33.6520336465     A.U. after   11 cycles
 E2 =    -0.2283834253D+00 EUMP2 =    -0.33880417071776D+02
 CCSD(T)
 CCSD(T)= -0.33897409935D+02

 The electronic state is 1-A'.
 Alpha  occ. eigenvalues --   -1.35677  -1.34725  -0.71311  -0.70338  -0.55427
 Alpha  occ. eigenvalues --   -0.54458  -0.50253  -0.49300
 Alpha virt. eigenvalues --    0.20101   0.21096   0.30348   0.31325   0.80301
 Alpha virt. eigenvalues --    0.81235   0.83283   0.84276   0.86421   0.87463
 Alpha virt. eigenvalues --    1.17235   1.18182   1.21690   1.22665   2.57241

 Mulliken charges:
               1
     1  O   -0.742017
     2  H    0.369089
     3  H    0.372931
     4  O   -0.741660
     5  H    0.366301
     6  H    0.375357
 Sum of Mulliken charges =   0.00000

 Dipole moment (field-independent basis, Debye):
    X=             -2.6132    Y=             -2.3300    Z=              0.0000  Tot=              3.5011
 Quadrupole moment (field-independent basis, Debye-Ang):
   XX=            -10.1263   YY=              6.4228   ZZ=            -14.9894
   XY=             -7.3776   XZ=              0.0000   YZ=              0.0000

 MP4DQ=-33.8917675\MP4SDQ=-33.8937947\CCSD=-33.8948489\CCSD(T)=-33.8974
 Normal termination of Gaussian 16 at Sun Dec 10 06:47:52 2023.
