 Gaussian 16, Revision A.03,
 Gaussian 16:  ES64L-G16RevA.03 25-Dec-2016

 ------------------
 #p CCSD(T)/CEP-31G
 ------------------

 ------------
 H2O_H2O_1835
 ------------
 Symbolic Z-matrix:
 Charge =  0 Multiplicity = 1

                         Standard orientation:
 ---------------------------------------------------------------------
 Center     Atomic      Atomic             Coordinates (Angstroms)
 Number     Number       Type             X           Y           Z
 ---------------------------------------------------------------------
      1          8           0        0.034788   -1.761443    0.000000
      2          1           0       -0.765746   -2.331225    0.000000
      3          1           0        0.833394   -2.333924    0.000000
      4          8           0        0.034788    1.784931    0.000000
      5          1           0        0.323034    2.724302    0.000000
      6          1           0       -0.947293    1.752949    0.000000
 ---------------------------------------------------------------------

 SCF Done:  E(RHF) =  -33.6469264809     A.U. after   11 cycles
 E2 =    -0.2288575302D+00 EUMP2 =    -0.33875784011027D+02
 CCSD(T)
 CCSD(T)= -0.33892947415D+02

 The electronic state is 1-A'.
 Alpha  occ. eigenvalues --   -1.34295  -1.33709  -0.69919  -0.69299  -0.53967
 Alpha  occ. eigenvalues --   -0.52923  -0.48808  -0.48208
 Alpha virt. eigenvalues --    0.20685   0.22325   0.31454   0.31999   0.76308
 Alpha virt. eigenvalues --    0.80695   0.83386   0.85478   0.89792   1.01310
 Alpha virt. eigenvalues --    1.18404   1.19205   1.22939   1.23557   2.58061

 Mulliken charges:
               1
     1  O   -0.724940
     2  H    0.358213
     3  H    0.366923
     4  O   -0.721863
     5  H    0.355256
     6  H    0.366412
 Sum of Mulliken charges =   0.00000

 Dipole moment (field-independent basis, Debye):
    X=             -1.5770    Y=             -0.5773    Z=              0.0000  Tot=              1.6794
 Quadrupole moment (field-independent basis, Debye-Ang):
   XX=             -8.8669   YY=              5.2536   ZZ=            -14.9851
   XY=             -2.1004   XZ=              0.0000   YZ=              0.0000

 P4DQ=-33.8872305\MP4SDQ=-33.8892948\CCSD=-33.8903493\CCSD(T)=-33.89294
 Normal termination of Gaussian 16 at Sun Dec 10 06:58:59 2023.
