 Gaussian 16, Revision A.03,
 Gaussian 16:  ES64L-G16RevA.03 25-Dec-2016

 ------------------
 #p CCSD(T)/CEP-31G
 ------------------

 ------------
 H2O_H2O_3375
 ------------
 Symbolic Z-matrix:
 Charge =  0 Multiplicity = 1

                         Standard orientation:
 ---------------------------------------------------------------------
 Center     Atomic      Atomic             Coordinates (Angstroms)
 Number     Number       Type             X           Y           Z
 ---------------------------------------------------------------------
      1          8           0        0.000000   -0.000000    2.598547
      2          1           0        0.000000    0.799571    3.169679
      3          1           0       -0.000000   -0.799571    3.169679
      4          8           0        0.000000   -0.000000   -2.598547
      5          1           0       -0.000000   -0.799571   -3.169679
      6          1           0        0.000000    0.799571   -3.169679
 ---------------------------------------------------------------------

 SCF Done:  E(RHF) =  -33.6496275787     A.U. after   10 cycles
 E2 =    -0.2284992635D+00 EUMP2 =    -0.33878126842226D+02
 CCSD(T)
 CCSD(T)= -0.33895189389D+02

 The electronic state is 1-AG.
 Alpha  occ. eigenvalues --   -1.34704  -1.34704  -0.70329  -0.70328  -0.54330
 Alpha  occ. eigenvalues --   -0.54301  -0.49244  -0.49242
 Alpha virt. eigenvalues --    0.20923   0.20976   0.31172   0.31182   0.81293
 Alpha virt. eigenvalues --    0.81327   0.84175   0.84944   0.87529   0.87606
 Alpha virt. eigenvalues --    1.18107   1.18107   1.22577   1.22590   2.58166

 Mulliken charges:
               1
     1  O   -0.733524
     2  H    0.366762
     3  H    0.366762
     4  O   -0.733524
     5  H    0.366762
     6  H    0.366762
 Sum of Mulliken charges =   0.00000

 Dipole moment (field-independent basis, Debye):
    X=             -0.0000    Y=              0.0000    Z=              0.0000  Tot=              0.0000
 Quadrupole moment (field-independent basis, Debye-Ang):
   XX=            -14.9857   YY=             -8.0536   ZZ=             15.5021
   XY=              0.0000   XZ=              0.0000   YZ=             -0.0000

 33.8895281\MP4SDQ=-33.8915617\CCSD=-33.8926207\CCSD(T)=-33.8951894\RMS
 Normal termination of Gaussian 16 at Sun Dec 10 06:40:37 2023.
