 Gaussian 16, Revision A.03,
 Gaussian 16:  ES64L-G16RevA.03 25-Dec-2016

 ------------------
 #p CCSD(T)/CEP-31G
 ------------------

 -----------
 H2O_H2O_759
 -----------
 Symbolic Z-matrix:
 Charge =  0 Multiplicity = 1

                         Standard orientation:
 ---------------------------------------------------------------------
 Center     Atomic      Atomic             Coordinates (Angstroms)
 Number     Number       Type             X           Y           Z
 ---------------------------------------------------------------------
      1          8           0        0.031752   -1.192097    0.000000
      2          1           0       -0.769115   -1.761410    0.000000
      3          1           0        0.830023   -1.765046    0.000000
      4          8           0        0.031752    1.211204    0.000000
      5          1           0        0.381356    2.129508    0.000000
      6          1           0       -0.950299    1.244097    0.000000
 ---------------------------------------------------------------------

 SCF Done:  E(RHF) =  -33.6305047463     A.U. after   11 cycles
 E2 =    -0.2303204514D+00 EUMP2 =    -0.33860825197720D+02
 CCSD(T)
 CCSD(T)= -0.33878238969D+02

 The electronic state is 1-A'.
 Alpha  occ. eigenvalues --   -1.33230  -1.31914  -0.68781  -0.67654  -0.55195
 Alpha  occ. eigenvalues --   -0.47961  -0.47757  -0.45970
 Alpha virt. eigenvalues --    0.20966   0.24801   0.32317   0.32922   0.79169
 Alpha virt. eigenvalues --    0.81098   0.89098   0.90761   1.00329   1.13553
 Alpha virt. eigenvalues --    1.19386   1.22683   1.24220   1.28033   2.54687

 Mulliken charges:
               1
     1  O   -0.717195
     2  H    0.345207
     3  H    0.366397
     4  O   -0.692677
     5  H    0.346619
     6  H    0.351650
 Sum of Mulliken charges =  -0.00000

 Dipole moment (field-independent basis, Debye):
    X=             -1.3397    Y=             -0.4623    Z=              0.0000  Tot=              1.4172
 Quadrupole moment (field-independent basis, Debye-Ang):
   XX=             -8.8462   YY=             -0.9797   ZZ=            -14.9962
   XY=             -1.1062   XZ=              0.0000   YZ=              0.0000

 MP4DQ=-33.8722738\MP4SDQ=-33.8744196\CCSD=-33.8754991\CCSD(T)=-33.8782
 Normal termination of Gaussian 16 at Sun Dec 10 06:38:56 2023.
