 Gaussian 16, Revision A.03,
 Gaussian 16:  ES64L-G16RevA.03 25-Dec-2016

 ------------------
 #p CCSD(T)/CEP-31G
 ------------------

 ------------
 H2O_H2O_3379
 ------------
 Symbolic Z-matrix:
 Charge =  0 Multiplicity = 1

                         Standard orientation:
 ---------------------------------------------------------------------
 Center     Atomic      Atomic             Coordinates (Angstroms)
 Number     Number       Type             X           Y           Z
 ---------------------------------------------------------------------
      1          8           0        0.014783   -2.596441    0.000000
      2          1           0       -0.785068   -3.167181    0.000000
      3          1           0        0.814074   -3.167964    0.000000
      4          8           0        0.014783    2.600318    0.000000
      5          1           0        0.639661    3.358628    0.000000
      6          1           0       -0.905195    2.945496    0.000000
 ---------------------------------------------------------------------

 SCF Done:  E(RHF) =  -33.6497232895     A.U. after   11 cycles
 E2 =    -0.2284965047D+00 EUMP2 =    -0.33878219794206D+02
 CCSD(T)
 CCSD(T)= -0.33895279631D+02

 The electronic state is 1-A'.
 Alpha  occ. eigenvalues --   -1.34743  -1.34700  -0.70368  -0.70323  -0.54364
 Alpha  occ. eigenvalues --   -0.54313  -0.49284  -0.49240
 Alpha virt. eigenvalues --    0.20901   0.20972   0.31143   0.31186   0.81263
 Alpha virt. eigenvalues --    0.81317   0.84154   0.84897   0.87506   0.87599
 Alpha virt. eigenvalues --    1.18071   1.18114   1.22547   1.22591   2.58136

 Mulliken charges:
               1
     1  O   -0.733865
     2  H    0.366268
     3  H    0.367598
     4  O   -0.733754
     5  H    0.365992
     6  H    0.367761
 Sum of Mulliken charges =   0.00000

 Dipole moment (field-independent basis, Debye):
    X=             -0.6805    Y=             -0.0914    Z=              0.0000  Tot=              0.6866
 Quadrupole moment (field-independent basis, Debye-Ang):
   XX=             -8.1937   YY=             15.1577   ZZ=            -14.9859
   XY=             -1.3398   XZ=              0.0000   YZ=              0.0000

 \MP4DQ=-33.8896191\MP4SDQ=-33.8916524\CCSD=-33.8927112\CCSD(T)=-33.895
 Normal termination of Gaussian 16 at Sun Dec 10 06:40:41 2023.
