 Gaussian 16, Revision A.03,
 Gaussian 16:  ES64L-G16RevA.03 25-Dec-2016

 ------------------
 #p CCSD(T)/CEP-31G
 ------------------

 ------------
 H2O_H2O_1685
 ------------
 Symbolic Z-matrix:
 Charge =  0 Multiplicity = 1

                         Standard orientation:
 ---------------------------------------------------------------------
 Center     Atomic      Atomic             Coordinates (Angstroms)
 Number     Number       Type             X           Y           Z
 ---------------------------------------------------------------------
      1          8           0        0.034789   -1.681671    0.000000
      2          1           0       -0.765790   -2.251389    0.000000
      3          1           0        0.833349   -2.254215    0.000000
      4          8           0        0.034789    1.705152    0.000000
      5          1           0        0.323110    2.644501    0.000000
      6          1           0       -0.947295    1.673249    0.000000
 ---------------------------------------------------------------------

 SCF Done:  E(RHF) =  -33.6461536555     A.U. after   11 cycles
 E2 =    -0.2289534746D+00 EUMP2 =    -0.33875107130173D+02
 CCSD(T)
 CCSD(T)= -0.33892306056D+02

 The electronic state is 1-A'.
 Alpha  occ. eigenvalues --   -1.34186  -1.33545  -0.69810  -0.69132  -0.53931
 Alpha  occ. eigenvalues --   -0.52605  -0.48698  -0.48028
 Alpha virt. eigenvalues --    0.20671   0.22570   0.31533   0.32119   0.75738
 Alpha virt. eigenvalues --    0.80420   0.83970   0.84963   0.90678   1.04756
 Alpha virt. eigenvalues --    1.18480   1.19524   1.23052   1.23706   2.58313

 Mulliken charges:
               1
     1  O   -0.722938
     2  H    0.356644
     3  H    0.366468
     4  O   -0.719048
     5  H    0.353378
     6  H    0.365495
 Sum of Mulliken charges =   0.00000

 Dipole moment (field-independent basis, Debye):
    X=             -1.5712    Y=             -0.5809    Z=              0.0000  Tot=              1.6751
 Quadrupole moment (field-independent basis, Debye-Ang):
   XX=             -8.8754   YY=              4.4404   ZZ=            -14.9850
   XY=             -1.9816   XZ=              0.0000   YZ=              0.0000

 \MP4DQ=-33.8865691\MP4SDQ=-33.8886431\CCSD=-33.8896991\CCSD(T)=-33.892
 Normal termination of Gaussian 16 at Sun Dec 10 06:56:12 2023.
