 Gaussian 16, Revision A.03,
 Gaussian 16:  ES64L-G16RevA.03 25-Dec-2016

 ------------------
 #p CCSD(T)/CEP-31G
 ------------------

 ------------
 H2O_H2O_4075
 ------------
 Symbolic Z-matrix:
 Charge =  0 Multiplicity = 1

                         Standard orientation:
 ---------------------------------------------------------------------
 Center     Atomic      Atomic             Coordinates (Angstroms)
 Number     Number       Type             X           Y           Z
 ---------------------------------------------------------------------
      1          8           0        0.000000   -0.000000    2.970833
      2          1           0        0.000000    0.799571    3.541965
      3          1           0       -0.000000   -0.799571    3.541965
      4          8           0        0.000000   -0.000000   -2.970833
      5          1           0       -0.000000   -0.799571   -3.541965
      6          1           0        0.000000    0.799571   -3.541965
 ---------------------------------------------------------------------

 SCF Done:  E(RHF) =  -33.6503475702     A.U. after   10 cycles
 E2 =    -0.2284558305D+00 EUMP2 =    -0.33878803400710D+02
 CCSD(T)
 CCSD(T)= -0.33895845169D+02

 The electronic state is 1-AG.
 Alpha  occ. eigenvalues --   -1.34911  -1.34911  -0.70537  -0.70537  -0.54566
 Alpha  occ. eigenvalues --   -0.54563  -0.49460  -0.49460
 Alpha virt. eigenvalues --    0.20778   0.20784   0.31011   0.31012   0.81092
 Alpha virt. eigenvalues --    0.81095   0.84226   0.84296   0.87312   0.87317
 Alpha virt. eigenvalues --    1.17930   1.17930   1.22399   1.22400   2.57979

 Mulliken charges:
               1
     1  O   -0.736007
     2  H    0.368003
     3  H    0.368003
     4  O   -0.736007
     5  H    0.368003
     6  H    0.368003
 Sum of Mulliken charges =  -0.00000

 Dipole moment (field-independent basis, Debye):
    X=             -0.0000    Y=              0.0000    Z=              0.0000  Tot=              0.0000
 Quadrupole moment (field-independent basis, Debye-Ang):
   XX=            -14.9864   YY=             -8.0423   ZZ=             19.4999
   XY=              0.0000   XZ=              0.0000   YZ=             -0.0000

 -33.8901898\MP4SDQ=-33.8922213\CCSD=-33.8932793\CCSD(T)=-33.8958452\RM
 Normal termination of Gaussian 16 at Sun Dec 10 06:53:29 2023.
