 Gaussian 16, Revision A.03,
 Gaussian 16:  ES64L-G16RevA.03 25-Dec-2016

 ------------------
 #p CCSD(T)/CEP-31G
 ------------------

 ------------
 H2O_H2O_1368
 ------------
 Symbolic Z-matrix:
 Charge =  0 Multiplicity = 1

                         Standard orientation:
 ---------------------------------------------------------------------
 Center     Atomic      Atomic             Coordinates (Angstroms)
 Number     Number       Type             X           Y           Z
 ---------------------------------------------------------------------
      1          8           0        0.052871   -1.483451    0.000000
      2          1           0       -0.748405   -2.052188    0.000000
      3          1           0        0.850730   -2.056972    0.000000
      4          8           0        0.052871    1.553649    0.000000
      5          1           0       -0.165939    2.511578    0.000000
      6          1           0       -0.782321    1.036000    0.000000
 ---------------------------------------------------------------------

 SCF Done:  E(RHF) =  -33.6494807125     A.U. after   11 cycles
 E2 =    -0.2292338039D+00 EUMP2 =    -0.33878714516408D+02
 CCSD(T)
 CCSD(T)= -0.33895864109D+02

 The electronic state is 1-A'.
 Alpha  occ. eigenvalues --   -1.35255  -1.32825  -0.70900  -0.68413  -0.54943
 Alpha  occ. eigenvalues --   -0.52343  -0.49813  -0.47376
 Alpha virt. eigenvalues --    0.19638   0.24149   0.30628   0.33132   0.76609
 Alpha virt. eigenvalues --    0.78798   0.85293   0.86065   0.89417   1.12031
 Alpha virt. eigenvalues --    1.17473   1.21166   1.22287   1.27181   2.57264

 Mulliken charges:
               1
     1  O   -0.738005
     2  H    0.359175
     3  H    0.379264
     4  O   -0.725675
     5  H    0.346796
     6  H    0.378446
 Sum of Mulliken charges =   0.00000

 Dipole moment (field-independent basis, Debye):
    X=             -2.3556    Y=             -1.7622    Z=              0.0000  Tot=              2.9417
 Quadrupole moment (field-independent basis, Debye-Ang):
   XX=             -9.8444   YY=              0.2399   ZZ=            -14.9915
   XY=             -3.3555   XZ=              0.0000   YZ=              0.0000

 7\MP4DQ=-33.8900829\MP4SDQ=-33.8921866\CCSD=-33.8932291\CCSD(T)=-33.89
 Normal termination of Gaussian 16 at Sun Dec 10 06:50:19 2023.
