 Gaussian 16, Revision A.03,
 Gaussian 16:  ES64L-G16RevA.03 25-Dec-2016

 ------------------
 #p CCSD(T)/CEP-31G
 ------------------

 ------------
 H2O_H2O_1563
 ------------
 Symbolic Z-matrix:
 Charge =  0 Multiplicity = 1

                         Standard orientation:
 ---------------------------------------------------------------------
 Center     Atomic      Atomic             Coordinates (Angstroms)
 Number     Number       Type             X           Y           Z
 ---------------------------------------------------------------------
      1          8           0        0.042984   -1.606917    0.000000
      2          1           0       -0.757883   -2.176230    0.000000
      3          1           0        0.841255   -2.179864    0.000000
      4          8           0        0.042984    1.645633    0.000000
      5          1           0        0.143000    2.623131    0.000000
      6          1           0       -0.914118    1.423232    0.000000
 ---------------------------------------------------------------------

 SCF Done:  E(RHF) =  -33.6469187647     A.U. after   11 cycles
 E2 =    -0.2290443475D+00 EUMP2 =    -0.33875963112237D+02
 CCSD(T)
 CCSD(T)= -0.33893158369D+02

 The electronic state is 1-A'.
 Alpha  occ. eigenvalues --   -1.34471  -1.33324  -0.70100  -0.68892  -0.54195
 Alpha  occ. eigenvalues --   -0.52510  -0.48993  -0.47827
 Alpha virt. eigenvalues --    0.20321   0.23019   0.31269   0.32358   0.75447
 Alpha virt. eigenvalues --    0.79910   0.84425   0.84852   0.90224   1.08334
 Alpha virt. eigenvalues --    1.18203   1.20500   1.22758   1.24231   2.58198

 Mulliken charges:
               1
     1  O   -0.726323
     2  H    0.356580
     3  H    0.369991
     4  O   -0.719586
     5  H    0.350874
     6  H    0.368463
 Sum of Mulliken charges =   0.00000

 Dipole moment (field-independent basis, Debye):
    X=             -1.9317    Y=             -0.9614    Z=              0.0000  Tot=              2.1577
 Quadrupole moment (field-independent basis, Debye-Ang):
   XX=             -9.2693   YY=              2.9665   ZZ=            -14.9866
   XY=             -2.5203   XZ=              0.0000   YZ=              0.0000

 \MP4DQ=-33.8874084\MP4SDQ=-33.8894922\CCSD=-33.8905448\CCSD(T)=-33.893
 Normal termination of Gaussian 16 at Sun Dec 10 06:53:57 2023.
