 Gaussian 16, Revision A.03,
 Gaussian 16:  ES64L-G16RevA.03 25-Dec-2016

 ------------------
 #p CCSD(T)/CEP-31G
 ------------------

 ------------
 H2O_H2O_1122
 ------------
 Symbolic Z-matrix:
 Charge =  0 Multiplicity = 1

                         Standard orientation:
 ---------------------------------------------------------------------
 Center     Atomic      Atomic             Coordinates (Angstroms)
 Number     Number       Type             X           Y           Z
 ---------------------------------------------------------------------
      1          8           0        0.056799   -1.334894    0.000000
      2          1           0       -0.744778   -1.903207    0.000000
      3          1           0        0.854354   -1.908838    0.000000
      4          8           0        0.056799    1.433811    0.000000
      5          1           0       -0.402025    2.302711    0.000000
      6          1           0       -0.616337    0.717994    0.000000
 ---------------------------------------------------------------------

 SCF Done:  E(RHF) =  -33.6519106072     A.U. after   11 cycles
 E2 =    -0.2295638433D+00 EUMP2 =    -0.33881474450456D+02
 CCSD(T)
 CCSD(T)= -0.33898478493D+02

 The electronic state is 1-A'.
 Alpha  occ. eigenvalues --   -1.36311  -1.31999  -0.71969  -0.67998  -0.55822
 Alpha  occ. eigenvalues --   -0.51797  -0.50914  -0.46584
 Alpha virt. eigenvalues --    0.19066   0.25683   0.29835   0.35236   0.77386
 Alpha virt. eigenvalues --    0.78606   0.86722   0.87332   0.93503   1.12973
 Alpha virt. eigenvalues --    1.17742   1.19951   1.22437   1.30094   2.57983

 Mulliken charges:
               1
     1  O   -0.759136
     2  H    0.364935
     3  H    0.395304
     4  O   -0.734893
     5  H    0.340627
     6  H    0.393162
 Sum of Mulliken charges =  -0.00000

 Dipole moment (field-independent basis, Debye):
    X=             -2.4916    Y=             -2.5491    Z=              0.0000  Tot=              3.5645
 Quadrupole moment (field-independent basis, Debye-Ang):
   XX=            -10.0938   YY=             -2.5574   ZZ=            -15.0010
   XY=             -3.7598   XZ=              0.0000   YZ=              0.0000

 MP4DQ=-33.8926241\MP4SDQ=-33.8947607\CCSD=-33.8957745\CCSD(T)=-33.8984
 Normal termination of Gaussian 16 at Sun Dec 10 06:45:44 2023.
