 Gaussian 16, Revision A.03,
 Gaussian 16:  ES64L-G16RevA.03 25-Dec-2016

 ------------------
 #p CCSD(T)/CEP-31G
 ------------------

 ------------
 H2O_H2O_1398
 ------------
 Symbolic Z-matrix:
 Charge =  0 Multiplicity = 1

                         Standard orientation:
 ---------------------------------------------------------------------
 Center     Atomic      Atomic             Coordinates (Angstroms)
 Number     Number       Type             X           Y           Z
 ---------------------------------------------------------------------
      1          8           0        0.057162   -1.477092    0.000000
      2          1           0       -0.744236   -2.045658    0.000000
      3          1           0        0.854898   -2.050784    0.000000
      4          8           0        0.057162    1.583482    0.000000
      5          1           0       -0.457773    2.420350    0.000000
      6          1           0       -0.567477    0.824974    0.000000
 ---------------------------------------------------------------------

 SCF Done:  E(RHF) =  -33.6542792742     A.U. after   11 cycles
 E2 =    -0.2291255439D+00 EUMP2 =    -0.33883404818075D+02
 CCSD(T)
 CCSD(T)= -0.33900394695D+02

 The electronic state is 1-A'.
 Alpha  occ. eigenvalues --   -1.36357  -1.32535  -0.72007  -0.68230  -0.56192
 Alpha  occ. eigenvalues --   -0.52331  -0.50967  -0.47141
 Alpha virt. eigenvalues --    0.18967   0.24895   0.29765   0.34872   0.76739
 Alpha virt. eigenvalues --    0.78059   0.85091   0.86621   0.90427   1.08329
 Alpha virt. eigenvalues --    1.16552   1.20208   1.21799   1.29651   2.53665

 Mulliken charges:
               1
     1  O   -0.755303
     2  H    0.367129
     3  H    0.389906
     4  O   -0.745213
     5  H    0.347417
     6  H    0.396065
 Sum of Mulliken charges =  -0.00000

 Dipole moment (field-independent basis, Debye):
    X=             -2.5544    Y=             -2.7011    Z=              0.0000  Tot=              3.7176
 Quadrupole moment (field-independent basis, Debye-Ang):
   XX=            -10.1244   YY=             -2.0237   ZZ=            -14.9989
   XY=             -4.2984   XZ=              0.0000   YZ=              0.0000

 2\MP4DQ=-33.8946179\MP4SDQ=-33.8967188\CCSD=-33.8977426\CCSD(T)=-33.90
 Normal termination of Gaussian 16 at Sun Dec 10 06:50:53 2023.
