 Gaussian 16, Revision A.03,
 Gaussian 16:  ES64L-G16RevA.03 25-Dec-2016

 ------------------
 #p CCSD(T)/CEP-31G
 ------------------

 -----------
 H2O_H2O_268
 -----------
 Symbolic Z-matrix:
 Charge =  0 Multiplicity = 1

                         Standard orientation:
 ---------------------------------------------------------------------
 Center     Atomic      Atomic             Coordinates (Angstroms)
 Number     Number       Type             X           Y           Z
 ---------------------------------------------------------------------
      1          8           0        0.052937   -0.898534    0.000000
      2          1           0       -0.749404   -1.465769    0.000000
      3          1           0        0.849719   -1.473550    0.000000
      4          8           0        0.052937    0.968534    0.000000
      5          1           0       -0.164077    1.926871    0.000000
      6          1           0       -0.783224    0.452451    0.000000
 ---------------------------------------------------------------------

 SCF Done:  E(RHF) =  -33.5682880104     A.U. after   11 cycles
 E2 =    -0.2336581963D+00 EUMP2 =    -0.33801946206684D+02
 CCSD(T)
 CCSD(T)= -0.33818826636D+02

 The electronic state is 1-A'.
 Alpha  occ. eigenvalues --   -1.37648  -1.29649  -0.73818  -0.69649  -0.53814
 Alpha  occ. eigenvalues --   -0.51747  -0.44674  -0.43925
 Alpha virt. eigenvalues --    0.19584   0.28636   0.30093   0.34439   0.79377
 Alpha virt. eigenvalues --    0.84315   0.89869   0.95637   0.98772   1.16927
 Alpha virt. eigenvalues --    1.20423   1.25180   1.29173   1.33751   2.63577

 Mulliken charges:
               1
     1  O   -0.787602
     2  H    0.354016
     3  H    0.411976
     4  O   -0.651869
     5  H    0.310580
     6  H    0.362899
 Sum of Mulliken charges =  -0.00000

 Dipole moment (field-independent basis, Debye):
    X=             -2.0054    Y=             -1.8143    Z=              0.0000  Tot=              2.7043
 Quadrupole moment (field-independent basis, Debye-Ang):
   XX=             -9.8735   YY=             -6.1760   ZZ=            -14.9720
   XY=             -1.9010   XZ=              0.0000   YZ=              0.0000

 MP4DQ=-33.8123704\MP4SDQ=-33.8148354\CCSD=-33.8156545\CCSD(T)=-33.8188
 Normal termination of Gaussian 16 at Sun Dec 10 06:29:46 2023.
