 Gaussian 16, Revision A.03,
 Gaussian 16:  ES64L-G16RevA.03 25-Dec-2016

 ------------------
 #p CCSD(T)/CEP-31G
 ------------------

 ------------
 H2O_H2O_3492
 ------------
 Symbolic Z-matrix:
 Charge =  0 Multiplicity = 1

                         Standard orientation:
 ---------------------------------------------------------------------
 Center     Atomic      Atomic             Coordinates (Angstroms)
 Number     Number       Type             X           Y           Z
 ---------------------------------------------------------------------
      1          8           0        0.051276   -2.617225    0.000000
      2          1           0       -0.749244   -3.187025    0.000000
      3          1           0        0.849895   -3.189687    0.000000
      4          8           0        0.051276    2.680760    0.000000
      5          1           0       -0.105700    3.650740    0.000000
      6          1           0       -0.815370    2.217693    0.000000
 ---------------------------------------------------------------------

 SCF Done:  E(RHF) =  -33.6512496379     A.U. after   11 cycles
 E2 =    -0.2284322596D+00 EUMP2 =    -0.33879681897569D+02
 CCSD(T)
 CCSD(T)= -0.33896697743D+02

 The electronic state is 1-A'.
 Alpha  occ. eigenvalues --   -1.35355  -1.34667  -0.70986  -0.70279  -0.55060
 Alpha  occ. eigenvalues --   -0.54365  -0.49918  -0.49232
 Alpha virt. eigenvalues --    0.20378   0.21099   0.30623   0.31310   0.80635
 Alpha virt. eigenvalues --    0.81309   0.83645   0.84444   0.86800   0.87611
 Alpha virt. eigenvalues --    1.17524   1.18206   1.21986   1.22681   2.57550

 Mulliken charges:
               1
     1  O   -0.739265
     2  H    0.367518
     3  H    0.371750
     4  O   -0.738497
     5  H    0.365322
     6  H    0.373174
 Sum of Mulliken charges =   0.00000

 Dipole moment (field-independent basis, Debye):
    X=             -2.3611    Y=             -1.4967    Z=              0.0000  Tot=              2.7955
 Quadrupole moment (field-independent basis, Debye-Ang):
   XX=             -9.7437   YY=              9.6782   ZZ=            -14.9882
   XY=             -5.7443   XZ=              0.0000   YZ=              0.0000

 \MP4DQ=-33.8910491\MP4SDQ=-33.8930785\CCSD=-33.894134\CCSD(T)=-33.8966
 Normal termination of Gaussian 16 at Sun Dec 10 06:42:44 2023.
