 Gaussian 16, Revision A.03,
 Gaussian 16:  ES64L-G16RevA.03 25-Dec-2016

 ------------------
 #p CCSD(T)/CEP-31G
 ------------------

 ------------
 H2O_H2O_4151
 ------------
 Symbolic Z-matrix:
 Charge =  0 Multiplicity = 1

                         Standard orientation:
 ---------------------------------------------------------------------
 Center     Atomic      Atomic             Coordinates (Angstroms)
 Number     Number       Type             X           Y           Z
 ---------------------------------------------------------------------
      1          8           0        0.003735   -3.010588    0.000000
      2          1           0       -0.795897   -3.581634    0.000000
      3          1           0        0.803245   -3.581805    0.000000
      4          8           0        0.003735    3.010831    0.000000
      5          1           0        0.764308    3.632953    0.000000
      6          1           0       -0.831422    3.528535    0.000000
 ---------------------------------------------------------------------

 SCF Done:  E(RHF) =  -33.6504091278     A.U. after   10 cycles
 E2 =    -0.2284522737D+00 EUMP2 =    -0.33878861401505D+02
 CCSD(T)
 CCSD(T)= -0.33895901405D+02

 The electronic state is 1-A'.
 Alpha  occ. eigenvalues --   -1.34931  -1.34929  -0.70557  -0.70555  -0.54589
 Alpha  occ. eigenvalues --   -0.54586  -0.49481  -0.49479
 Alpha virt. eigenvalues --    0.20763   0.20768   0.30995   0.30997   0.81072
 Alpha virt. eigenvalues --    0.81075   0.84208   0.84261   0.87289   0.87294
 Alpha virt. eigenvalues --    1.17912   1.17914   1.22382   1.22384   2.57962

 Mulliken charges:
               1
     1  O   -0.736221
     2  H    0.367998
     3  H    0.368223
     4  O   -0.736218
     5  H    0.367955
     6  H    0.368263
 Sum of Mulliken charges =   0.00000

 Dipole moment (field-independent basis, Debye):
    X=             -0.1723    Y=             -0.0057    Z=              0.0000  Tot=              0.1724
 Quadrupole moment (field-independent basis, Debye-Ang):
   XX=             -8.0504   YY=             19.9008   ZZ=            -14.9865
   XY=             -0.4038   XZ=              0.0000   YZ=              0.0000

 P4DQ=-33.8902465\MP4SDQ=-33.8922778\CCSD=-33.8933358\CCSD(T)=-33.89590
 Normal termination of Gaussian 16 at Sun Dec 10 06:54:51 2023.
