 Gaussian 16, Revision A.03,
 Gaussian 16:  ES64L-G16RevA.03 25-Dec-2016

 ------------------
 #p CCSD(T)/CEP-31G
 ------------------

 ------------
 H2O_H2O_4129
 ------------
 Symbolic Z-matrix:
 Charge =  0 Multiplicity = 1

                         Standard orientation:
 ---------------------------------------------------------------------
 Center     Atomic      Atomic             Coordinates (Angstroms)
 Number     Number       Type             X           Y           Z
 ---------------------------------------------------------------------
      1          8           0        0.014783   -2.995317    0.000000
      2          1           0       -0.785031   -3.566109    0.000000
      3          1           0        0.814111   -3.566788    0.000000
      4          8           0        0.014783    2.999197    0.000000
      5          1           0        0.639612    3.757546    0.000000
      6          1           0       -0.905218    3.344314    0.000000
 ---------------------------------------------------------------------

 SCF Done:  E(RHF) =  -33.6504486410     A.U. after   11 cycles
 E2 =    -0.2284514295D+00 EUMP2 =    -0.33878900070524D+02
 CCSD(T)
 CCSD(T)= -0.33895938948D+02

 The electronic state is 1-A'.
 Alpha  occ. eigenvalues --   -1.34953  -1.34920  -0.70580  -0.70546  -0.54612
 Alpha  occ. eigenvalues --   -0.54580  -0.49504  -0.49471
 Alpha virt. eigenvalues --    0.20745   0.20778   0.30976   0.31007   0.81050
 Alpha virt. eigenvalues --    0.81082   0.84191   0.84255   0.87265   0.87305
 Alpha virt. eigenvalues --    1.17892   1.17924   1.22361   1.22393   2.57942

 Mulliken charges:
               1
     1  O   -0.736365
     2  H    0.367734
     3  H    0.368631
     4  O   -0.736307
     5  H    0.367529
     6  H    0.368778
 Sum of Mulliken charges =   0.00000

 Dipole moment (field-independent basis, Debye):
    X=             -0.6820    Y=             -0.0909    Z=              0.0000  Tot=              0.6880
 Quadrupole moment (field-independent basis, Debye-Ang):
   XX=             -8.1830   YY=             19.3683   ZZ=            -14.9866
   XY=             -1.6062   XZ=              0.0000   YZ=              0.0000

 MP4DQ=-33.8902843\MP4SDQ=-33.8923156\CCSD=-33.8933734\CCSD(T)=-33.8959
 Normal termination of Gaussian 16 at Sun Dec 10 06:54:28 2023.
