 Gaussian 16, Revision A.03,
 Gaussian 16:  ES64L-G16RevA.03 25-Dec-2016

 ------------------
 #p CCSD(T)/CEP-31G
 ------------------

 ------------
 H2O_H2O_2317
 ------------
 Symbolic Z-matrix:
 Charge =  0 Multiplicity = 1

                         Standard orientation:
 ---------------------------------------------------------------------
 Center     Atomic      Atomic             Coordinates (Angstroms)
 Number     Number       Type             X           Y           Z
 ---------------------------------------------------------------------
      1          8           0        0.051293   -1.992344    0.000000
      2          1           0       -0.749521   -2.561733    0.000000
      3          1           0        0.849617   -2.565217    0.000000
      4          8           0        0.051293    2.055826    0.000000
      5          1           0       -0.105186    3.025888    0.000000
      6          1           0       -0.815591    1.593206    0.000000
 ---------------------------------------------------------------------

 SCF Done:  E(RHF) =  -33.6507051974     A.U. after   11 cycles
 E2 =    -0.2285822680D+00 EUMP2 =    -0.33879287465346D+02
 CCSD(T)
 CCSD(T)= -0.33896323735D+02

 The electronic state is 1-A'.
 Alpha  occ. eigenvalues --   -1.35231  -1.34009  -0.70864  -0.69588  -0.54905
 Alpha  occ. eigenvalues --   -0.53660  -0.49786  -0.48570
 Alpha virt. eigenvalues --    0.20125   0.22033   0.30664   0.31959   0.79846
 Alpha virt. eigenvalues --    0.80619   0.82109   0.85778   0.86968   0.92811
 Alpha virt. eigenvalues --    1.17619   1.19036   1.22008   1.23614   2.57453

 Mulliken charges:
               1
     1  O   -0.737365
     2  H    0.364364
     3  H    0.373248
     4  O   -0.734757
     5  H    0.359415
     6  H    0.375095
 Sum of Mulliken charges =   0.00000

 Dipole moment (field-independent basis, Debye):
    X=             -2.3430    Y=             -1.5300    Z=              0.0000  Tot=              2.7983
 Quadrupole moment (field-independent basis, Debye-Ang):
   XX=             -9.7420   YY=              4.7803   ZZ=            -14.9885
   XY=             -4.2993   XZ=              0.0000   YZ=              0.0000

 MP4DQ=-33.8906595\MP4SDQ=-33.8926993\CCSD=-33.8937491\CCSD(T)=-33.8963
 Normal termination of Gaussian 16 at Sun Dec 10 07:09:06 2023.
