 Gaussian 16, Revision A.03,
 Gaussian 16:  ES64L-G16RevA.03 25-Dec-2016

 ------------------
 #p CCSD(T)/CEP-31G
 ------------------

 ------------
 H2O_H2O_4766
 ------------
 Symbolic Z-matrix:
 Charge =  0 Multiplicity = 1

                         Standard orientation:
 ---------------------------------------------------------------------
 Center     Atomic      Atomic             Coordinates (Angstroms)
 Number     Number       Type             X           Y           Z
 ---------------------------------------------------------------------
      1          8           0        0.049498   -3.298873    0.000000
      2          1           0       -0.750803   -3.868981    0.000000
      3          1           0        0.848337   -3.871028    0.000000
      4          8           0        0.049498    3.355860    0.000000
      5          1           0       -0.044079    4.333995    0.000000
      6          1           0       -0.845422    2.950121    0.000000
 ---------------------------------------------------------------------

 SCF Done:  E(RHF) =  -33.6514409454     A.U. after   11 cycles
 E2 =    -0.2284015682D+00 EUMP2 =    -0.33879842513599D+02
 CCSD(T)
 CCSD(T)= -0.33896852805D+02

 The electronic state is 1-A'.
 Alpha  occ. eigenvalues --   -1.35403  -1.35020  -0.71034  -0.70644  -0.55118
 Alpha  occ. eigenvalues --   -0.54733  -0.49969  -0.49587
 Alpha virt. eigenvalues --    0.20349   0.20740   0.30587   0.30970   0.80583
 Alpha virt. eigenvalues --    0.80961   0.83641   0.84023   0.86740   0.87164
 Alpha virt. eigenvalues --    1.17484   1.17864   1.21945   1.22329   2.57509

 Mulliken charges:
               1
     1  O   -0.739888
     2  H    0.368860
     3  H    0.371028
     4  O   -0.739626
     5  H    0.367822
     6  H    0.371804
 Sum of Mulliken charges =   0.00000

 Dipole moment (field-independent basis, Debye):
    X=             -2.2856    Y=             -1.3311    Z=              0.0000  Tot=              2.6450
 Quadrupole moment (field-independent basis, Debye-Ang):
   XX=             -9.6289   YY=             15.8583   ZZ=            -14.9881
   XY=             -6.9738   XZ=              0.0000   YZ=              0.0000

 1\MP4DQ=-33.891206\MP4SDQ=-33.8932346\CCSD=-33.8942906\CCSD(T)=-33.896
 Normal termination of Gaussian 16 at Sun Dec 10 07:07:29 2023.
