 Gaussian 16, Revision A.03,
 Gaussian 16:  ES64L-G16RevA.03 25-Dec-2016

 ------------------
 #p CCSD(T)/CEP-31G
 ------------------

 ------------
 H2O_H2O_2600
 ------------
 Symbolic Z-matrix:
 Charge =  0 Multiplicity = 1

                         Standard orientation:
 ---------------------------------------------------------------------
 Center     Atomic      Atomic             Coordinates (Angstroms)
 Number     Number       Type             X           Y           Z
 ---------------------------------------------------------------------
      1          8           0        0.000000   -0.000000    2.186374
      2          1           0        0.000000    0.799571    2.757506
      3          1           0       -0.000000   -0.799571    2.757506
      4          8           0        0.000000   -0.000000   -2.186374
      5          1           0       -0.000000   -0.799571   -2.757506
      6          1           0        0.000000    0.799571   -2.757506
 ---------------------------------------------------------------------

 SCF Done:  E(RHF) =  -33.6481959704     A.U. after   10 cycles
 E2 =    -0.2285984290D+00 EUMP2 =    -0.33876794399377D+02
 CCSD(T)
 CCSD(T)= -0.33893898787D+02

 The electronic state is 1-AG.
 Alpha  occ. eigenvalues --   -1.34360  -1.34356  -0.69982  -0.69977  -0.53987
 Alpha  occ. eigenvalues --   -0.53772  -0.48889  -0.48864
 Alpha virt. eigenvalues --    0.21052   0.21383   0.31402   0.31489   0.81472
 Alpha virt. eigenvalues --    0.81871   0.82208   0.87535   0.88158   0.88461
 Alpha virt. eigenvalues --    1.18394   1.18395   1.22826   1.22947   2.58373

 Mulliken charges:
               1
     1  O   -0.728652
     2  H    0.364326
     3  H    0.364326
     4  O   -0.728652
     5  H    0.364326
     6  H    0.364326
 Sum of Mulliken charges =  -0.00000

 Dipole moment (field-independent basis, Debye):
    X=             -0.0000    Y=              0.0000    Z=              0.0000  Tot=              0.0000
 Quadrupole moment (field-independent basis, Debye-Ang):
   XX=            -14.9846   YY=             -8.0764   ZZ=             11.0429
   XY=              0.0000   XZ=              0.0000   YZ=             -0.0000

 .8882234\MP4SDQ=-33.8902627\CCSD=-33.8913228\CCSD(T)=-33.8938988\RMSD=
 Normal termination of Gaussian 16 at Sun Dec 10 06:26:35 2023.
