 Gaussian 16, Revision A.03,
 Gaussian 16:  ES64L-G16RevA.03 25-Dec-2016

 ------------------
 #p CCSD(T)/CEP-31G
 ------------------

 ------------
 H2O_H2O_1121
 ------------
 Symbolic Z-matrix:
 Charge =  0 Multiplicity = 1

                         Standard orientation:
 ---------------------------------------------------------------------
 Center     Atomic      Atomic             Coordinates (Angstroms)
 Number     Number       Type             X           Y           Z
 ---------------------------------------------------------------------
      1          8           0        0.056176   -1.338894    0.000000
      2          1           0       -0.745380   -1.907238    0.000000
      3          1           0        0.853753   -1.912807    0.000000
      4          8           0        0.056176    1.430445    0.000000
      5          1           0       -0.344872    2.327478    0.000000
      6          1           0       -0.662310    0.760158    0.000000
 ---------------------------------------------------------------------

 SCF Done:  E(RHF) =  -33.6507705832     A.U. after   11 cycles
 E2 =    -0.2295914863D+00 EUMP2 =    -0.33880362069539D+02
 CCSD(T)
 CCSD(T)= -0.33897423112D+02

 The electronic state is 1-A'.
 Alpha  occ. eigenvalues --   -1.36022  -1.32102  -0.71681  -0.68006  -0.55538
 Alpha  occ. eigenvalues --   -0.51835  -0.50614  -0.46675
 Alpha virt. eigenvalues --    0.19213   0.25496   0.30057   0.34669   0.77590
 Alpha virt. eigenvalues --    0.78905   0.86722   0.87376   0.92739   1.13979
 Alpha virt. eigenvalues --    1.17992   1.20061   1.22401   1.29652   2.58903

 Mulliken charges:
               1
     1  O   -0.754373
     2  H    0.362783
     3  H    0.391964
     4  O   -0.730153
     5  H    0.340821
     6  H    0.388957
 Sum of Mulliken charges =  -0.00000

 Dipole moment (field-independent basis, Debye):
    X=             -2.4639    Y=             -2.3471    Z=              0.0000  Tot=              3.4029
 Quadrupole moment (field-independent basis, Debye-Ang):
   XX=            -10.0541   YY=             -2.1073   ZZ=            -14.9989
   XY=             -3.5929   XZ=              0.0000   YZ=              0.0000

 P4DQ=-33.89157\MP4SDQ=-33.8937062\CCSD=-33.8947281\CCSD(T)=-33.8974231
 Normal termination of Gaussian 16 at Sun Dec 10 06:45:43 2023.
