 Gaussian 16, Revision A.03,
 Gaussian 16:  ES64L-G16RevA.03 25-Dec-2016

 ------------------
 #p CCSD(T)/CEP-31G
 ------------------

 ------------
 H2O_H2O_4147
 ------------
 Symbolic Z-matrix:
 Charge =  0 Multiplicity = 1

                         Standard orientation:
 ---------------------------------------------------------------------
 Center     Atomic      Atomic             Coordinates (Angstroms)
 Number     Number       Type             X           Y           Z
 ---------------------------------------------------------------------
      1          8           0        0.056705   -2.943587    0.000000
      2          1           0       -0.743795   -3.513416    0.000000
      3          1           0        0.855345   -3.516020    0.000000
      4          8           0        0.056705    3.042719    0.000000
      5          1           0       -0.403763    3.910749    0.000000
      6          1           0       -0.615074    2.325629    0.000000
 ---------------------------------------------------------------------

 SCF Done:  E(RHF) =  -33.6519781755     A.U. after   11 cycles
 E2 =    -0.2283793177D+00 EUMP2 =    -0.33880357493224D+02
 CCSD(T)
 CCSD(T)= -0.33897351989D+02

 The electronic state is 1-A'.
 Alpha  occ. eigenvalues --   -1.35665  -1.34843  -0.71299  -0.70461  -0.55411
 Alpha  occ. eigenvalues --   -0.54576  -0.50240  -0.49417
 Alpha virt. eigenvalues --    0.20116   0.20965   0.30358   0.31199   0.80313
 Alpha virt. eigenvalues --    0.81121   0.83314   0.84154   0.86437   0.87327
 Alpha virt. eigenvalues --    1.17245   1.18063   1.21701   1.22538   2.57256

 Mulliken charges:
               1
     1  O   -0.741814
     2  H    0.369324
     3  H    0.372490
     4  O   -0.741561
     5  H    0.367069
     6  H    0.374491
 Sum of Mulliken charges =   0.00000

 Dipole moment (field-independent basis, Debye):
    X=             -2.6152    Y=             -2.3236    Z=              0.0000  Tot=              3.4983
 Quadrupole moment (field-independent basis, Debye-Ang):
   XX=            -10.1275   YY=              7.6357   ZZ=            -14.9892
   XY=             -7.8948   XZ=              0.0000   YZ=              0.0000

 MP4DQ=-33.8917093\MP4SDQ=-33.8937365\CCSD=-33.8947912\CCSD(T)=-33.8973
 Normal termination of Gaussian 16 at Sun Dec 10 06:54:47 2023.
