 Gaussian 16, Revision A.03,
 Gaussian 16:  ES64L-G16RevA.03 25-Dec-2016

 ------------------
 #p CCSD(T)/CEP-31G
 ------------------

 ------------
 H2O_H2O_2153
 ------------
 Symbolic Z-matrix:
 Charge =  0 Multiplicity = 1

                         Standard orientation:
 ---------------------------------------------------------------------
 Center     Atomic      Atomic             Coordinates (Angstroms)
 Number     Number       Type             X           Y           Z
 ---------------------------------------------------------------------
      1          8           0        0.011143   -1.945861    0.000000
      2          1           0       -0.788709   -2.516599    0.000000
      3          1           0        0.810432   -2.517387    0.000000
      4          8           0        0.011143    1.948045    0.000000
      5          1           0        0.684280    2.663860    0.000000
      6          1           0       -0.884288    2.352656    0.000000
 ---------------------------------------------------------------------

 SCF Done:  E(RHF) =  -33.6468692351     A.U. after   11 cycles
 E2 =    -0.2287210072D+00 EUMP2 =    -0.33875590242312D+02
 CCSD(T)
 CCSD(T)= -0.33892737243D+02

 The electronic state is 1-A'.
 Alpha  occ. eigenvalues --   -1.34106  -1.34059  -0.69727  -0.69676  -0.53794
 Alpha  occ. eigenvalues --   -0.53242  -0.48628  -0.48538
 Alpha virt. eigenvalues --    0.21060   0.21781   0.31560   0.31746   0.79174
 Alpha virt. eigenvalues --    0.81319   0.82603   0.86779   0.89668   0.93450
 Alpha virt. eigenvalues --    1.18596   1.18643   1.22998   1.23276   2.58255

 Mulliken charges:
               1
     1  O   -0.724264
     2  H    0.361043
     3  H    0.363233
     4  O   -0.724035
     5  H    0.360697
     6  H    0.363326
 Sum of Mulliken charges =  -0.00000

 Dipole moment (field-independent basis, Debye):
    X=             -0.5086    Y=             -0.0530    Z=              0.0000  Tot=              0.5114
 Quadrupole moment (field-independent basis, Debye-Ang):
   XX=             -8.1768   YY=              8.2991   ZZ=            -14.9840
   XY=             -0.6841   XZ=              0.0000   YZ=              0.0000

 \MP4DQ=-33.8870413\MP4SDQ=-33.8890911\CCSD=-33.8901505\CCSD(T)=-33.892
 Normal termination of Gaussian 16 at Sun Dec 10 07:06:09 2023.
