 Gaussian 16, Revision A.03,
 Gaussian 16:  ES64L-G16RevA.03 25-Dec-2016

 ------------------
 #p CCSD(T)/CEP-31G
 ------------------

 ------------
 H2O_H2O_4222
 ------------
 Symbolic Z-matrix:
 Charge =  0 Multiplicity = 1

                         Standard orientation:
 ---------------------------------------------------------------------
 Center     Atomic      Atomic             Coordinates (Angstroms)
 Number     Number       Type             X           Y           Z
 ---------------------------------------------------------------------
      1          8           0        0.056704   -2.983474    0.000000
      2          1           0       -0.743784   -3.553320    0.000000
      3          1           0        0.855356   -3.555890    0.000000
      4          8           0        0.056704    3.082608    0.000000
      5          1           0       -0.403782    3.950628    0.000000
      6          1           0       -0.615060    2.365504    0.000000
 ---------------------------------------------------------------------

 SCF Done:  E(RHF) =  -33.6519694413     A.U. after   11 cycles
 E2 =    -0.2283787128D+00 EUMP2 =    -0.33880348154105D+02
 CCSD(T)
 CCSD(T)= -0.33897342914D+02

 The electronic state is 1-A'.
 Alpha  occ. eigenvalues --   -1.35663  -1.34863  -0.71297  -0.70482  -0.55409
 Alpha  occ. eigenvalues --   -0.54597  -0.50238  -0.49438
 Alpha virt. eigenvalues --    0.20117   0.20942   0.30359   0.31177   0.80314
 Alpha virt. eigenvalues --    0.81101   0.83317   0.84133   0.86439   0.87303
 Alpha virt. eigenvalues --    1.17246   1.18042   1.21703   1.22516   2.57258

 Mulliken charges:
               1
     1  O   -0.741782
     2  H    0.369366
     3  H    0.372416
     4  O   -0.741544
     5  H    0.367201
     6  H    0.374343
 Sum of Mulliken charges =  -0.00000

 Dipole moment (field-independent basis, Debye):
    X=             -2.6155    Y=             -2.3225    Z=              0.0000  Tot=              3.4979
 Quadrupole moment (field-independent basis, Debye-Ang):
   XX=            -10.1277   YY=              7.8778   ZZ=            -14.9891
   XY=             -7.9984   XZ=              0.0000   YZ=              0.0000

 4DQ=-33.8917002\MP4SDQ=-33.8937274\CCSD=-33.8947821\CCSD(T)=-33.897342
 Normal termination of Gaussian 16 at Sun Dec 10 06:56:06 2023.
