 Gaussian 16, Revision A.03,
 Gaussian 16:  ES64L-G16RevA.03 25-Dec-2016

 ------------------
 #p CCSD(T)/CEP-31G
 ------------------

 ------------
 H2O_H2O_1372
 ------------
 Symbolic Z-matrix:
 Charge =  0 Multiplicity = 1

                         Standard orientation:
 ---------------------------------------------------------------------
 Center     Atomic      Atomic             Coordinates (Angstroms)
 Number     Number       Type             X           Y           Z
 ---------------------------------------------------------------------
      1          8           0        0.056784   -1.467835    0.000000
      2          1           0       -0.744618   -2.036395    0.000000
      3          1           0        0.854516   -2.041532    0.000000
      4          8           0        0.056784    1.566787    0.000000
      5          1           0       -0.402309    2.435545    0.000000
      6          1           0       -0.616131    0.850762    0.000000
 ---------------------------------------------------------------------

 SCF Done:  E(RHF) =  -33.6532395566     A.U. after   11 cycles
 E2 =    -0.2291766635D+00 EUMP2 =    -0.33882416220078D+02
 CCSD(T)
 CCSD(T)= -0.33899442004D+02

 The electronic state is 1-A'.
 Alpha  occ. eigenvalues --   -1.36140  -1.32561  -0.71791  -0.68237  -0.55912
 Alpha  occ. eigenvalues --   -0.52329  -0.50739  -0.47158
 Alpha virt. eigenvalues --    0.19095   0.24818   0.29933   0.34449   0.76747
 Alpha virt. eigenvalues --    0.78154   0.85230   0.86688   0.90195   1.09716
 Alpha virt. eigenvalues --    1.16743   1.20309   1.21921   1.29213   2.54505

 Mulliken charges:
               1
     1  O   -0.751917
     2  H    0.365227
     3  H    0.388156
     4  O   -0.740537
     5  H    0.346741
     6  H    0.392329
 Sum of Mulliken charges =  -0.00000

 Dipole moment (field-independent basis, Debye):
    X=             -2.5332    Y=             -2.5088    Z=              0.0000  Tot=              3.5653
 Quadrupole moment (field-independent basis, Debye-Ang):
   XX=            -10.0990   YY=             -1.5896   ZZ=            -14.9974
   XY=             -4.1049   XZ=              0.0000   YZ=              0.0000

 P4DQ=-33.8936603\MP4SDQ=-33.8957643\CCSD=-33.8967915\CCSD(T)=-33.89944
 Normal termination of Gaussian 16 at Sun Dec 10 06:50:24 2023.
