 Gaussian 16, Revision A.03,
 Gaussian 16:  ES64L-G16RevA.03 25-Dec-2016

 ------------------
 #p CCSD(T)/CEP-31G
 ------------------

 ------------
 H2O_H2O_2500
 ------------
 Symbolic Z-matrix:
 Charge =  0 Multiplicity = 1

                         Standard orientation:
 ---------------------------------------------------------------------
 Center     Atomic      Atomic             Coordinates (Angstroms)
 Number     Number       Type             X           Y           Z
 ---------------------------------------------------------------------
      1          8           0        0.000000   -0.000000    2.133190
      2          1           0        0.000000    0.799571    2.704322
      3          1           0       -0.000000   -0.799571    2.704322
      4          8           0        0.000000   -0.000000   -2.133190
      5          1           0       -0.000000   -0.799571   -2.704322
      6          1           0        0.000000    0.799571   -2.704322
 ---------------------------------------------------------------------

 SCF Done:  E(RHF) =  -33.6479294320     A.U. after   10 cycles
 E2 =    -0.2286198499D+00 EUMP2 =    -0.33876549281849D+02
 CCSD(T)
 CCSD(T)= -0.33893661662D+02

 The electronic state is 1-AG.
 Alpha  occ. eigenvalues --   -1.34303  -1.34298  -0.69925  -0.69918  -0.53939
 Alpha  occ. eigenvalues --   -0.53670  -0.48831  -0.48799
 Alpha virt. eigenvalues --    0.21062   0.21459   0.31435   0.31544   0.81469
 Alpha virt. eigenvalues --    0.81652   0.81995   0.87459   0.88683   0.89007
 Alpha virt. eigenvalues --    1.18441   1.18442   1.22861   1.23014   2.58366

 Mulliken charges:
               1
     1  O   -0.727752
     2  H    0.363876
     3  H    0.363876
     4  O   -0.727752
     5  H    0.363876
     6  H    0.363876
 Sum of Mulliken charges =  -0.00000

 Dipole moment (field-independent basis, Debye):
    X=             -0.0000    Y=              0.0000    Z=             -0.0000  Tot=              0.0000
 Quadrupole moment (field-independent basis, Debye-Ang):
   XX=            -14.9845   YY=             -8.0807   ZZ=             10.4639
   XY=              0.0000   XZ=              0.0000   YZ=             -0.0000

 -33.8879829\MP4SDQ=-33.8900238\CCSD=-33.8910839\CCSD(T)=-33.8936617\RM
 Normal termination of Gaussian 16 at Sun Dec 10 06:24:44 2023.
