 Gaussian 16, Revision A.03,
 Gaussian 16:  ES64L-G16RevA.03 25-Dec-2016

 ------------------
 #p CCSD(T)/CEP-31G
 ------------------

 ------------
 H2O_H2O_2658
 ------------
 Symbolic Z-matrix:
 Charge =  0 Multiplicity = 1

                         Standard orientation:
 ---------------------------------------------------------------------
 Center     Atomic      Atomic             Coordinates (Angstroms)
 Number     Number       Type             X           Y           Z
 ---------------------------------------------------------------------
      1          8           0        0.028565   -2.204688    0.000000
      2          1           0       -0.771640   -2.774931    0.000000
      3          1           0        0.827501   -2.776708    0.000000
      4          8           0        0.028565    2.219928    0.000000
      5          1           0        0.436443    3.113876    0.000000
      6          1           0       -0.949344    2.315845    0.000000
 ---------------------------------------------------------------------

 SCF Done:  E(RHF) =  -33.6489312747     A.U. after   11 cycles
 E2 =    -0.2285739443D+00 EUMP2 =    -0.33877505219026D+02
 CCSD(T)
 CCSD(T)= -0.33894588751D+02

 The electronic state is 1-A'.
 Alpha  occ. eigenvalues --   -1.34598  -1.34359  -0.70223  -0.69972  -0.54191
 Alpha  occ. eigenvalues --   -0.53901  -0.49128  -0.48890
 Alpha virt. eigenvalues --    0.20909   0.21359   0.31248   0.31472   0.81330
 Alpha virt. eigenvalues --    0.81748   0.82347   0.86359   0.87759   0.89182
 Alpha virt. eigenvalues --    1.18184   1.18420   1.22670   1.22908   2.58249

 Mulliken charges:
               1
     1  O   -0.731226
     2  H    0.363636
     3  H    0.367604
     4  O   -0.730409
     5  H    0.362553
     6  H    0.367842
 Sum of Mulliken charges =  -0.00000

 Dipole moment (field-independent basis, Debye):
    X=             -1.3095    Y=             -0.3635    Z=              0.0000  Tot=              1.3590
 Quadrupole moment (field-independent basis, Debye-Ang):
   XX=             -8.5904   YY=             10.2249   ZZ=            -14.9855
   XY=             -2.1992   XZ=              0.0000   YZ=              0.0000

 P4DQ=-33.8889195\MP4SDQ=-33.8909568\CCSD=-33.8920151\CCSD(T)=-33.89458
 Normal termination of Gaussian 16 at Sun Dec 10 06:27:41 2023.
