 Gaussian 16, Revision A.03,
 Gaussian 16:  ES64L-G16RevA.03 25-Dec-2016

 ------------------
 #p CCSD(T)/CEP-31G
 ------------------

 ------------
 H2O_H2O_3803
 ------------
 Symbolic Z-matrix:
 Charge =  0 Multiplicity = 1

                         Standard orientation:
 ---------------------------------------------------------------------
 Center     Atomic      Atomic             Coordinates (Angstroms)
 Number     Number       Type             X           Y           Z
 ---------------------------------------------------------------------
      1          8           0        0.011143   -2.823389    0.000000
      2          1           0       -0.788622   -3.394250    0.000000
      3          1           0        0.810520   -3.394793    0.000000
      4          8           0        0.011143    2.825577    0.000000
      5          1           0        0.684171    3.541494    0.000000
      6          1           0       -0.884350    3.230050    0.000000
 ---------------------------------------------------------------------

 SCF Done:  E(RHF) =  -33.6501499859     A.U. after   11 cycles
 E2 =    -0.2284687221D+00 EUMP2 =    -0.33878618707991D+02
 CCSD(T)
 CCSD(T)= -0.33895666166D+02

 The electronic state is 1-A'.
 Alpha  occ. eigenvalues --   -1.34857  -1.34836  -0.70483  -0.70462  -0.54500
 Alpha  occ. eigenvalues --   -0.54478  -0.49404  -0.49383
 Alpha virt. eigenvalues --    0.20822   0.20848   0.31054   0.31074   0.81149
 Alpha virt. eigenvalues --    0.81171   0.84255   0.84443   0.87379   0.87409
 Alpha virt. eigenvalues --    1.17975   1.17996   1.22447   1.22467   2.58030

 Mulliken charges:
               1
     1  O   -0.735327
     2  H    0.367265
     3  H    0.368062
     4  O   -0.735283
     5  H    0.367101
     6  H    0.368182
 Sum of Mulliken charges =   0.00000

 Dipole moment (field-independent basis, Debye):
    X=             -0.5136    Y=             -0.0514    Z=              0.0000  Tot=              0.5162
 Quadrupole moment (field-independent basis, Debye-Ang):
   XX=             -8.1261   YY=             17.7153   ZZ=            -14.9863
   XY=             -1.1174   XZ=              0.0000   YZ=              0.0000

 P4DQ=-33.8900091\MP4SDQ=-33.8920412\CCSD=-33.8930995\CCSD(T)=-33.89566
 Normal termination of Gaussian 16 at Sun Dec 10 06:48:27 2023.
