 Gaussian 16, Revision A.03,
 Gaussian 16:  ES64L-G16RevA.03 25-Dec-2016

 ------------------
 #p CCSD(T)/CEP-31G
 ------------------

 ------------
 H2O_H2O_3841
 ------------
 Symbolic Z-matrix:
 Charge =  0 Multiplicity = 1

                         Standard orientation:
 ---------------------------------------------------------------------
 Center     Atomic      Atomic             Coordinates (Angstroms)
 Number     Number       Type             X           Y           Z
 ---------------------------------------------------------------------
      1          8           0        0.049504   -2.806936    0.000000
      2          1           0       -0.750923   -3.376866    0.000000
      3          1           0        0.848217   -3.379268    0.000000
      4          8           0        0.049504    2.863901    0.000000
      5          1           0       -0.043856    3.842057    0.000000
      6          1           0       -0.845506    2.458360    0.000000
 ---------------------------------------------------------------------

 SCF Done:  E(RHF) =  -33.6512191217     A.U. after   11 cycles
 E2 =    -0.2284248044D+00 EUMP2 =    -0.33879643926025D+02
 CCSD(T)
 CCSD(T)= -0.33896660571D+02

 The electronic state is 1-A'.
 Alpha  occ. eigenvalues --   -1.35329  -1.34794  -0.70959  -0.70410  -0.55032
 Alpha  occ. eigenvalues --   -0.54492  -0.49892  -0.49357
 Alpha virt. eigenvalues --    0.20410   0.20960   0.30648   0.31180   0.80662
 Alpha virt. eigenvalues --    0.81187   0.83730   0.84279   0.86830   0.87445
 Alpha virt. eigenvalues --    1.17549   1.18079   1.22012   1.22549   2.57579

 Mulliken charges:
               1
     1  O   -0.739133
     2  H    0.367867
     3  H    0.371266
     4  O   -0.738574
     5  H    0.366227
     6  H    0.372347
 Sum of Mulliken charges =   0.00000

 Dipole moment (field-independent basis, Debye):
    X=             -2.2819    Y=             -1.3376    Z=              0.0000  Tot=              2.6451
 Quadrupole moment (field-independent basis, Debye-Ang):
   XX=             -9.6286   YY=             11.9039   ZZ=            -14.9879
   XY=             -5.8611   XZ=              0.0000   YZ=              0.0000

 3\MP4DQ=-33.8910119\MP4SDQ=-33.8930413\CCSD=-33.8940972\CCSD(T)=-33.89
 Normal termination of Gaussian 16 at Sun Dec 10 06:49:09 2023.
