 Gaussian 16, Revision A.03,
 Gaussian 16:  ES64L-G16RevA.03 25-Dec-2016

 ------------------
 #p CCSD(T)/CEP-31G
 ------------------

 ------------
 H2O_H2O_3308
 ------------
 Symbolic Z-matrix:
 Charge =  0 Multiplicity = 1

                         Standard orientation:
 ---------------------------------------------------------------------
 Center     Atomic      Atomic             Coordinates (Angstroms)
 Number     Number       Type             X           Y           Z
 ---------------------------------------------------------------------
      1          8           0        0.028564   -2.550377    0.000000
      2          1           0       -0.771556   -3.120740    0.000000
      3          1           0        0.827586   -3.122277    0.000000
      4          8           0        0.028564    2.565625    0.000000
      5          1           0        0.436307    3.459635    0.000000
      6          1           0       -0.949360    2.661394    0.000000
 ---------------------------------------------------------------------

 SCF Done:  E(RHF) =  -33.6499207884     A.U. after   11 cycles
 E2 =    -0.2284934071D+00 EUMP2 =    -0.33878414195453D+02
 CCSD(T)
 CCSD(T)= -0.33895468482D+02

 The electronic state is 1-A'.
 Alpha  occ. eigenvalues --   -1.34837  -1.34660  -0.70463  -0.70279  -0.54466
 Alpha  occ. eigenvalues --   -0.54287  -0.49380  -0.49204
 Alpha virt. eigenvalues --    0.20823   0.21020   0.31063   0.31233   0.81170
 Alpha virt. eigenvalues --    0.81349   0.84028   0.84890   0.87410   0.87674
 Alpha virt. eigenvalues --    1.17986   1.18161   1.22461   1.22636   2.58048

 Mulliken charges:
               1
     1  O   -0.734581
     2  H    0.365954
     3  H    0.368627
     4  O   -0.734158
     5  H    0.365210
     6  H    0.368947
 Sum of Mulliken charges =   0.00000

 Dipole moment (field-independent basis, Debye):
    X=             -1.3144    Y=             -0.3598    Z=              0.0000  Tot=              1.3627
 Quadrupole moment (field-independent basis, Debye-Ang):
   XX=             -8.5779   YY=             13.7195   ZZ=            -14.9862
   XY=             -2.6403   XZ=              0.0000   YZ=              0.0000

 \MP4DQ=-33.8898094\MP4SDQ=-33.8918423\CCSD=-33.8929005\CCSD(T)=-33.895
 Normal termination of Gaussian 16 at Sun Dec 10 06:39:24 2023.
