 Gaussian 16, Revision A.03,
 Gaussian 16:  ES64L-G16RevA.03 25-Dec-2016

 ------------------
 #p CCSD(T)/CEP-31G
 ------------------

 -----------
 H2O_H2O_765
 -----------
 Symbolic Z-matrix:
 Charge =  0 Multiplicity = 1

                         Standard orientation:
 ---------------------------------------------------------------------
 Center     Atomic      Atomic             Coordinates (Angstroms)
 Number     Number       Type             X           Y           Z
 ---------------------------------------------------------------------
      1          8           0        0.047574   -1.175077    0.000000
      2          1           0       -0.753937   -1.743483    0.000000
      3          1           0        0.845195   -1.748929    0.000000
      4          8           0        0.047574    1.225519    0.000000
      5          1           0        0.020258    2.207742    0.000000
      6          1           0       -0.872701    0.881136    0.000000
 ---------------------------------------------------------------------

 SCF Done:  E(RHF) =  -33.6361585746     A.U. after   11 cycles
 E2 =    -0.2304626778D+00 EUMP2 =    -0.33866621252481D+02
 CCSD(T)
 CCSD(T)= -0.33883950437D+02

 The electronic state is 1-A'.
 Alpha  occ. eigenvalues --   -1.34426  -1.31777  -0.70069  -0.67788  -0.54881
 Alpha  occ. eigenvalues --   -0.49451  -0.49066  -0.46087
 Alpha virt. eigenvalues --    0.20124   0.25593   0.31359   0.33348   0.78359
 Alpha virt. eigenvalues --    0.83819   0.88860   0.91513   0.95590   1.15510
 Alpha virt. eigenvalues --    1.18947   1.22009   1.23491   1.30670   2.59130

 Mulliken charges:
               1
     1  O   -0.741844
     2  H    0.351090
     3  H    0.381590
     4  O   -0.692591
     5  H    0.338523
     6  H    0.363231
 Sum of Mulliken charges =   0.00000

 Dipole moment (field-independent basis, Debye):
    X=             -2.0112    Y=             -1.2568    Z=              0.0000  Tot=              2.3716
 Quadrupole moment (field-independent basis, Debye-Ang):
   XX=             -9.5545   YY=             -1.9385   ZZ=            -14.9947
   XY=             -2.0752   XZ=              0.0000   YZ=              0.0000

 P4DQ=-33.8779705\MP4SDQ=-33.880149\CCSD=-33.8811975\CCSD(T)=-33.883950
 Normal termination of Gaussian 16 at Sun Dec 10 06:39:02 2023.
