 Gaussian 16, Revision A.03,
 Gaussian 16:  ES64L-G16RevA.03 25-Dec-2016

 ------------------
 #p CCSD(T)/CEP-31G
 ------------------

 ------------
 H2O_H2O_3360
 ------------
 Symbolic Z-matrix:
 Charge =  0 Multiplicity = 1

                         Standard orientation:
 ---------------------------------------------------------------------
 Center     Atomic      Atomic             Coordinates (Angstroms)
 Number     Number       Type             X           Y           Z
 ---------------------------------------------------------------------
      1          8           0        0.034782   -2.572475    0.000000
      2          1           0       -0.765450   -3.142680    0.000000
      3          1           0        0.833691   -3.144532    0.000000
      4          8           0        0.034782    2.595999    0.000000
      5          1           0        0.322530    3.535523    0.000000
      6          1           0       -0.947282    2.563497    0.000000
 ---------------------------------------------------------------------

 SCF Done:  E(RHF) =  -33.6501867009     A.U. after   11 cycles
 E2 =    -0.2284819363D+00 EUMP2 =    -0.33878668637220D+02
 CCSD(T)
 CCSD(T)= -0.33895715283D+02

 The electronic state is 1-A'.
 Alpha  occ. eigenvalues --   -1.34936  -1.34669  -0.70563  -0.70286  -0.54581
 Alpha  occ. eigenvalues --   -0.54312  -0.49484  -0.49217
 Alpha virt. eigenvalues --    0.20740   0.21024   0.30979   0.31237   0.81068
 Alpha virt. eigenvalues --    0.81332   0.84004   0.84738   0.87295   0.87661
 Alpha virt. eigenvalues --    1.17898   1.18162   1.22370   1.22635   2.57952

 Mulliken charges:
               1
     1  O   -0.735517
     2  H    0.366181
     3  H    0.369336
     4  O   -0.734948
     5  H    0.365165
     6  H    0.369782
 Sum of Mulliken charges =   0.00000

 Dipole moment (field-independent basis, Debye):
    X=             -1.6008    Y=             -0.5547    Z=              0.0000  Tot=              1.6941
 Quadrupole moment (field-independent basis, Debye-Ang):
   XX=             -8.8299   YY=             13.2125   ZZ=            -14.9866
   XY=             -3.3480   XZ=              0.0000   YZ=              0.0000

 \MP4DQ=-33.8900583\MP4SDQ=-33.8920905\CCSD=-33.8931482\CCSD(T)=-33.895
 Normal termination of Gaussian 16 at Sun Dec 10 06:40:20 2023.
