 Gaussian 16, Revision A.03,
 Gaussian 16:  ES64L-G16RevA.03 25-Dec-2016

 ------------------
 #p CCSD(T)/CEP-31G
 ------------------

 -----------
 H2O_H2O_307
 -----------
 Symbolic Z-matrix:
 Charge =  0 Multiplicity = 1

                         Standard orientation:
 ---------------------------------------------------------------------
 Center     Atomic      Atomic             Coordinates (Angstroms)
 Number     Number       Type             X           Y           Z
 ---------------------------------------------------------------------
      1          8           0        0.025274   -0.956813    0.000000
      2          1           0       -0.775585   -1.526137    0.000000
      3          1           0        0.823553   -1.529749    0.000000
      4          8           0        0.025274    0.968478    0.000000
      5          1           0        0.491737    1.833301    0.000000
      6          1           0       -0.944084    1.129259    0.000000
 ---------------------------------------------------------------------

 SCF Done:  E(RHF) =  -33.5804350386     A.U. after   11 cycles
 E2 =    -0.2331704227D+00 EUMP2 =    -0.33813605461313D+02
 CCSD(T)
 CCSD(T)= -0.33830695849D+02

 The electronic state is 1-A'.
 Alpha  occ. eigenvalues --   -1.34010  -1.30145  -0.69120  -0.66606  -0.59411
 Alpha  occ. eigenvalues --   -0.48936  -0.43796  -0.40236
 Alpha virt. eigenvalues --    0.21150   0.26737   0.32338   0.33439   0.80939
 Alpha virt. eigenvalues --    0.81011   0.90081   0.94810   1.02369   1.19854
 Alpha virt. eigenvalues --    1.20368   1.23667   1.26951   1.30217   2.49223

 Mulliken charges:
               1
     1  O   -0.717722
     2  H    0.339951
     3  H    0.369220
     4  O   -0.684585
     5  H    0.350389
     6  H    0.342746
 Sum of Mulliken charges =  -0.00000

 Dipole moment (field-independent basis, Debye):
    X=             -0.9662    Y=             -0.2817    Z=              0.0000  Tot=              1.0064
 Quadrupole moment (field-independent basis, Debye-Ang):
   XX=             -8.7272   YY=             -4.6088   ZZ=            -15.0184
   XY=             -0.6027   XZ=              0.0000   YZ=              0.0000

 P4DQ=-33.8243738\MP4SDQ=-33.826726\CCSD=-33.827661\CCSD(T)=-33.8306958
 Normal termination of Gaussian 16 at Sun Dec 10 06:30:30 2023.
