 Gaussian 16, Revision A.03,
 Gaussian 16:  ES64L-G16RevA.03 25-Dec-2016

 ------------------
 #p CCSD(T)/CEP-31G
 ------------------

 ------------
 H2O_H2O_3809
 ------------
 Symbolic Z-matrix:
 Charge =  0 Multiplicity = 1

                         Standard orientation:
 ---------------------------------------------------------------------
 Center     Atomic      Atomic             Coordinates (Angstroms)
 Number     Number       Type             X           Y           Z
 ---------------------------------------------------------------------
      1          8           0        0.031740   -2.814155    0.000000
      2          1           0       -0.768383   -3.384514    0.000000
      3          1           0        0.830758   -3.386060    0.000000
      4          8           0        0.031740    2.833344    0.000000
      5          1           0        0.380144    3.752105    0.000000
      6          1           0       -0.950353    2.864955    0.000000
 ---------------------------------------------------------------------

 SCF Done:  E(RHF) =  -33.6504776033     A.U. after   11 cycles
 E2 =    -0.2284572213D+00 EUMP2 =    -0.33878934824669D+02
 CCSD(T)
 CCSD(T)= -0.33895972917D+02

 The electronic state is 1-A'.
 Alpha  occ. eigenvalues --   -1.35004  -1.34822  -0.70631  -0.70444  -0.54665
 Alpha  occ. eigenvalues --   -0.54483  -0.49555  -0.49374
 Alpha virt. eigenvalues --    0.20695   0.20880   0.30927   0.31104   0.80998
 Alpha virt. eigenvalues --    0.81177   0.84120   0.84361   0.87210   0.87432
 Alpha virt. eigenvalues --    1.17842   1.18022   1.22311   1.22492   2.57891

 Mulliken charges:
               1
     1  O   -0.736496
     2  H    0.367119
     3  H    0.369378
     4  O   -0.736173
     5  H    0.366428
     6  H    0.369745
 Sum of Mulliken charges =  -0.00000

 Dipole moment (field-independent basis, Debye):
    X=             -1.4630    Y=             -0.4506    Z=              0.0000  Tot=              1.5308
 Quadrupole moment (field-independent basis, Debye-Ang):
   XX=             -8.6956   YY=             15.9803   ZZ=            -14.9868
   XY=             -3.3550   XZ=              0.0000   YZ=              0.0000

 \MP4DQ=-33.8903184\MP4SDQ=-33.8923497\CCSD=-33.8934073\CCSD(T)=-33.895
 Normal termination of Gaussian 16 at Sun Dec 10 06:48:34 2023.
