 Gaussian 16, Revision A.03,
 Gaussian 16:  ES64L-G16RevA.03 25-Dec-2016

 ------------------
 #p CCSD(T)/CEP-31G
 ------------------

 -----------
 H2O_H2O_285
 -----------
 Symbolic Z-matrix:
 Charge =  0 Multiplicity = 1

                         Standard orientation:
 ---------------------------------------------------------------------
 Center     Atomic      Atomic             Coordinates (Angstroms)
 Number     Number       Type             X           Y           Z
 ---------------------------------------------------------------------
      1          8           0        0.034805   -0.937150    0.000000
      2          1           0       -0.766563   -1.505757    0.000000
      3          1           0        0.832571   -1.510801    0.000000
      4          8           0        0.034805    0.960535    0.000000
      5          1           0        0.324429    1.899483    0.000000
      6          1           0       -0.947322    0.929994    0.000000
 ---------------------------------------------------------------------

 SCF Done:  E(RHF) =  -33.5780996306     A.U. after   11 cycles
 E2 =    -0.2333745734D+00 EUMP2 =    -0.33811474203960D+02
 CCSD(T)
 CCSD(T)= -0.33828596412D+02

 The electronic state is 1-A'.
 Alpha  occ. eigenvalues --   -1.34671  -1.30098  -0.69964  -0.67181  -0.58711
 Alpha  occ. eigenvalues --   -0.49503  -0.43860  -0.40796
 Alpha virt. eigenvalues --    0.20778   0.27129   0.31929   0.33410   0.80811
 Alpha virt. eigenvalues --    0.83186   0.89951   0.95832   0.99827   1.19338
 Alpha virt. eigenvalues --    1.19666   1.24706   1.26621   1.31931   2.50977

 Mulliken charges:
               1
     1  O   -0.736216
     2  H    0.340913
     3  H    0.379139
     4  O   -0.671924
     5  H    0.344679
     6  H    0.343409
 Sum of Mulliken charges =  -0.00000

 Dipole moment (field-independent basis, Debye):
    X=             -1.3285    Y=             -0.5700    Z=              0.0000  Tot=              1.4456
 Quadrupole moment (field-independent basis, Debye-Ang):
   XX=             -9.0434   YY=             -4.9614   ZZ=            -15.0049
   XY=             -0.9167   XZ=              0.0000   YZ=              0.0000

 4DQ=-33.8222389\MP4SDQ=-33.824628\CCSD=-33.8255404\CCSD(T)=-33.8285964
 Normal termination of Gaussian 16 at Sun Dec 10 06:30:05 2023.
