 Gaussian 16, Revision A.03,
 Gaussian 16:  ES64L-G16RevA.03 25-Dec-2016

 ------------------
 #p CCSD(T)/CEP-31G
 ------------------

 ------------
 H2O_H2O_3152
 ------------
 Symbolic Z-matrix:
 Charge =  0 Multiplicity = 1

                         Standard orientation:
 ---------------------------------------------------------------------
 Center     Atomic      Atomic             Coordinates (Angstroms)
 Number     Number       Type             X           Y           Z
 ---------------------------------------------------------------------
      1          8           0        0.007455   -2.478355    0.000000
      2          1           0       -0.792264   -3.049280    0.000000
      3          1           0        0.806878   -3.049694    0.000000
      4          8           0        0.007455    2.479328    0.000000
      5          1           0        0.725811    3.149753    0.000000
      6          1           0       -0.859705    2.941434    0.000000
 ---------------------------------------------------------------------

 SCF Done:  E(RHF) =  -33.6493293783     A.U. after   11 cycles
 E2 =    -0.2285190789D+00 EUMP2 =    -0.33877848457191D+02
 CCSD(T)
 CCSD(T)= -0.33894919691D+02

 The electronic state is 1-A'.
 Alpha  occ. eigenvalues --   -1.34630  -1.34618  -0.70254  -0.70241  -0.54245
 Alpha  occ. eigenvalues --   -0.54189  -0.49165  -0.49152
 Alpha virt. eigenvalues --    0.20964   0.21063   0.31229   0.31252   0.81356
 Alpha virt. eigenvalues --    0.81430   0.83939   0.85417   0.87588   0.87754
 Alpha virt. eigenvalues --    1.18169   1.18180   1.22641   1.22668   2.58244

 Mulliken charges:
               1
     1  O   -0.732509
     2  H    0.365872
     3  H    0.366636
     4  O   -0.732473
     5  H    0.365743
     6  H    0.366730
 Sum of Mulliken charges =   0.00000

 Dipole moment (field-independent basis, Debye):
    X=             -0.3429    Y=             -0.0230    Z=              0.0000  Tot=              0.3436
 Quadrupole moment (field-independent basis, Debye-Ang):
   XX=             -8.0943   YY=             14.1312   ZZ=            -14.9855
   XY=             -0.6289   XZ=              0.0000   YZ=              0.0000

 4DQ=-33.8892558\MP4SDQ=-33.8912903\CCSD=-33.8923497\CCSD(T)=-33.894919
 Normal termination of Gaussian 16 at Sun Dec 10 06:36:37 2023.
