 Gaussian 16, Revision A.03,
 Gaussian 16:  ES64L-G16RevA.03 25-Dec-2016

 ------------------
 #p CCSD(T)/CEP-31G
 ------------------

 ------------
 H2O_H2O_4591
 ------------
 Symbolic Z-matrix:
 Charge =  0 Multiplicity = 1

                         Standard orientation:
 ---------------------------------------------------------------------
 Center     Atomic      Atomic             Coordinates (Angstroms)
 Number     Number       Type             X           Y           Z
 ---------------------------------------------------------------------
      1          8           0        0.049499   -3.205803    0.000000
      2          1           0       -0.750823   -3.775882    0.000000
      3          1           0        0.848317   -3.777987    0.000000
      4          8           0        0.049499    3.262786    0.000000
      5          1           0       -0.044042    4.240925    0.000000
      6          1           0       -0.845436    2.857081    0.000000
 ---------------------------------------------------------------------

 SCF Done:  E(RHF) =  -33.6514081580     A.U. after   11 cycles
 E2 =    -0.2284047822D+00 EUMP2 =    -0.33879812940179D+02
 CCSD(T)
 CCSD(T)= -0.33896824149D+02

 The electronic state is 1-A'.
 Alpha  occ. eigenvalues --   -1.35391  -1.34985  -0.71022  -0.70607  -0.55105
 Alpha  occ. eigenvalues --   -0.54695  -0.49957  -0.49551
 Alpha virt. eigenvalues --    0.20359   0.20774   0.30597   0.31003   0.80596
 Alpha virt. eigenvalues --    0.80996   0.83657   0.84062   0.86755   0.87207
 Alpha virt. eigenvalues --    1.17495   1.17898   1.21956   1.22364   2.57521

 Mulliken charges:
               1
     1  O   -0.739775
     2  H    0.368713
     3  H    0.371062
     4  O   -0.739476
     5  H    0.367587
     6  H    0.371888
 Sum of Mulliken charges =  -0.00000

 Dipole moment (field-independent basis, Debye):
    X=             -2.2851    Y=             -1.3320    Z=              0.0000  Tot=              2.6450
 Quadrupole moment (field-independent basis, Debye-Ang):
   XX=             -9.6289   YY=             15.1118   ZZ=            -14.9880
   XY=             -6.7628   XZ=              0.0000   YZ=              0.0000

 4\MP4DQ=-33.8911771\MP4SDQ=-33.8932058\CCSD=-33.8942618\CCSD(T)=-33.89
 Normal termination of Gaussian 16 at Sun Dec 10 07:04:17 2023.
