 Gaussian 16, Revision A.03,
 Gaussian 16:  ES64L-G16RevA.03 25-Dec-2016

 ------------------
 #p CCSD(T)/CEP-31G
 ------------------

 ------------
 H2O_H2O_1453
 ------------
 Symbolic Z-matrix:
 Charge =  0 Multiplicity = 1

                         Standard orientation:
 ---------------------------------------------------------------------
 Center     Atomic      Atomic             Coordinates (Angstroms)
 Number     Number       Type             X           Y           Z
 ---------------------------------------------------------------------
      1          8           0        0.011143   -1.573577    0.000000
      2          1           0       -0.788776   -2.144222    0.000000
      3          1           0        0.810366   -2.145196    0.000000
      4          8           0        0.011143    1.575758    0.000000
      5          1           0        0.684364    2.291495    0.000000
      6          1           0       -0.884241    1.980473    0.000000
 ---------------------------------------------------------------------

 SCF Done:  E(RHF) =  -33.6422338419     A.U. after   11 cycles
 E2 =    -0.2291061708D+00 EUMP2 =    -0.33871340012702D+02
 CCSD(T)
 CCSD(T)= -0.33888655684D+02

 The electronic state is 1-A'.
 Alpha  occ. eigenvalues --   -1.33455  -1.33314  -0.69065  -0.68932  -0.53653
 Alpha  occ. eigenvalues --   -0.51492  -0.48021  -0.47634
 Alpha virt. eigenvalues --    0.21190   0.22740   0.31973   0.32330   0.77143
 Alpha virt. eigenvalues --    0.80252   0.83425   0.85249   0.95418   1.06116
 Alpha virt. eigenvalues --    1.19089   1.19410   1.23581   1.24060   2.59966

 Mulliken charges:
               1
     1  O   -0.711825
     2  H    0.353973
     3  H    0.357830
     4  O   -0.711157
     5  H    0.353751
     6  H    0.357428
 Sum of Mulliken charges =   0.00000

 Dipole moment (field-independent basis, Debye):
    X=             -0.5008    Y=             -0.0545    Z=              0.0000  Tot=              0.5037
 Quadrupole moment (field-independent basis, Debye-Ang):
   XX=             -8.2389   YY=              4.1255   ZZ=            -14.9838
   XY=             -0.5101   XZ=              0.0000   YZ=              0.0000

 P4DQ=-33.8828738\MP4SDQ=-33.8849571\CCSD=-33.8860289\CCSD(T)=-33.88865
 Normal termination of Gaussian 16 at Sun Dec 10 06:51:54 2023.
