 Gaussian 16, Revision A.03,
 Gaussian 16:  ES64L-G16RevA.03 25-Dec-2016

 ------------------
 #p CCSD(T)/CEP-31G
 ------------------

 ------------
 H2O_H2O_2793
 ------------
 Symbolic Z-matrix:
 Charge =  0 Multiplicity = 1

                         Standard orientation:
 ---------------------------------------------------------------------
 Center     Atomic      Atomic             Coordinates (Angstroms)
 Number     Number       Type             X           Y           Z
 ---------------------------------------------------------------------
      1          8           0        0.052836   -2.241263    0.000000
      2          1           0       -0.747873   -2.810798    0.000000
      3          1           0        0.851266   -2.813989    0.000000
      4          8           0        0.052836    2.311566    0.000000
      5          1           0       -0.166927    3.269277    0.000000
      6          1           0       -0.781840    1.793086    0.000000
 ---------------------------------------------------------------------

 SCF Done:  E(RHF) =  -33.6512443569     A.U. after   11 cycles
 E2 =    -0.2284754114D+00 EUMP2 =    -0.33879719768238D+02
 CCSD(T)
 CCSD(T)= -0.33896736504D+02

 The electronic state is 1-A'.
 Alpha  occ. eigenvalues --   -1.35374  -1.34324  -0.71007  -0.69919  -0.55080
 Alpha  occ. eigenvalues --   -0.54013  -0.49937  -0.48889
 Alpha virt. eigenvalues --    0.20239   0.21551   0.30586   0.31664   0.80606
 Alpha virt. eigenvalues --    0.81654   0.82583   0.85237   0.86757   0.88771
 Alpha virt. eigenvalues --    1.17504   1.18587   1.21937   1.23118   2.57539

 Mulliken charges:
               1
     1  O   -0.739283
     2  H    0.366373
     3  H    0.372972
     4  O   -0.737759
     5  H    0.362585
     6  H    0.375111
 Sum of Mulliken charges =   0.00000

 Dipole moment (field-independent basis, Debye):
    X=             -2.4244    Y=             -1.6735    Z=              0.0000  Tot=              2.9459
 Quadrupole moment (field-independent basis, Debye-Ang):
   XX=             -9.8460   YY=              6.1297   ZZ=            -14.9887
   XY=             -5.1420   XZ=              0.0000   YZ=              0.0000

 7\MP4DQ=-33.8910852\MP4SDQ=-33.8931168\CCSD=-33.8941699\CCSD(T)=-33.89
 Normal termination of Gaussian 16 at Sun Dec 10 06:30:12 2023.
