 Gaussian 16, Revision A.03,
 Gaussian 16:  ES64L-G16RevA.03 25-Dec-2016

 ------------------
 #p CCSD(T)/CEP-31G
 ------------------

 -----------
 H2O_H2O_724
 -----------
 Symbolic Z-matrix:
 Charge =  0 Multiplicity = 1

                         Standard orientation:
 ---------------------------------------------------------------------
 Center     Atomic      Atomic             Coordinates (Angstroms)
 Number     Number       Type             X           Y           Z
 ---------------------------------------------------------------------
      1          8           0        0.057352   -1.114105    0.000000
      2          1           0       -0.744609   -1.681875    0.000000
      3          1           0        0.854518   -1.688589    0.000000
      4          8           0        0.057352    1.227851    0.000000
      5          1           0       -0.510417    2.029813    0.000000
      6          1           0       -0.517132    0.430684    0.000000
 ---------------------------------------------------------------------

 SCF Done:  E(RHF) =  -33.6409014194     A.U. after   11 cycles
 E2 =    -0.2303665051D+00 EUMP2 =    -0.33871267924499D+02
 CCSD(T)
 CCSD(T)= -0.33887710825D+02

 The electronic state is 1-A'.
 Alpha  occ. eigenvalues --   -1.37978  -1.30367  -0.73672  -0.69277  -0.54817
 Alpha  occ. eigenvalues --   -0.52482  -0.50347  -0.44890
 Alpha virt. eigenvalues --    0.18596   0.27686   0.28756   0.38461   0.76245
 Alpha virt. eigenvalues --    0.83299   0.89224   0.89955   0.98483   1.12118
 Alpha virt. eigenvalues --    1.18438   1.19283   1.26465   1.31596   2.71575

 Mulliken charges:
               1
     1  O   -0.790349
     2  H    0.373482
     3  H    0.424923
     4  O   -0.725774
     5  H    0.324460
     6  H    0.393258
 Sum of Mulliken charges =   0.00000

 Dipole moment (field-independent basis, Debye):
    X=             -2.3940    Y=             -3.1135    Z=              0.0000  Tot=              3.9275
 Quadrupole moment (field-independent basis, Debye-Ang):
   XX=            -10.1101   YY=             -5.1781   ZZ=            -15.0075
   XY=             -3.4624   XZ=              0.0000   YZ=              0.0000

 \MP4DQ=-33.881669\MP4SDQ=-33.8838999\CCSD=-33.8848037\CCSD(T)=-33.8877
 Normal termination of Gaussian 16 at Sun Dec 10 06:38:16 2023.
