 Gaussian 16, Revision A.03,
 Gaussian 16:  ES64L-G16RevA.03 25-Dec-2016

 ------------------
 #p CCSD(T)/CEP-31G
 ------------------

 ------------
 H2O_H2O_2024
 ------------
 Symbolic Z-matrix:
 Charge =  0 Multiplicity = 1

                         Standard orientation:
 ---------------------------------------------------------------------
 Center     Atomic      Atomic             Coordinates (Angstroms)
 Number     Number       Type             X           Y           Z
 ---------------------------------------------------------------------
      1          8           0        0.057264   -1.805399    0.000000
      2          1           0       -0.743812   -2.374419    0.000000
      3          1           0        0.855324   -2.378640    0.000000
      4          8           0        0.057264    1.919324    0.000000
      5          1           0       -0.511755    2.720401    0.000000
      6          1           0       -0.515977    1.121263    0.000000
 ---------------------------------------------------------------------

 SCF Done:  E(RHF) =  -33.6541397449     A.U. after   11 cycles
 E2 =    -0.2286107696D+00 EUMP2 =    -0.33882750514466D+02
 CCSD(T)
 CCSD(T)= -0.33899713168D+02

 The electronic state is 1-A'.
 Alpha  occ. eigenvalues --   -1.36192  -1.33501  -0.71836  -0.69064  -0.56072
 Alpha  occ. eigenvalues --   -0.53275  -0.50795  -0.48102
 Alpha virt. eigenvalues --    0.19050   0.23189   0.29863   0.33139   0.79486
 Alpha virt. eigenvalues --    0.79703   0.82687   0.85592   0.86557   0.94758
 Alpha virt. eigenvalues --    1.16757   1.19947   1.21232   1.27381   2.54714

 Mulliken charges:
               1
     1  O   -0.748525
     2  H    0.369051
     3  H    0.380815
     4  O   -0.748264
     5  H    0.357424
     6  H    0.389499
 Sum of Mulliken charges =   0.00000

 Dipole moment (field-independent basis, Debye):
    X=             -2.6072    Y=             -2.7966    Z=              0.0000  Tot=              3.8235
 Quadrupole moment (field-independent basis, Debye-Ang):
   XX=            -10.1486   YY=             -0.6135   ZZ=            -14.9945
   XY=             -5.3000   XZ=              0.0000   YZ=              0.0000

 9\MP4DQ=-33.8940328\MP4SDQ=-33.8960893\CCSD=-33.8971249\CCSD(T)=-33.89
 Normal termination of Gaussian 16 at Sun Dec 10 07:03:50 2023.
