 Gaussian 16, Revision A.03,
 Gaussian 16:  ES64L-G16RevA.03 25-Dec-2016

 ------------------
 #p CCSD(T)/CEP-31G
 ------------------

 ------------
 H2O_H2O_4522
 ------------
 Symbolic Z-matrix:
 Charge =  0 Multiplicity = 1

                         Standard orientation:
 ---------------------------------------------------------------------
 Center     Atomic      Atomic             Coordinates (Angstroms)
 Number     Number       Type             X           Y           Z
 ---------------------------------------------------------------------
      1          8           0        0.056700   -3.143020    0.000000
      2          1           0       -0.743742   -3.712930    0.000000
      3          1           0        0.855398   -3.715372    0.000000
      4          8           0        0.056700    3.242164    0.000000
      5          1           0       -0.403856    4.110146    0.000000
      6          1           0       -0.615006    2.525005    0.000000
 ---------------------------------------------------------------------

 SCF Done:  E(RHF) =  -33.6519403102     A.U. after   11 cycles
 E2 =    -0.2283766965D+00 EUMP2 =    -0.33880317006664D+02
 CCSD(T)
 CCSD(T)= -0.33897312672D+02

 The electronic state is 1-A'.
 Alpha  occ. eigenvalues --   -1.35657  -1.34939  -0.71290  -0.70561  -0.55400
 Alpha  occ. eigenvalues --   -0.54673  -0.50231  -0.49513
 Alpha virt. eigenvalues --    0.20123   0.20861   0.30364   0.31096   0.80321
 Alpha virt. eigenvalues --    0.81028   0.83330   0.84059   0.86448   0.87218
 Alpha virt. eigenvalues --    1.17252   1.17966   1.21708   1.22437   2.57265

 Mulliken charges:
               1
     1  O   -0.741675
     2  H    0.369517
     3  H    0.372158
     4  O   -0.741489
     5  H    0.367667
     6  H    0.373822
 Sum of Mulliken charges =   0.00000

 Dipole moment (field-independent basis, Debye):
    X=             -2.6167    Y=             -2.3187    Z=              0.0000  Tot=              3.4962
 Quadrupole moment (field-independent basis, Debye-Ang):
   XX=            -10.1284   YY=              8.8453   ZZ=            -14.9890
   XY=             -8.4130   XZ=              0.0000   YZ=              0.0000

 4DQ=-33.8916697\MP4SDQ=-33.893697\CCSD=-33.8947519\CCSD(T)=-33.8973127
 Normal termination of Gaussian 16 at Sun Dec 10 07:02:53 2023.
