 Gaussian 16, Revision A.03,
 Gaussian 16:  ES64L-G16RevA.03 25-Dec-2016

 ------------------
 #p CCSD(T)/CEP-31G
 ------------------

 ------------
 H2O_H2O_3112
 ------------
 Symbolic Z-matrix:
 Charge =  0 Multiplicity = 1

                         Standard orientation:
 ---------------------------------------------------------------------
 Center     Atomic      Atomic             Coordinates (Angstroms)
 Number     Number       Type             X           Y           Z
 ---------------------------------------------------------------------
      1          8           0        0.040409   -2.434183    0.000000
      2          1           0       -0.759972   -3.004180    0.000000
      3          1           0        0.839169   -3.006449    0.000000
      4          8           0        0.040409    2.467525    0.000000
      5          1           0        0.203315    3.436529    0.000000
      6          1           0       -0.929053    2.307369    0.000000
 ---------------------------------------------------------------------

 SCF Done:  E(RHF) =  -33.6502082077     A.U. after   11 cycles
 E2 =    -0.2284929567D+00 EUMP2 =    -0.33878701164333D+02
 CCSD(T)
 CCSD(T)= -0.33895747433D+02

 The electronic state is 1-A'.
 Alpha  occ. eigenvalues --   -1.34978  -1.34554  -0.70606  -0.70166  -0.54624
 Alpha  occ. eigenvalues --   -0.54197  -0.49526  -0.49104
 Alpha virt. eigenvalues --    0.20684   0.21157   0.30938   0.31350   0.81023
 Alpha virt. eigenvalues --    0.81445   0.83659   0.85030   0.87251   0.87938
 Alpha virt. eigenvalues --    1.17857   1.18276   1.22328   1.22751   2.57911

 Mulliken charges:
               1
     1  O   -0.735633
     2  H    0.365709
     3  H    0.369929
     4  O   -0.734715
     5  H    0.364146
     6  H    0.370565
 Sum of Mulliken charges =   0.00000

 Dipole moment (field-independent basis, Debye):
    X=             -1.8576    Y=             -0.7886    Z=              0.0000  Tot=              2.0180
 Quadrupole moment (field-independent basis, Debye-Ang):
   XX=             -9.1035   YY=             11.0380   ZZ=            -14.9868
   XY=             -3.7734   XZ=              0.0000   YZ=              0.0000

 MP4DQ=-33.8900902\MP4SDQ=-33.8921227\CCSD=-33.8931798\CCSD(T)=-33.8957
 Normal termination of Gaussian 16 at Sun Dec 10 06:35:55 2023.
