 Gaussian 16, Revision A.03,
 Gaussian 16:  ES64L-G16RevA.03 25-Dec-2016

 ------------------
 #p CCSD(T)/CEP-31G
 ------------------

 ------------
 H2O_H2O_3672
 ------------
 Symbolic Z-matrix:
 Charge =  0 Multiplicity = 1

                         Standard orientation:
 ---------------------------------------------------------------------
 Center     Atomic      Atomic             Coordinates (Angstroms)
 Number     Number       Type             X           Y           Z
 ---------------------------------------------------------------------
      1          8           0        0.056713   -2.690974    0.000000
      2          1           0       -0.743873   -3.260683    0.000000
      3          1           0        0.855267   -3.263527    0.000000
      4          8           0        0.056713    2.790089    0.000000
      5          1           0       -0.403625    3.658187    0.000000
      6          1           0       -0.615175    2.073100    0.000000
 ---------------------------------------------------------------------

 SCF Done:  E(RHF) =  -33.6520527317     A.U. after   11 cycles
 E2 =    -0.2283849354D+00 EUMP2 =    -0.33880437667061D+02
 CCSD(T)
 CCSD(T)= -0.33897429979D+02

 The electronic state is 1-A'.
 Alpha  occ. eigenvalues --   -1.35682  -1.34689  -0.71316  -0.70301  -0.55433
 Alpha  occ. eigenvalues --   -0.54422  -0.50257  -0.49264
 Alpha virt. eigenvalues --    0.20095   0.21137   0.30345   0.31363   0.80297
 Alpha virt. eigenvalues --    0.81269   0.83269   0.84318   0.86415   0.87505
 Alpha virt. eigenvalues --    1.17232   1.18219   1.21686   1.22706   2.57235

 Mulliken charges:
               1
     1  O   -0.742086
     2  H    0.369017
     3  H    0.373072
     4  O   -0.741693
     5  H    0.366059
     6  H    0.375629
 Sum of Mulliken charges =   0.00000

 Dipole moment (field-independent basis, Debye):
    X=             -2.6126    Y=             -2.3321    Z=              0.0000  Tot=              3.5020
 Quadrupole moment (field-independent basis, Debye-Ang):
   XX=            -10.1259   YY=              6.0988   ZZ=            -14.9895
   XY=             -7.2399   XZ=              0.0000   YZ=              0.0000

 MP4DQ=-33.8917876\MP4SDQ=-33.8938148\CCSD=-33.8948689\CCSD(T)=-33.8974
 Normal termination of Gaussian 16 at Sun Dec 10 06:46:02 2023.
