 Gaussian 16, Revision A.03,
 Gaussian 16:  ES64L-G16RevA.03 25-Dec-2016

 ------------------
 #p CCSD(T)/CEP-31G
 ------------------

 -----------
 H2O_H2O_800
 -----------
 Symbolic Z-matrix:
 Charge =  0 Multiplicity = 1

                         Standard orientation:
 ---------------------------------------------------------------------
 Center     Atomic      Atomic             Coordinates (Angstroms)
 Number     Number       Type             X           Y           Z
 ---------------------------------------------------------------------
      1          8           0        0.000000   -0.000000    1.229068
      2          1           0        0.000000    0.799571    1.800200
      3          1           0       -0.000000   -0.799571    1.800200
      4          8           0        0.000000   -0.000000   -1.229068
      5          1           0       -0.000000   -0.799571   -1.800200
      6          1           0        0.000000    0.799571   -1.800200
 ---------------------------------------------------------------------

 SCF Done:  E(RHF) =  -33.6285086500     A.U. after   10 cycles
 E2 =    -0.2301398033D+00 EUMP2 =    -0.33858648453309D+02
 CCSD(T)
 CCSD(T)= -0.33876068208D+02

 The electronic state is 1-AG.
 Alpha  occ. eigenvalues --   -1.32718  -1.31914  -0.68216  -0.67612  -0.54991
 Alpha  occ. eigenvalues --   -0.47452  -0.47218  -0.45872
 Alpha virt. eigenvalues --    0.21550   0.24281   0.32722   0.33003   0.78882
 Alpha virt. eigenvalues --    0.79557   0.89061   0.90624   1.05376   1.09149
 Alpha virt. eigenvalues --    1.19747   1.21495   1.24207   1.25532   2.54905

 Mulliken charges:
               1
     1  O   -0.698797
     2  H    0.349399
     3  H    0.349399
     4  O   -0.698797
     5  H    0.349399
     6  H    0.349399
 Sum of Mulliken charges =  -0.00000

 Dipole moment (field-independent basis, Debye):
    X=             -0.0000    Y=              0.0000    Z=              0.0000  Tot=              0.0000
 Quadrupole moment (field-independent basis, Debye-Ang):
   XX=            -14.9981   YY=             -8.2540   ZZ=             -0.2078
   XY=              0.0000   XZ=             -0.0000   YZ=             -0.0000

 33.8701302\MP4SDQ=-33.872241\CCSD=-33.8733331\CCSD(T)=-33.8760682\RMSD
 Normal termination of Gaussian 16 at Sun Dec 10 06:39:42 2023.
