 Gaussian 16, Revision A.03,
 Gaussian 16:  ES64L-G16RevA.03 25-Dec-2016

 ------------------
 #p CCSD(T)/CEP-31G
 ------------------

 ------------
 H2O_H2O_2030
 ------------
 Symbolic Z-matrix:
 Charge =  0 Multiplicity = 1

                         Standard orientation:
 ---------------------------------------------------------------------
 Center     Atomic      Atomic             Coordinates (Angstroms)
 Number     Number       Type             X           Y           Z
 ---------------------------------------------------------------------
      1          8           0        0.018361   -1.877292    0.000000
      2          1           0       -0.781690   -2.447751    0.000000
      3          1           0        0.817452   -2.449096    0.000000
      4          8           0        0.018361    1.883323    0.000000
      5          1           0        0.592585    2.680676    0.000000
      6          1           0       -0.922122    2.167922    0.000000
 ---------------------------------------------------------------------

 SCF Done:  E(RHF) =  -33.6465781821     A.U. after   11 cycles
 E2 =    -0.2287684539D+00 EUMP2 =    -0.33875346636051D+02
 CCSD(T)
 CCSD(T)= -0.33892506173D+02

 The electronic state is 1-A'.
 Alpha  occ. eigenvalues --   -1.34084  -1.33949  -0.69705  -0.69561  -0.53784
 Alpha  occ. eigenvalues --   -0.53085  -0.48598  -0.48430
 Alpha virt. eigenvalues --    0.21011   0.21931   0.31604   0.31804   0.78133
 Alpha virt. eigenvalues --    0.81172   0.82888   0.86309   0.89961   0.95895
 Alpha virt. eigenvalues --    1.18607   1.18752   1.23066   1.23349   2.58207

 Mulliken charges:
               1
     1  O   -0.723397
     2  H    0.359742
     3  H    0.363698
     4  O   -0.722688
     5  H    0.358937
     6  H    0.363709
 Sum of Mulliken charges =   0.00000

 Dipole moment (field-independent basis, Debye):
    X=             -0.8365    Y=             -0.1472    Z=              0.0000  Tot=              0.8493
 Quadrupole moment (field-independent basis, Debye-Ang):
   XX=             -8.3167   YY=              7.3555   ZZ=            -14.9840
   XY=             -1.0963   XZ=              0.0000   YZ=              0.0000

 MP4DQ=-33.8868019\MP4SDQ=-33.8888565\CCSD=-33.8899151\CCSD(T)=-33.8925
 Normal termination of Gaussian 16 at Sun Dec 10 07:03:57 2023.
