 Gaussian 16, Revision A.03,
 Gaussian 16:  ES64L-G16RevA.03 25-Dec-2016

 ------------------
 #p CCSD(T)/CEP-31G
 ------------------

 -----------
 H2O_H2O_625
 -----------
 Symbolic Z-matrix:
 Charge =  0 Multiplicity = 1

                         Standard orientation:
 ---------------------------------------------------------------------
 Center     Atomic      Atomic             Coordinates (Angstroms)
 Number     Number       Type             X           Y           Z
 ---------------------------------------------------------------------
      1          8           0        0.000000   -0.000000    1.135997
      2          1           0        0.000000    0.799571    1.707129
      3          1           0       -0.000000   -0.799571    1.707129
      4          8           0        0.000000   -0.000000   -1.135997
      5          1           0       -0.000000   -0.799571   -1.707129
      6          1           0        0.000000    0.799571   -1.707129
 ---------------------------------------------------------------------

 SCF Done:  E(RHF) =  -33.6189221502     A.U. after   10 cycles
 E2 =    -0.2307911049D+00 EUMP2 =    -0.33849713255151D+02
 CCSD(T)
 CCSD(T)= -0.33867068027D+02

 The electronic state is 1-AG.
 Alpha  occ. eigenvalues --   -1.32692  -1.31351  -0.68089  -0.67113  -0.56150
 Alpha  occ. eigenvalues --   -0.47516  -0.45166  -0.45129
 Alpha virt. eigenvalues --    0.21595   0.24916   0.32883   0.33190   0.78268
 Alpha virt. eigenvalues --    0.79903   0.89823   0.96810   1.01374   1.14458
 Alpha virt. eigenvalues --    1.19948   1.22212   1.23760   1.26385   2.51986

 Mulliken charges:
               1
     1  O   -0.697603
     2  H    0.348801
     3  H    0.348801
     4  O   -0.697603
     5  H    0.348801
     6  H    0.348801
 Sum of Mulliken charges =  -0.00000

 Dipole moment (field-independent basis, Debye):
    X=             -0.0000    Y=              0.0000    Z=              0.0000  Tot=              0.0000
 Quadrupole moment (field-independent basis, Debye-Ang):
   XX=            -15.0087   YY=             -8.2837   ZZ=             -1.5860
   XY=              0.0000   XZ=             -0.0000   YZ=             -0.0000

 3.8610482\MP4SDQ=-33.8631917\CCSD=-33.8642634\CCSD(T)=-33.867068\RMSD=
 Normal termination of Gaussian 16 at Sun Dec 10 06:36:25 2023.
