 Gaussian 16, Revision A.03,
 Gaussian 16:  ES64L-G16RevA.03 25-Dec-2016

 ------------------
 #p CCSD(T)/CEP-31G
 ------------------

 ------------
 H2O_H2O_2618
 ------------
 Symbolic Z-matrix:
 Charge =  0 Multiplicity = 1

                         Standard orientation:
 ---------------------------------------------------------------------
 Center     Atomic      Atomic             Coordinates (Angstroms)
 Number     Number       Type             X           Y           Z
 ---------------------------------------------------------------------
      1          8           0        0.052839   -2.148196    0.000000
      2          1           0       -0.747919   -2.717663    0.000000
      3          1           0        0.851220   -2.720990    0.000000
      4          8           0        0.052839    2.218490    0.000000
      5          1           0       -0.166843    3.176219    0.000000
      6          1           0       -0.781881    1.700081    0.000000
 ---------------------------------------------------------------------

 SCF Done:  E(RHF) =  -33.6511935745     A.U. after   11 cycles
 E2 =    -0.2285009155D+00 EUMP2 =    -0.33879694489988D+02
 CCSD(T)
 CCSD(T)= -0.33896713396D+02

 The electronic state is 1-A'.
 Alpha  occ. eigenvalues --   -1.35363  -1.34213  -0.70996  -0.69802  -0.55065
 Alpha  occ. eigenvalues --   -0.53896  -0.49925  -0.48779
 Alpha virt. eigenvalues --    0.20172   0.21723   0.30582   0.31778   0.80598
 Alpha virt. eigenvalues --    0.81782   0.81841   0.85464   0.86763   0.89728
 Alpha virt. eigenvalues --    1.17512   1.18737   1.21927   1.23305   2.57529

 Mulliken charges:
               1
     1  O   -0.739090
     2  H    0.365902
     3  H    0.373305
     4  O   -0.737260
     5  H    0.361594
     6  H    0.375549
 Sum of Mulliken charges =  -0.00000

 Dipole moment (field-independent basis, Debye):
    X=             -2.4213    Y=             -1.6800    Z=              0.0000  Tot=              2.9470
 Quadrupole moment (field-independent basis, Debye-Ang):
   XX=             -9.8453   YY=              5.4290   ZZ=            -14.9888
   XY=             -4.9207   XZ=              0.0000   YZ=              0.0000

 7\MP4DQ=-33.8910595\MP4SDQ=-33.893093\CCSD=-33.8941449\CCSD(T)=-33.896
 Normal termination of Gaussian 16 at Sun Dec 10 06:26:55 2023.
