 Gaussian 16, Revision A.03,
 Gaussian 16:  ES64L-G16RevA.03 25-Dec-2016

 ------------------
 #p CCSD(T)/CEP-31G
 ------------------

 ------------
 H2O_H2O_4804
 ------------
 Symbolic Z-matrix:
 Charge =  0 Multiplicity = 1

                         Standard orientation:
 ---------------------------------------------------------------------
 Center     Atomic      Atomic             Coordinates (Angstroms)
 Number     Number       Type             X           Y           Z
 ---------------------------------------------------------------------
      1          8           0        0.014783   -3.354306    0.000000
      2          1           0       -0.785005   -3.925135    0.000000
      3          1           0        0.814137   -3.925741    0.000000
      4          8           0        0.014783    3.358187    0.000000
      5          1           0        0.639577    4.116565    0.000000
      6          1           0       -0.905233    3.703263    0.000000
 ---------------------------------------------------------------------

 SCF Done:  E(RHF) =  -33.6508448086     A.U. after   11 cycles
 E2 =    -0.2284275349D+00 EUMP2 =    -0.33879272343575D+02
 CCSD(T)
 CCSD(T)= -0.33896299909D+02

 The electronic state is 1-A'.
 Alpha  occ. eigenvalues --   -1.35085  -1.35059  -0.70713  -0.70687  -0.54767
 Alpha  occ. eigenvalues --   -0.54741  -0.49642  -0.49616
 Alpha virt. eigenvalues --    0.20634   0.20660   0.30867   0.30892   0.80912
 Alpha virt. eigenvalues --    0.80937   0.84027   0.84052   0.87105   0.87135
 Alpha virt. eigenvalues --    1.17777   1.17802   1.22242   1.22268   2.57817

 Mulliken charges:
               1
     1  O   -0.737748
     2  H    0.368547
     3  H    0.369201
     4  O   -0.737714
     5  H    0.368386
     6  H    0.369327
 Sum of Mulliken charges =  -0.00000

 Dipole moment (field-independent basis, Debye):
    X=             -0.6827    Y=             -0.0906    Z=              0.0000  Tot=              0.6887
 Quadrupole moment (field-independent basis, Debye-Ang):
   XX=             -8.1771   YY=             23.1404   ZZ=            -14.9870
   XY=             -1.8479   XZ=              0.0000   YZ=              0.0000

 \MP4DQ=-33.8906484\MP4SDQ=-33.8926786\CCSD=-33.8937359\CCSD(T)=-33.896
 Normal termination of Gaussian 16 at Sun Dec 10 07:08:12 2023.
