 Gaussian 16, Revision A.03,
 Gaussian 16:  ES64L-G16RevA.03 25-Dec-2016

 ------------------
 #p CCSD(T)/CEP-31G
 ------------------

 -----------
 H2O_H2O_310
 -----------
 Symbolic Z-matrix:
 Charge =  0 Multiplicity = 1

                         Standard orientation:
 ---------------------------------------------------------------------
 Center     Atomic      Atomic             Coordinates (Angstroms)
 Number     Number       Type             X           Y           Z
 ---------------------------------------------------------------------
      1          8           0        0.034805   -0.950445    0.000000
      2          1           0       -0.766539   -1.519087    0.000000
      3          1           0        0.832595   -1.524061    0.000000
      4          8           0        0.034805    0.973833    0.000000
      5          1           0        0.324387    1.912793    0.000000
      6          1           0       -0.947321    0.943249    0.000000
 ---------------------------------------------------------------------

 SCF Done:  E(RHF) =  -33.5837641359     A.U. after   11 cycles
 E2 =    -0.2330799004D+00 EUMP2 =    -0.33816844036227D+02
 CCSD(T)
 CCSD(T)= -0.33833998644D+02

 The electronic state is 1-A'.
 Alpha  occ. eigenvalues --   -1.34477  -1.30222  -0.69799  -0.67146  -0.58457
 Alpha  occ. eigenvalues --   -0.49324  -0.43994  -0.41360
 Alpha virt. eigenvalues --    0.20794   0.26978   0.31977   0.33388   0.80682
 Alpha virt. eigenvalues --    0.83037   0.89992   0.96325   0.99779   1.18964
 Alpha virt. eigenvalues --    1.19559   1.24551   1.26421   1.31546   2.50878

 Mulliken charges:
               1
     1  O   -0.735732
     2  H    0.341346
     3  H    0.378455
     4  O   -0.673043
     5  H    0.345240
     6  H    0.343735
 Sum of Mulliken charges =   0.00000

 Dipole moment (field-independent basis, Debye):
    X=             -1.3373    Y=             -0.5668    Z=              0.0000  Tot=              1.4525
 Quadrupole moment (field-independent basis, Debye-Ang):
   XX=             -9.0379   YY=             -4.7132   ZZ=            -15.0056
   XY=             -0.9305   XZ=              0.0000   YZ=              0.0000

 P4DQ=-33.8276774\MP4SDQ=-33.8300402\CCSD=-33.8309726\CCSD(T)=-33.83399
 Normal termination of Gaussian 16 at Sun Dec 10 06:30:34 2023.
