 Gaussian 16, Revision A.03,
 Gaussian 16:  ES64L-G16RevA.03 25-Dec-2016

 ------------------
 #p CCSD(T)/CEP-31G
 ------------------

 ------------
 H2O_H2O_3063
 ------------
 Symbolic Z-matrix:
 Charge =  0 Multiplicity = 1

                         Standard orientation:
 ---------------------------------------------------------------------
 Center     Atomic      Atomic             Coordinates (Angstroms)
 Number     Number       Type             X           Y           Z
 ---------------------------------------------------------------------
      1          8           0        0.042970   -2.404637    0.000000
      2          1           0       -0.757471   -2.974550    0.000000
      3          1           0        0.841669   -2.976988    0.000000
      4          8           0        0.042970    2.443418    0.000000
      5          1           0        0.142254    3.420991    0.000000
      6          1           0       -0.913966    2.220301    0.000000
 ---------------------------------------------------------------------

 SCF Done:  E(RHF) =  -33.6503256664     A.U. after   11 cycles
 E2 =    -0.2284912870D+00 EUMP2 =    -0.33878816953398D+02
 CCSD(T)
 CCSD(T)= -0.33895859903D+02

 The electronic state is 1-A'.
 Alpha  occ. eigenvalues --   -1.35029  -1.34524  -0.70657  -0.70133  -0.54681
 Alpha  occ. eigenvalues --   -0.54172  -0.49578  -0.49076
 Alpha virt. eigenvalues --    0.20633   0.21202   0.30894   0.31387   0.80970
 Alpha virt. eigenvalues --    0.81473   0.83530   0.85059   0.87192   0.88033
 Alpha virt. eigenvalues --    1.17812   1.18312   1.22280   1.22787   2.57863

 Mulliken charges:
               1
     1  O   -0.736056
     2  H    0.365725
     3  H    0.370338
     4  O   -0.735007
     5  H    0.363890
     6  H    0.371111
 Sum of Mulliken charges =   0.00000

 Dipole moment (field-independent basis, Debye):
    X=             -1.9747    Y=             -0.9179    Z=              0.0000  Tot=              2.1777
 Quadrupole moment (field-independent basis, Debye-Ang):
   XX=             -9.2406   YY=             10.2951   ZZ=            -14.9870
   XY=             -4.0351   XZ=              0.0000   YZ=              0.0000

 P4DQ=-33.8902035\MP4SDQ=-33.8922358\CCSD=-33.8932924\CCSD(T)=-33.89585
 Normal termination of Gaussian 16 at Sun Dec 10 06:35:04 2023.
