 Gaussian 16, Revision A.03,
 Gaussian 16:  ES64L-G16RevA.03 25-Dec-2016

 ------------------
 #p CCSD(T)/CEP-31G
 ------------------

 ------------
 H2O_H2O_3149
 ------------
 Symbolic Z-matrix:
 Charge =  0 Multiplicity = 1

                         Standard orientation:
 ---------------------------------------------------------------------
 Center     Atomic      Atomic             Coordinates (Angstroms)
 Number     Number       Type             X           Y           Z
 ---------------------------------------------------------------------
      1          8           0        0.057227   -2.403677    0.000000
      2          1           0       -0.743483   -2.973210    0.000000
      3          1           0        0.855655   -2.976405    0.000000
      4          8           0        0.057227    2.517675    0.000000
      5          1           0       -0.512306    3.318386    0.000000
      6          1           0       -0.515501    1.719247    0.000000
 ---------------------------------------------------------------------

 SCF Done:  E(RHF) =  -33.6526424949     A.U. after   11 cycles
 E2 =    -0.2283784774D+00 EUMP2 =    -0.33881020972320D+02
 CCSD(T)
 CCSD(T)= -0.33897996117D+02

 The electronic state is 1-A'.
 Alpha  occ. eigenvalues --   -1.35871  -1.34435  -0.71508  -0.70038  -0.55658
 Alpha  occ. eigenvalues --   -0.54184  -0.50455  -0.49018
 Alpha virt. eigenvalues --    0.19857   0.21502   0.30182   0.31685   0.80102
 Alpha virt. eigenvalues --    0.81501   0.82885   0.84671   0.86171   0.87790
 Alpha virt. eigenvalues --    1.17067   1.18528   1.21505   1.23134   2.57058

 Mulliken charges:
               1
     1  O   -0.744103
     2  H    0.369410
     3  H    0.374765
     4  O   -0.743776
     5  H    0.364690
     6  H    0.379014
 Sum of Mulliken charges =   0.00000

 Dipole moment (field-independent basis, Debye):
    X=             -2.6307    Y=             -2.7011    Z=              0.0000  Tot=              3.7705
 Quadrupole moment (field-independent basis, Debye-Ang):
   XX=            -10.1614   YY=              2.6646   ZZ=            -14.9907
   XY=             -6.8482   XZ=              0.0000   YZ=              0.0000

 \MP4DQ=-33.8923562\MP4SDQ=-33.8943837\CCSD=-33.8954348\CCSD(T)=-33.897
 Normal termination of Gaussian 16 at Sun Dec 10 06:36:34 2023.
