 Gaussian 16, Revision A.03,
 Gaussian 16:  ES64L-G16RevA.03 25-Dec-2016

 ------------------
 #p CCSD(T)/CEP-31G
 ------------------

 ------------
 H2O_H2O_3240
 ------------
 Symbolic Z-matrix:
 Charge =  0 Multiplicity = 1

                         Standard orientation:
 ---------------------------------------------------------------------
 Center     Atomic      Atomic             Coordinates (Angstroms)
 Number     Number       Type             X           Y           Z
 ---------------------------------------------------------------------
      1          8           0        0.047529   -2.491284    0.000000
      2          1           0       -0.752969   -3.061117    0.000000
      3          1           0        0.846171   -3.063714    0.000000
      4          8           0        0.047529    2.541895    0.000000
      5          1           0        0.018463    3.524067    0.000000
      6          1           0       -0.872131    2.195873    0.000000
 ---------------------------------------------------------------------

 SCF Done:  E(RHF) =  -33.6508060178     A.U. after   11 cycles
 E2 =    -0.2284622032D+00 EUMP2 =    -0.33879268220943D+02
 CCSD(T)
 CCSD(T)= -0.33896297119D+02

 The electronic state is 1-A'.
 Alpha  occ. eigenvalues --   -1.35194  -1.34584  -0.70824  -0.70194  -0.54874
 Alpha  occ. eigenvalues --   -0.54259  -0.49751  -0.49143
 Alpha virt. eigenvalues --    0.20506   0.21162   0.30757   0.31359   0.80802
 Alpha virt. eigenvalues --    0.81400   0.83660   0.84714   0.86992   0.87804
 Alpha virt. eigenvalues --    1.17666   1.18271   1.22131   1.22746   2.57703

 Mulliken charges:
               1
     1  O   -0.737725
     2  H    0.366580
     3  H    0.371150
     4  O   -0.736754
     5  H    0.364498
     6  H    0.372252
 Sum of Mulliken charges =  -0.00000

 Dipole moment (field-independent basis, Debye):
    X=             -2.1863    Y=             -1.1953    Z=              0.0000  Tot=              2.4917
 Quadrupole moment (field-independent basis, Debye-Ang):
   XX=             -9.5047   YY=              9.9658   ZZ=            -14.9876
   XY=             -4.8418   XZ=              0.0000   YZ=              0.0000

 MP4DQ=-33.8906447\MP4SDQ=-33.8926756\CCSD=-33.8937315\CCSD(T)=-33.8962
 Normal termination of Gaussian 16 at Sun Dec 10 06:38:11 2023.
