 Gaussian 16, Revision A.03,
 Gaussian 16:  ES64L-G16RevA.03 25-Dec-2016

 ------------------
 #p CCSD(T)/CEP-31G
 ------------------

 -----------
 H2O_H2O_995
 -----------
 Symbolic Z-matrix:
 Charge =  0 Multiplicity = 1

                         Standard orientation:
 ---------------------------------------------------------------------
 Center     Atomic      Atomic             Coordinates (Angstroms)
 Number     Number       Type             X           Y           Z
 ---------------------------------------------------------------------
      1          8           0        0.055319   -1.276372    0.000000
      2          1           0       -0.746304   -1.844620    0.000000
      3          1           0        0.852828   -1.850380    0.000000
      4          8           0        0.055319    1.360636    0.000000
      5          1           0       -0.286091    2.282018    0.000000
      6          1           0       -0.705540    0.738866    0.000000
 ---------------------------------------------------------------------

 SCF Done:  E(RHF) =  -33.6478601977     A.U. after   11 cycles
 E2 =    -0.2298749042D+00 EUMP2 =    -0.33877735101926D+02
 CCSD(T)
 CCSD(T)= -0.33894838905D+02

 The electronic state is 1-A'.
 Alpha  occ. eigenvalues --   -1.35801  -1.31903  -0.71467  -0.67955  -0.55144
 Alpha  occ. eigenvalues --   -0.51515  -0.50388  -0.46444
 Alpha virt. eigenvalues --    0.19354   0.25744   0.30244   0.34490   0.77517
 Alpha virt. eigenvalues --    0.80946   0.87501   0.88153   0.93684   1.14792
 Alpha virt. eigenvalues --    1.19392   1.20067   1.22706   1.29801   2.63571

 Mulliken charges:
               1
     1  O   -0.754253
     2  H    0.360544
     3  H    0.392300
     4  O   -0.720564
     5  H    0.337863
     6  H    0.384110
 Sum of Mulliken charges =  -0.00000

 Dipole moment (field-independent basis, Debye):
    X=             -2.3989    Y=             -2.1623    Z=              0.0000  Tot=              3.2296
 Quadrupole moment (field-independent basis, Debye-Ang):
   XX=             -9.9983   YY=             -2.2496   ZZ=            -14.9986
   XY=             -3.2479   XZ=              0.0000   YZ=              0.0000

 \MP4DQ=-33.8889418\MP4SDQ=-33.8910969\CCSD=-33.8921187\CCSD(T)=-33.894
 Normal termination of Gaussian 16 at Sun Dec 10 06:43:22 2023.
