 Gaussian 16, Revision A.03,
 Gaussian 16:  ES64L-G16RevA.03 25-Dec-2016

 ------------------
 #p CCSD(T)/CEP-31G
 ------------------

 ------------
 H2O_H2O_3718
 ------------
 Symbolic Z-matrix:
 Charge =  0 Multiplicity = 1

                         Standard orientation:
 ---------------------------------------------------------------------
 Center     Atomic      Atomic             Coordinates (Angstroms)
 Number     Number       Type             X           Y           Z
 ---------------------------------------------------------------------
      1          8           0        0.052823   -2.733192    0.000000
      2          1           0       -0.747684   -3.303011    0.000000
      3          1           0        0.851456   -3.305635    0.000000
      4          8           0        0.052823    2.803532    0.000000
      5          1           0       -0.167279    3.761166    0.000000
      6          1           0       -0.781669    2.284756    0.000000
 ---------------------------------------------------------------------

 SCF Done:  E(RHF) =  -33.6514540163     A.U. after   11 cycles
 E2 =    -0.2284159834D+00 EUMP2 =    -0.33879869999615D+02
 CCSD(T)
 CCSD(T)= -0.33896879816D+02

 The electronic state is 1-A'.
 Alpha  occ. eigenvalues --   -1.35433  -1.34740  -0.71065  -0.70353  -0.55150
 Alpha  occ. eigenvalues --   -0.54448  -0.49999  -0.49307
 Alpha virt. eigenvalues --    0.20316   0.21035   0.30557   0.31254   0.80554
 Alpha virt. eigenvalues --    0.81234   0.83590   0.84316   0.86708   0.87497
 Alpha virt. eigenvalues --    1.17454   1.18143   1.21915   1.22616   2.57477

 Mulliken charges:
               1
     1  O   -0.739973
     2  H    0.368073
     3  H    0.371901
     4  O   -0.739371
     5  H    0.365960
     6  H    0.373410
 Sum of Mulliken charges =  -0.00000

 Dipole moment (field-independent basis, Debye):
    X=             -2.4341    Y=             -1.6537    Z=              0.0000  Tot=              2.9427
 Quadrupole moment (field-independent basis, Debye-Ang):
   XX=             -9.8487   YY=              9.8091   ZZ=            -14.9884
   XY=             -6.3205   XZ=              0.0000   YZ=              0.0000

 P4DQ=-33.8912329\MP4SDQ=-33.8932617\CCSD=-33.894317\CCSD(T)=-33.896879
 Normal termination of Gaussian 16 at Sun Dec 10 06:46:52 2023.
