 Gaussian 16, Revision A.03,
 Gaussian 16:  ES64L-G16RevA.03 25-Dec-2016

 ------------------
 #p CCSD(T)/CEP-31G
 ------------------

 ------------
 H2O_H2O_1468
 ------------
 Symbolic Z-matrix:
 Charge =  0 Multiplicity = 1

                         Standard orientation:
 ---------------------------------------------------------------------
 Center     Atomic      Atomic             Coordinates (Angstroms)
 Number     Number       Type             X           Y           Z
 ---------------------------------------------------------------------
      1          8           0        0.052867   -1.536629    0.000000
      2          1           0       -0.748351   -2.105448    0.000000
      3          1           0        0.850784   -2.110069    0.000000
      4          8           0        0.052867    1.606837    0.000000
      5          1           0       -0.166039    2.564745    0.000000
      6          1           0       -0.782272    1.089104    0.000000
 ---------------------------------------------------------------------

 SCF Done:  E(RHF) =  -33.6498972249     A.U. after   11 cycles
 E2 =    -0.2291118691D+00 EUMP2 =    -0.33879009094027D+02
 CCSD(T)
 CCSD(T)= -0.33896137194D+02

 The electronic state is 1-A'.
 Alpha  occ. eigenvalues --   -1.35270  -1.32990  -0.70913  -0.68558  -0.54958
 Alpha  occ. eigenvalues --   -0.52543  -0.49826  -0.47546
 Alpha virt. eigenvalues --    0.19640   0.23863   0.30603   0.32990   0.75977
 Alpha virt. eigenvalues --    0.79079   0.84759   0.85973   0.88798   1.09800
 Alpha virt. eigenvalues --    1.17464   1.21014   1.22190   1.26654   2.56526

 Mulliken charges:
               1
     1  O   -0.737424
     2  H    0.359929
     3  H    0.378210
     4  O   -0.727798
     5  H    0.348592
     6  H    0.378490
 Sum of Mulliken charges =   0.00000

 Dipole moment (field-independent basis, Debye):
    X=             -2.3665    Y=             -1.7555    Z=              0.0000  Tot=              2.9466
 Quadrupole moment (field-independent basis, Debye-Ang):
   XX=             -9.8439   YY=              0.6826   ZZ=            -14.9910
   XY=             -3.4800   XZ=              0.0000   YZ=              0.0000

 \MP4DQ=-33.8903781\MP4SDQ=-33.8924718\CCSD=-33.8935137\CCSD(T)=-33.896
 Normal termination of Gaussian 16 at Sun Dec 10 06:52:11 2023.
