 Gaussian 16, Revision A.03,
 Gaussian 16:  ES64L-G16RevA.03 25-Dec-2016

 ------------------
 #p CCSD(T)/CEP-31G
 ------------------

 -----------
 H2O_H2O_854
 -----------
 Symbolic Z-matrix:
 Charge =  0 Multiplicity = 1

                         Standard orientation:
 ---------------------------------------------------------------------
 Center     Atomic      Atomic             Coordinates (Angstroms)
 Number     Number       Type             X           Y           Z
 ---------------------------------------------------------------------
      1          8           0        0.014784   -1.253562    0.000000
      2          1           0       -0.785365   -1.823883    0.000000
      3          1           0        0.813776   -1.825504    0.000000
      4          8           0        0.014784    1.257424    0.000000
      5          1           0        0.640060    2.015406    0.000000
      6          1           0       -0.905013    1.603083    0.000000
 ---------------------------------------------------------------------

 SCF Done:  E(RHF) =  -33.6312339195     A.U. after   11 cycles
 E2 =    -0.2300031991D+00 EUMP2 =    -0.33861237118621D+02
 CCSD(T)
 CCSD(T)= -0.33878666087D+02

 The electronic state is 1-A'.
 Alpha  occ. eigenvalues --   -1.32835  -1.32108  -0.68362  -0.67790  -0.54762
 Alpha  occ. eigenvalues --   -0.47906  -0.47551  -0.46120
 Alpha virt. eigenvalues --    0.21410   0.24179   0.32605   0.32894   0.79432
 Alpha virt. eigenvalues --    0.79523   0.88644   0.88752   1.03493   1.10669
 Alpha virt. eigenvalues --    1.19648   1.21813   1.24229   1.25355   2.55621

 Mulliken charges:
               1
     1  O   -0.702904
     2  H    0.346268
     3  H    0.355656
     4  O   -0.698478
     5  H    0.348976
     6  H    0.350481
 Sum of Mulliken charges =  -0.00000

 Dipole moment (field-independent basis, Debye):
    X=             -0.6313    Y=             -0.0932    Z=              0.0000  Tot=              0.6382
 Quadrupole moment (field-independent basis, Debye-Ang):
   XX=             -8.3745   YY=              0.0855   ZZ=            -14.9950
   XY=             -0.4819   XZ=              0.0000   YZ=              0.0000

 MP4DQ=-33.8727447\MP4SDQ=-33.8748563\CCSD=-33.8759489\CCSD(T)=-33.8786
 Normal termination of Gaussian 16 at Sun Dec 10 06:40:43 2023.
