 Gaussian 16, Revision A.03,
 Gaussian 16:  ES64L-G16RevA.03 25-Dec-2016

 ------------------
 #p CCSD(T)/CEP-31G
 ------------------

 ------------
 H2O_H2O_1285
 ------------
 Symbolic Z-matrix:
 Charge =  0 Multiplicity = 1

                         Standard orientation:
 ---------------------------------------------------------------------
 Center     Atomic      Atomic             Coordinates (Angstroms)
 Number     Number       Type             X           Y           Z
 ---------------------------------------------------------------------
      1          8           0        0.034792   -1.468946    0.000000
      2          1           0       -0.765932   -2.038460    0.000000
      3          1           0        0.833207   -2.041693    0.000000
      4          8           0        0.034792    1.492410    0.000000
      5          1           0        0.323351    2.431685    0.000000
      6          1           0       -0.947300    1.460756    0.000000
 ---------------------------------------------------------------------

 SCF Done:  E(RHF) =  -33.6429734045     A.U. after   11 cycles
 E2 =    -0.2293191245D+00 EUMP2 =    -0.33872292528988D+02
 CCSD(T)
 CCSD(T)= -0.33889615508D+02

 The electronic state is 1-A'.
 Alpha  occ. eigenvalues --   -1.33825  -1.33002  -0.69446  -0.68589  -0.54008
 Alpha  occ. eigenvalues --   -0.51352  -0.48360  -0.47397
 Alpha virt. eigenvalues --    0.20717   0.23372   0.31801   0.32468   0.77807
 Alpha virt. eigenvalues --    0.79517   0.83198   0.86022   0.93989   1.13026
 Alpha virt. eigenvalues --    1.18737   1.21399   1.23461   1.24288   2.59475

 Mulliken charges:
               1
     1  O   -0.718044
     2  H    0.351777
     3  H    0.365621
     4  O   -0.709387
     5  H    0.348305
     6  H    0.361727
 Sum of Mulliken charges =  -0.00000

 Dipole moment (field-independent basis, Debye):
    X=             -1.5458    Y=             -0.5851    Z=              0.0000  Tot=              1.6528
 Quadrupole moment (field-independent basis, Debye-Ang):
   XX=             -8.9051   YY=              2.1934   ZZ=            -14.9862
   XY=             -1.6675   XZ=              0.0000   YZ=              0.0000

 MP4DQ=-33.8838054\MP4SDQ=-33.885907\CCSD=-33.8869762\CCSD(T)=-33.88961
 Normal termination of Gaussian 16 at Sun Dec 10 06:48:47 2023.
