 Gaussian 16, Revision A.03,
 Gaussian 16:  ES64L-G16RevA.03 25-Dec-2016

 ------------------
 #p CCSD(T)/CEP-31G
 ------------------

 -----------
 H2O_H2O_479
 -----------
 Symbolic Z-matrix:
 Charge =  0 Multiplicity = 1

                         Standard orientation:
 ---------------------------------------------------------------------
 Center     Atomic      Atomic             Coordinates (Angstroms)
 Number     Number       Type             X           Y           Z
 ---------------------------------------------------------------------
      1          8           0        0.014784   -1.054126    0.000000
      2          1           0       -0.785474   -1.624294    0.000000
      3          1           0        0.813667   -1.626221    0.000000
      4          8           0        0.014784    1.057983    0.000000
      5          1           0        0.640205    1.815845    0.000000
      6          1           0       -0.904947    1.403818    0.000000
 ---------------------------------------------------------------------

 SCF Done:  E(RHF) =  -33.6061894011     A.U. after   11 cycles
 E2 =    -0.2316260499D+00 EUMP2 =    -0.33837815450936D+02
 CCSD(T)
 CCSD(T)= -0.33855073115D+02

 The electronic state is 1-A'.
 Alpha  occ. eigenvalues --   -1.32989  -1.30838  -0.68265  -0.66731  -0.57558
 Alpha  occ. eigenvalues --   -0.47895  -0.44547  -0.43079
 Alpha virt. eigenvalues --    0.21469   0.25642   0.32793   0.33309   0.78813
 Alpha virt. eigenvalues --    0.80358   0.90155   0.97851   1.01154   1.17803
 Alpha virt. eigenvalues --    1.20158   1.23114   1.24707   1.27298   2.49748

 Mulliken charges:
               1
     1  O   -0.703378
     2  H    0.343186
     3  H    0.357776
     4  O   -0.694341
     5  H    0.350734
     6  H    0.346023
 Sum of Mulliken charges =   0.00000

 Dipole moment (field-independent basis, Debye):
    X=             -0.5876    Y=             -0.0904    Z=              0.0000  Tot=              0.5945
 Quadrupole moment (field-independent basis, Debye-Ang):
   XX=             -8.4427   YY=             -2.9031   ZZ=            -15.0172
   XY=             -0.3605   XZ=              0.0000   YZ=              0.0000

 4DQ=-33.8489467\MP4SDQ=-33.8511551\CCSD=-33.8521864\CCSD(T)=-33.855073
 Normal termination of Gaussian 16 at Sun Dec 10 06:33:43 2023.
