 Gaussian 16, Revision A.03,
 Gaussian 16:  ES64L-G16RevA.03 25-Dec-2016

 ------------------
 #p CCSD(T)/CEP-31G
 ------------------

 ------------
 H2O_H2O_2513
 ------------
 Symbolic Z-matrix:
 Charge =  0 Multiplicity = 1

                         Standard orientation:
 ---------------------------------------------------------------------
 Center     Atomic      Atomic             Coordinates (Angstroms)
 Number     Number       Type             X           Y           Z
 ---------------------------------------------------------------------
      1          8           0        0.042974   -2.112137    0.000000
      2          1           0       -0.757587   -2.681881    0.000000
      3          1           0        0.841553   -2.684655    0.000000
      4          8           0        0.042974    2.150900    0.000000
      5          1           0        0.142463    3.128451    0.000000
      6          1           0       -0.914008    1.927983    0.000000
 ---------------------------------------------------------------------

 SCF Done:  E(RHF) =  -33.6496813192     A.U. after   11 cycles
 E2 =    -0.2285730394D+00 EUMP2 =    -0.33878254358556D+02
 CCSD(T)
 CCSD(T)= -0.33895317319D+02

 The electronic state is 1-A'.
 Alpha  occ. eigenvalues --   -1.34882  -1.34221  -0.70510  -0.69819  -0.54504
 Alpha  occ. eigenvalues --   -0.53819  -0.49423  -0.48765
 Alpha virt. eigenvalues --    0.20597   0.21600   0.30994   0.31651   0.81034
 Alpha virt. eigenvalues --    0.81306   0.81868   0.85900   0.87434   0.90738
 Alpha virt. eigenvalues --    1.17931   1.18615   1.22385   1.23099   2.57973

 Mulliken charges:
               1
     1  O   -0.733881
     2  H    0.363697
     3  H    0.370249
     4  O   -0.731999
     5  H    0.361024
     6  H    0.370910
 Sum of Mulliken charges =  -0.00000

 Dipole moment (field-independent basis, Debye):
    X=             -1.9670    Y=             -0.9277    Z=              0.0000  Tot=              2.1748
 Quadrupole moment (field-independent basis, Debye-Ang):
   XX=             -9.2454   YY=              7.6548   ZZ=            -14.9867
   XY=             -3.4722   XZ=              0.0000   YZ=              0.0000

 MP4DQ=-33.8896517\MP4SDQ=-33.891689\CCSD=-33.8927441\CCSD(T)=-33.89531
 Normal termination of Gaussian 16 at Sun Dec 10 06:24:58 2023.
