 Gaussian 16, Revision A.03,
 Gaussian 16:  ES64L-G16RevA.03 25-Dec-2016

 ------------------
 #p CCSD(T)/CEP-31G
 ------------------

 -----------
 H2O_H2O_946
 -----------
 Symbolic Z-matrix:
 Charge =  0 Multiplicity = 1

                         Standard orientation:
 ---------------------------------------------------------------------
 Center     Atomic      Atomic             Coordinates (Angstroms)
 Number     Number       Type             X           Y           Z
 ---------------------------------------------------------------------
      1          8           0        0.056187   -1.245837    0.000000
      2          1           0       -0.745511   -1.813980    0.000000
      3          1           0        0.853620   -1.819951    0.000000
      4          8           0        0.056187    1.337361    0.000000
      5          1           0       -0.344635    2.234493    0.000000
      6          1           0       -0.662467    0.667254    0.000000
 ---------------------------------------------------------------------

 SCF Done:  E(RHF) =  -33.6479117658     A.U. after   11 cycles
 E2 =    -0.2299706899D+00 EUMP2 =    -0.33877882455613D+02
 CCSD(T)
 CCSD(T)= -0.33894906414D+02

 The electronic state is 1-A'.
 Alpha  occ. eigenvalues --   -1.36163  -1.31659  -0.71835  -0.67992  -0.55257
 Alpha  occ. eigenvalues --   -0.51399  -0.50754  -0.46208
 Alpha virt. eigenvalues --    0.19193   0.26130   0.29973   0.35141   0.77219
 Alpha virt. eigenvalues --    0.81303   0.87804   0.88423   0.95184   1.13824
 Alpha virt. eigenvalues --    1.19388   1.19858   1.23185   1.30305   2.64275

 Mulliken charges:
               1
     1  O   -0.761331
     2  H    0.362747
     3  H    0.397817
     4  O   -0.722689
     5  H    0.335807
     6  H    0.387650
 Sum of Mulliken charges =  -0.00000

 Dipole moment (field-independent basis, Debye):
    X=             -2.4233    Y=             -2.3708    Z=              0.0000  Tot=              3.3902
 Quadrupole moment (field-independent basis, Debye-Ang):
   XX=            -10.0522   YY=             -2.8762   ZZ=            -15.0014
   XY=             -3.3503   XZ=              0.0000   YZ=              0.0000

 \MP4DQ=-33.8889864\MP4SDQ=-33.8911528\CCSD=-33.8921593\CCSD(T)=-33.894
 Normal termination of Gaussian 16 at Sun Dec 10 06:42:27 2023.
