 Gaussian 16, Revision A.03,
 Gaussian 16:  ES64L-G16RevA.03 25-Dec-2016

 ------------------
 #p CCSD(T)/CEP-31G
 ------------------

 ------------
 H2O_H2O_1714
 ------------
 Symbolic Z-matrix:
 Charge =  0 Multiplicity = 1

                         Standard orientation:
 ---------------------------------------------------------------------
 Center     Atomic      Atomic             Coordinates (Angstroms)
 Number     Number       Type             X           Y           Z
 ---------------------------------------------------------------------
      1          8           0        0.045362   -1.683561    0.000000
      2          1           0       -0.755513   -2.252863    0.000000
      3          1           0        0.843625   -2.256519    0.000000
      4          8           0        0.045362    1.728043    0.000000
      5          1           0        0.081246    2.709989    0.000000
      6          1           0       -0.895149    1.443533    0.000000
 ---------------------------------------------------------------------

 SCF Done:  E(RHF) =  -33.6481678421     A.U. after   11 cycles
 E2 =    -0.2289174762D+00 EUMP2 =    -0.33877085318302D+02
 CCSD(T)
 CCSD(T)= -0.33894228207D+02

 The electronic state is 1-A'.
 Alpha  occ. eigenvalues --   -1.34694  -1.33485  -0.70325  -0.69051  -0.54346
 Alpha  occ. eigenvalues --   -0.52872  -0.49223  -0.48011
 Alpha virt. eigenvalues --    0.20214   0.22804   0.31080   0.32289   0.75491
 Alpha virt. eigenvalues --    0.80154   0.83731   0.85366   0.89029   1.04747
 Alpha virt. eigenvalues --    1.18030   1.20060   1.22514   1.24148   2.57496

 Mulliken charges:
               1
     1  O   -0.729450
     2  H    0.358690
     3  H    0.371192
     4  O   -0.723968
     5  H    0.352831
     6  H    0.370704
 Sum of Mulliken charges =  -0.00000

 Dipole moment (field-independent basis, Debye):
    X=             -2.0481    Y=             -1.0982    Z=              0.0000  Tot=              2.3239
 Quadrupole moment (field-independent basis, Debye-Ang):
   XX=             -9.3919   YY=              3.3930   ZZ=            -14.9870
   XY=             -2.8952   XZ=              0.0000   YZ=              0.0000

 \MP4DQ=-33.8885047\MP4SDQ=-33.8905768\CCSD=-33.8916257\CCSD(T)=-33.894
 Normal termination of Gaussian 16 at Sun Dec 10 06:56:44 2023.
