 Gaussian 16, Revision A.03,
 Gaussian 16:  ES64L-G16RevA.03 25-Dec-2016

 ------------------
 #p CCSD(T)/CEP-31G
 ------------------

 ------------
 H2O_H2O_1482
 ------------
 Symbolic Z-matrix:
 Charge =  0 Multiplicity = 1

                         Standard orientation:
 ---------------------------------------------------------------------
 Center     Atomic      Atomic             Coordinates (Angstroms)
 Number     Number       Type             X           Y           Z
 ---------------------------------------------------------------------
      1          8           0        0.025269   -1.581697    0.000000
      2          1           0       -0.775084   -2.151733    0.000000
      3          1           0        0.824057   -2.153923    0.000000
      4          8           0        0.025269    1.593407    0.000000
      5          1           0        0.490962    2.458644    0.000000
      6          1           0       -0.944232    1.753326    0.000000
 ---------------------------------------------------------------------

 SCF Done:  E(RHF) =  -33.6435337853     A.U. after   11 cycles
 E2 =    -0.2291011094D+00 EUMP2 =    -0.33872634894675D+02
 CCSD(T)
 CCSD(T)= -0.33889921387D+02

 The electronic state is 1-A'.
 Alpha  occ. eigenvalues --   -1.33711  -1.33340  -0.69330  -0.68939  -0.53762
 Alpha  occ. eigenvalues --   -0.51816  -0.48239  -0.47737
 Alpha virt. eigenvalues --    0.20961   0.22790   0.31890   0.32233   0.76457
 Alpha virt. eigenvalues --    0.80163   0.83807   0.85020   0.93568   1.07874
 Alpha virt. eigenvalues --    1.18869   1.19669   1.23518   1.23838   2.59709

 Mulliken charges:
               1
     1  O   -0.715939
     2  H    0.353696
     3  H    0.362187
     4  O   -0.712794
     5  H    0.352014
     6  H    0.360837
 Sum of Mulliken charges =   0.00000

 Dipole moment (field-independent basis, Debye):
    X=             -1.1351    Y=             -0.2919    Z=              0.0000  Tot=              1.1720
 Quadrupole moment (field-independent basis, Debye-Ang):
   XX=             -8.5449   YY=              3.8721   ZZ=            -14.9843
   XY=             -1.2392   XZ=              0.0000   YZ=              0.0000

 MP4DQ=-33.8841467\MP4SDQ=-33.8862321\CCSD=-33.8872983\CCSD(T)=-33.8899
 Normal termination of Gaussian 16 at Sun Dec 10 06:52:27 2023.
