 Gaussian 16, Revision A.03,
 Gaussian 16:  ES64L-G16RevA.03 25-Dec-2016

 ------------------
 #p CCSD(T)/CEP-31G
 ------------------

 ------------
 H2O_H2O_2144
 ------------
 Symbolic Z-matrix:
 Charge =  0 Multiplicity = 1

                         Standard orientation:
 ---------------------------------------------------------------------
 Center     Atomic      Atomic             Coordinates (Angstroms)
 Number     Number       Type             X           Y           Z
 ---------------------------------------------------------------------
      1          8           0        0.054176   -1.891796    0.000000
      2          1           0       -0.746770   -2.460998    0.000000
      3          1           0        0.852367   -2.464855    0.000000
      4          8           0        0.054176    1.969045    0.000000
      5          1           0       -0.227364    2.910450    0.000000
      6          1           0       -0.745041    1.397417    0.000000
 ---------------------------------------------------------------------

 SCF Done:  E(RHF) =  -33.6514494563     A.U. after   11 cycles
 E2 =    -0.2286173777D+00 EUMP2 =    -0.33880066833908D+02
 CCSD(T)
 CCSD(T)= -0.33897088406D+02

 The electronic state is 1-A'.
 Alpha  occ. eigenvalues --   -1.35464  -1.33805  -0.71100  -0.69371  -0.55179
 Alpha  occ. eigenvalues --   -0.53486  -0.50029  -0.48376
 Alpha virt. eigenvalues --    0.19766   0.22454   0.30443   0.32265   0.78712
 Alpha virt. eigenvalues --    0.80275   0.82401   0.85847   0.86695   0.94928
 Alpha virt. eigenvalues --    1.17405   1.19499   1.21783   1.24433   2.56753

 Mulliken charges:
               1
     1  O   -0.739762
     2  H    0.364871
     3  H    0.375430
     4  O   -0.736979
     5  H    0.357925
     6  H    0.378515
 Sum of Mulliken charges =   0.00000

 Dipole moment (field-independent basis, Debye):
    X=             -2.4694    Y=             -1.8764    Z=              0.0000  Tot=              3.1014
 Quadrupole moment (field-independent basis, Debye-Ang):
   XX=             -9.9329   YY=              2.9553   ZZ=            -14.9900
   XY=             -4.5505   XZ=              0.0000   YZ=              0.0000

 MP4DQ=-33.8914183\MP4SDQ=-33.8934644\CCSD=-33.8945093\CCSD(T)=-33.8970
 Normal termination of Gaussian 16 at Sun Dec 10 07:05:59 2023.
