 Gaussian 16, Revision A.03,
 Gaussian 16:  ES64L-G16RevA.03 25-Dec-2016

 ------------------
 #p CCSD(T)/CEP-31G
 ------------------

 ------------
 H2O_H2O_1038
 ------------
 Symbolic Z-matrix:
 Charge =  0 Multiplicity = 1

                         Standard orientation:
 ---------------------------------------------------------------------
 Center     Atomic      Atomic             Coordinates (Angstroms)
 Number     Number       Type             X           Y           Z
 ---------------------------------------------------------------------
      1          8           0        0.042993   -1.327724    0.000000
      2          1           0       -0.758142   -1.896659    0.000000
      3          1           0        0.840994   -1.901048    0.000000
      4          8           0        0.042993    1.366400    0.000000
      5          1           0        0.143470    2.343851    0.000000
      6          1           0       -0.914213    1.144448    0.000000
 ---------------------------------------------------------------------

 SCF Done:  E(RHF) =  -33.6417752296     A.U. after   11 cycles
 E2 =    -0.2297336774D+00 EUMP2 =    -0.33871508907009D+02
 CCSD(T)
 CCSD(T)= -0.33888857078D+02

 The electronic state is 1-A'.
 Alpha  occ. eigenvalues --   -1.34080  -1.32480  -0.69708  -0.68116  -0.54441
 Alpha  occ. eigenvalues --   -0.50654  -0.48652  -0.46859
 Alpha virt. eigenvalues --    0.20380   0.24351   0.31601   0.32828   0.78740
 Alpha virt. eigenvalues --    0.82020   0.83823   0.87401   0.94363   1.16005
 Alpha virt. eigenvalues --    1.18607   1.22512   1.23231   1.27719   2.59244

 Mulliken charges:
               1
     1  O   -0.726069
     2  H    0.350854
     3  H    0.372145
     4  O   -0.703884
     5  H    0.343928
     6  H    0.363026
 Sum of Mulliken charges =   0.00000

 Dipole moment (field-independent basis, Debye):
    X=             -1.8745    Y=             -0.9639    Z=              0.0000  Tot=              2.1079
 Quadrupole moment (field-independent basis, Debye-Ang):
   XX=             -9.2994   YY=              0.1322   ZZ=            -14.9898
   XY=             -2.0055   XZ=              0.0000   YZ=              0.0000

 MP4DQ=-33.8829855\MP4SDQ=-33.8851148\CCSD=-33.8861832\CCSD(T)=-33.8888
 Normal termination of Gaussian 16 at Sun Dec 10 06:44:10 2023.
