 Gaussian 16, Revision A.03,
 Gaussian 16:  ES64L-G16RevA.03 25-Dec-2016

 ------------------
 #p CCSD(T)/CEP-31G
 ------------------

 ------------
 H2O_H2O_2060
 ------------
 Symbolic Z-matrix:
 Charge =  0 Multiplicity = 1

                         Standard orientation:
 ---------------------------------------------------------------------
 Center     Atomic      Atomic             Coordinates (Angstroms)
 Number     Number       Type             X           Y           Z
 ---------------------------------------------------------------------
      1          8           0        0.034787   -1.881103    0.000000
      2          1           0       -0.765686   -2.450970    0.000000
      3          1           0        0.833454   -2.453498    0.000000
      4          8           0        0.034787    1.904597    0.000000
      5          1           0        0.322933    2.844001    0.000000
      6          1           0       -0.947291    1.872511    0.000000
 ---------------------------------------------------------------------

 SCF Done:  E(RHF) =  -33.6478169880     A.U. after   11 cycles
 E2 =    -0.2287423414D+00 EUMP2 =    -0.33876559329383D+02
 CCSD(T)
 CCSD(T)= -0.33893684044D+02

 The electronic state is 1-A'.
 Alpha  occ. eigenvalues --   -1.34434  -1.33921  -0.70059  -0.69518  -0.54049
 Alpha  occ. eigenvalues --   -0.53296  -0.48953  -0.48437
 Alpha virt. eigenvalues --    0.20727   0.22005   0.31354   0.31837   0.77892
 Alpha virt. eigenvalues --    0.80997   0.82703   0.86021   0.88797   0.96714
 Alpha virt. eigenvalues --    1.18302   1.18893   1.22804   1.23351   2.58048

 Mulliken charges:
               1
     1  O   -0.727598
     2  H    0.360207
     3  H    0.367537
     4  O   -0.725319
     5  H    0.357735
     6  H    0.367438
 Sum of Mulliken charges =   0.00000

 Dipole moment (field-independent basis, Debye):
    X=             -1.5837    Y=             -0.5717    Z=              0.0000  Tot=              1.6837
 Quadrupole moment (field-independent basis, Debye-Ang):
   XX=             -8.8567   YY=              6.4540   ZZ=            -14.9853
   XY=             -2.2800   XZ=              0.0000   YZ=              0.0000

 P4DQ=-33.8879896\MP4SDQ=-33.8900418\CCSD=-33.8910965\CCSD(T)=-33.89368
 Normal termination of Gaussian 16 at Sun Dec 10 07:04:29 2023.
