 Gaussian 16, Revision A.03,
 Gaussian 16:  ES64L-G16RevA.03 25-Dec-2016

 ------------------
 #p CCSD(T)/CEP-31G
 ------------------

 -----------
 H2O_H2O_669
 -----------
 Symbolic Z-matrix:
 Charge =  0 Multiplicity = 1

                         Standard orientation:
 ---------------------------------------------------------------------
 Center     Atomic      Atomic             Coordinates (Angstroms)
 Number     Number       Type             X           Y           Z
 ---------------------------------------------------------------------
      1          8           0        0.054239   -1.107431    0.000000
      2          1           0       -0.747645   -1.675310    0.000000
      3          1           0        0.851483   -1.681807    0.000000
      4          8           0        0.054239    1.184501    0.000000
      5          1           0       -0.225746    2.126368    0.000000
      6          1           0       -0.745920    0.614193    0.000000
 ---------------------------------------------------------------------

 SCF Done:  E(RHF) =  -33.6340798153     A.U. after   11 cycles
 E2 =    -0.2308982753D+00 EUMP2 =    -0.33864978090632D+02
 CCSD(T)
 CCSD(T)= -0.33882058769D+02

 The electronic state is 1-A'.
 Alpha  occ. eigenvalues --   -1.35812  -1.31130  -0.71543  -0.68213  -0.54306
 Alpha  occ. eigenvalues --   -0.50390  -0.50089  -0.45550
 Alpha virt. eigenvalues --    0.19489   0.26791   0.30338   0.34668   0.77672
 Alpha virt. eigenvalues --    0.84298   0.89249   0.93766   0.96933   1.14138
 Alpha virt. eigenvalues --    1.19042   1.21138   1.25015   1.31143   2.66983

 Mulliken charges:
               1
     1  O   -0.766731
     2  H    0.358311
     3  H    0.399599
     4  O   -0.695280
     5  H    0.328986
     6  H    0.375114
 Sum of Mulliken charges =  -0.00000

 Dipole moment (field-independent basis, Debye):
    X=             -2.2544    Y=             -1.9843    Z=              0.0000  Tot=              3.0033
 Quadrupole moment (field-independent basis, Debye-Ang):
   XX=             -9.9342   YY=             -3.5868   ZZ=            -14.9994
   XY=             -2.6305   XZ=              0.0000   YZ=              0.0000

 P4DQ=-33.8760032\MP4SDQ=-33.8782303\CCSD=-33.8792184\CCSD(T)=-33.88205
 Normal termination of Gaussian 16 at Sun Dec 10 06:37:14 2023.
