 Gaussian 16, Revision A.03,
 Gaussian 16:  ES64L-G16RevA.03 25-Dec-2016

 ------------------
 #p CCSD(T)/CEP-31G
 ------------------

 ------------
 H2O_H2O_3478
 ------------
 Symbolic Z-matrix:
 Charge =  0 Multiplicity = 1

                         Standard orientation:
 ---------------------------------------------------------------------
 Center     Atomic      Atomic             Coordinates (Angstroms)
 Number     Number       Type             X           Y           Z
 ---------------------------------------------------------------------
      1          8           0        0.011143   -2.650543    0.000000
      2          1           0       -0.788635   -3.221386    0.000000
      3          1           0        0.810507   -3.221964    0.000000
      4          8           0        0.011143    2.652730    0.000000
      5          1           0        0.684187    3.368632    0.000000
      6          1           0       -0.884341    3.057222    0.000000
 ---------------------------------------------------------------------

 SCF Done:  E(RHF) =  -33.6498057651     A.U. after   11 cycles
 E2 =    -0.2284898808D+00 EUMP2 =    -0.33878295645951D+02
 CCSD(T)
 CCSD(T)= -0.33895353058D+02

 The electronic state is 1-A'.
 Alpha  occ. eigenvalues --   -1.34760  -1.34736  -0.70385  -0.70360  -0.54386
 Alpha  occ. eigenvalues --   -0.54354  -0.49301  -0.49278
 Alpha virt. eigenvalues --    0.20891   0.20939   0.31131   0.31155   0.81247
 Alpha virt. eigenvalues --    0.81280   0.84215   0.84767   0.87486   0.87546
 Alpha virt. eigenvalues --    1.18058   1.18082   1.22533   1.22557   2.58120

 Mulliken charges:
               1
     1  O   -0.734142
     2  H    0.366597
     3  H    0.367546
     4  O   -0.734084
     5  H    0.366411
     6  H    0.367672
 Sum of Mulliken charges =   0.00000

 Dipole moment (field-independent basis, Debye):
    X=             -0.5131    Y=             -0.0515    Z=              0.0000  Tot=              0.5157
 Quadrupole moment (field-independent basis, Debye-Ang):
   XX=             -8.1313   YY=             15.8756   ZZ=            -14.9859
   XY=             -1.0306   XZ=              0.0000   YZ=              0.0000

 \MP4DQ=-33.8896932\MP4SDQ=-33.8917263\CCSD=-33.892785\CCSD(T)=-33.8953
 Normal termination of Gaussian 16 at Sun Dec 10 06:42:29 2023.
