 Gaussian 16, Revision A.03,
 Gaussian 16:  ES64L-G16RevA.03 25-Dec-2016

 ------------------
 #p CCSD(T)/CEP-31G
 ------------------

 ------------
 H2O_H2O_3941
 ------------
 Symbolic Z-matrix:
 Charge =  0 Multiplicity = 1

                         Standard orientation:
 ---------------------------------------------------------------------
 Center     Atomic      Atomic             Coordinates (Angstroms)
 Number     Number       Type             X           Y           Z
 ---------------------------------------------------------------------
      1          8           0        0.049503   -2.860118    0.000000
      2          1           0       -0.750909   -3.430071    0.000000
      3          1           0        0.848232   -3.432428    0.000000
      4          8           0        0.049503    2.917085    0.000000
      5          1           0       -0.043884    3.895239    0.000000
      6          1           0       -0.845495    2.511521    0.000000
 ---------------------------------------------------------------------

 SCF Done:  E(RHF) =  -33.6512499535     A.U. after   11 cycles
 E2 =    -0.2284213456D+00 EUMP2 =    -0.33879671299153D+02
 CCSD(T)
 CCSD(T)= -0.33896687040D+02

 The electronic state is 1-A'.
 Alpha  occ. eigenvalues --   -1.35338  -1.34824  -0.70969  -0.70441  -0.55043
 Alpha  occ. eigenvalues --   -0.54524  -0.49902  -0.49388
 Alpha virt. eigenvalues --    0.20403   0.20930   0.30640   0.31152   0.80651
 Alpha virt. eigenvalues --    0.81157   0.83722   0.84243   0.86818   0.87407
 Alpha virt. eigenvalues --    1.17541   1.18051   1.22003   1.22520   2.57570

 Mulliken charges:
               1
     1  O   -0.739237
     2  H    0.368005
     3  H    0.371232
     4  O   -0.738724
     5  H    0.366450
     6  H    0.372275
 Sum of Mulliken charges =  -0.00000

 Dipole moment (field-independent basis, Debye):
    X=             -2.2825    Y=             -1.3367    Z=              0.0000  Tot=              2.6451
 Quadrupole moment (field-independent basis, Debye-Ang):
   XX=             -9.6286   YY=             12.3326   ZZ=            -14.9880
   XY=             -5.9811   XZ=              0.0000   YZ=              0.0000

 MP4DQ=-33.8910386\MP4SDQ=-33.8930679\CCSD=-33.8941238\CCSD(T)=-33.8966
 Normal termination of Gaussian 16 at Sun Dec 10 06:51:01 2023.
