 Gaussian 16, Revision A.03,
 Gaussian 16:  ES64L-G16RevA.03 25-Dec-2016

 ------------------
 #p CCSD(T)/CEP-31G
 ------------------

 ------------
 H2O_H2O_1126
 ------------
 Symbolic Z-matrix:
 Charge =  0 Multiplicity = 1

                         Standard orientation:
 ---------------------------------------------------------------------
 Center     Atomic      Atomic             Coordinates (Angstroms)
 Number     Number       Type             X           Y           Z
 ---------------------------------------------------------------------
      1          8           0        0.003735   -1.401783    0.000000
      2          1           0       -0.795967   -1.972732    0.000000
      3          1           0        0.803175   -1.973098    0.000000
      4          8           0        0.003735    1.402026    0.000000
      5          1           0        0.764384    2.024055    0.000000
      6          1           0       -0.831359    1.919832    0.000000
 ---------------------------------------------------------------------

 SCF Done:  E(RHF) =  -33.6375103171     A.U. after   11 cycles
 E2 =    -0.2294566018D+00 EUMP2 =    -0.33866966918895D+02
 CCSD(T)
 CCSD(T)= -0.33884378982D+02

 The electronic state is 1-A'.
 Alpha  occ. eigenvalues --   -1.33041  -1.32724  -0.68620  -0.68365  -0.53938
 Alpha  occ. eigenvalues --   -0.49841  -0.47664  -0.46892
 Alpha virt. eigenvalues --    0.21395   0.23382   0.32312   0.32675   0.79661
 Alpha virt. eigenvalues --    0.80915   0.81659   0.87169   1.01234   1.08559
 Alpha virt. eigenvalues --    1.19412   1.20264   1.24300   1.24390   2.58655

 Mulliken charges:
               1
     1  O   -0.704035
     2  H    0.351116
     3  H    0.352896
     4  O   -0.703882
     5  H    0.351460
     6  H    0.352445
 Sum of Mulliken charges =  -0.00000

 Dipole moment (field-independent basis, Debye):
    X=             -0.1646    Y=             -0.0060    Z=              0.0000  Tot=              0.1647
 Quadrupole moment (field-independent basis, Debye-Ang):
   XX=             -8.2150   YY=              2.0961   ZZ=            -14.9872
   XY=             -0.1416   XZ=              0.0000   YZ=              0.0000

 MP4DQ=-33.8785336\MP4SDQ=-33.8806262\CCSD=-33.8817159\CCSD(T)=-33.8843
 Normal termination of Gaussian 16 at Sun Dec 10 06:45:48 2023.
