 Gaussian 16, Revision A.03,
 Gaussian 16:  ES64L-G16RevA.03 25-Dec-2016

 ------------------
 #p CCSD(T)/CEP-31G
 ------------------

 -----------
 H2O_H2O_503
 -----------
 Symbolic Z-matrix:
 Charge =  0 Multiplicity = 1

                         Standard orientation:
 ---------------------------------------------------------------------
 Center     Atomic      Atomic             Coordinates (Angstroms)
 Number     Number       Type             X           Y           Z
 ---------------------------------------------------------------------
      1          8           0        0.011143   -1.068336    0.000000
      2          1           0       -0.788940   -1.638750    0.000000
      3          1           0        0.810202   -1.640184    0.000000
      4          8           0        0.011143    1.070510    0.000000
      5          1           0        0.684570    1.786054    0.000000
      6          1           0       -0.884124    1.475482    0.000000
 ---------------------------------------------------------------------

 SCF Done:  E(RHF) =  -33.6084788648     A.U. after   11 cycles
 E2 =    -0.2314697527D+00 EUMP2 =    -0.33839948617489D+02
 CCSD(T)
 CCSD(T)= -0.33857222012D+02

 The electronic state is 1-A'.
 Alpha  occ. eigenvalues --   -1.32887  -1.30915  -0.68178  -0.66768  -0.57322
 Alpha  occ. eigenvalues --   -0.47782  -0.44635  -0.43377
 Alpha virt. eigenvalues --    0.21528   0.25494   0.32852   0.33300   0.78493
 Alpha virt. eigenvalues --    0.80294   0.90133   0.98281   1.00747   1.17686
 Alpha virt. eigenvalues --    1.20155   1.23044   1.24038   1.27069   2.50010

 Mulliken charges:
               1
     1  O   -0.700707
     2  H    0.344301
     3  H    0.355088
     4  O   -0.695774
     5  H    0.350295
     6  H    0.346797
 Sum of Mulliken charges =  -0.00000

 Dipole moment (field-independent basis, Debye):
    X=             -0.4450    Y=             -0.0509    Z=              0.0000  Tot=              0.4479
 Quadrupole moment (field-independent basis, Debye-Ang):
   XX=             -8.3821   YY=             -2.6696   ZZ=            -15.0166
   XY=             -0.2713   XZ=              0.0000   YZ=              0.0000

 P4DQ=-33.8511163\MP4SDQ=-33.8533097\CCSD=-33.8543496\CCSD(T)=-33.85722
 Normal termination of Gaussian 16 at Sun Dec 10 06:34:10 2023.
