 Gaussian 16, Revision A.03,
 Gaussian 16:  ES64L-G16RevA.03 25-Dec-2016

 ------------------
 #p CCSD(T)/CEP-31G
 ------------------

 ------------
 H2O_H2O_2813
 ------------
 Symbolic Z-matrix:
 Charge =  0 Multiplicity = 1

                         Standard orientation:
 ---------------------------------------------------------------------
 Center     Atomic      Atomic             Coordinates (Angstroms)
 Number     Number       Type             X           Y           Z
 ---------------------------------------------------------------------
      1          8           0        0.042971   -2.271682    0.000000
      2          1           0       -0.757520   -2.841524    0.000000
      3          1           0        0.841620   -2.844104    0.000000
      4          8           0        0.042971    2.310456    0.000000
      5          1           0        0.142343    3.288019    0.000000
      6          1           0       -0.913984    2.087423    0.000000
 ---------------------------------------------------------------------

 SCF Done:  E(RHF) =  -33.6500689482     A.U. after   11 cycles
 E2 =    -0.2285201688D+00 EUMP2 =    -0.33878589116952D+02
 CCSD(T)
 CCSD(T)= -0.33895639838D+02

 The electronic state is 1-A'.
 Alpha  occ. eigenvalues --   -1.34967  -1.34399  -0.70595  -0.70004  -0.54606
 Alpha  occ. eigenvalues --   -0.54030  -0.49513  -0.48948
 Alpha virt. eigenvalues --    0.20637   0.21352   0.30938   0.31495   0.81018
 Alpha virt. eigenvalues --    0.81614   0.82849   0.85502   0.87277   0.88745
 Alpha virt. eigenvalues --    1.17862   1.18430   1.22327   1.22910   2.57924

 Mulliken charges:
               1
     1  O   -0.735194
     2  H    0.364915
     3  H    0.370298
     4  O   -0.733833
     5  H    0.362759
     6  H    0.371054
 Sum of Mulliken charges =  -0.00000

 Dipole moment (field-independent basis, Debye):
    X=             -1.9718    Y=             -0.9216    Z=              0.0000  Tot=              2.1765
 Quadrupole moment (field-independent basis, Debye-Ang):
   XX=             -9.2424   YY=              9.0978   ZZ=            -14.9869
   XY=             -3.7784   XZ=              0.0000   YZ=              0.0000

 \MP4DQ=-33.8899804\MP4SDQ=-33.8920142\CCSD=-33.8930704\CCSD(T)=-33.895
 Normal termination of Gaussian 16 at Sun Dec 10 06:30:33 2023.
