 Gaussian 16, Revision A.03,
 Gaussian 16:  ES64L-G16RevA.03 25-Dec-2016

 ------------------
 #p CCSD(T)/CEP-31G
 ------------------

 ------------
 H2O_H2O_3702
 ------------
 Symbolic Z-matrix:
 Charge =  0 Multiplicity = 1

                         Standard orientation:
 ---------------------------------------------------------------------
 Center     Atomic      Atomic             Coordinates (Angstroms)
 Number     Number       Type             X           Y           Z
 ---------------------------------------------------------------------
      1          8           0        0.007455   -2.770865    0.000000
      2          1           0       -0.792248   -3.341812    0.000000
      3          1           0        0.806894   -3.342182    0.000000
      4          8           0        0.007455    2.771838    0.000000
      5          1           0        0.725793    3.442283    0.000000
      6          1           0       -0.859717    3.233920    0.000000
 ---------------------------------------------------------------------

 SCF Done:  E(RHF) =  -33.6500280582     A.U. after   11 cycles
 E2 =    -0.2284755007D+00 EUMP2 =    -0.33878503558828D+02
 CCSD(T)
 CCSD(T)= -0.33895554527D+02

 The electronic state is 1-A'.
 Alpha  occ. eigenvalues --   -1.34818  -1.34808  -0.70444  -0.70434  -0.54455
 Alpha  occ. eigenvalues --   -0.54441  -0.49363  -0.49353
 Alpha virt. eigenvalues --    0.20850   0.20873   0.31086   0.31095   0.81188
 Alpha virt. eigenvalues --    0.81202   0.84265   0.84531   0.87421   0.87447
 Alpha virt. eigenvalues --    1.18009   1.18019   1.22482   1.22492   2.58065

 Mulliken charges:
               1
     1  O   -0.734903
     2  H    0.367170
     3  H    0.367733
     4  O   -0.734882
     5  H    0.367064
     6  H    0.367818
 Sum of Mulliken charges =   0.00000

 Dipole moment (field-independent basis, Debye):
    X=             -0.3436    Y=             -0.0229    Z=              0.0000  Tot=              0.3443
 Quadrupole moment (field-independent basis, Debye-Ang):
   XX=             -8.0834   YY=             17.2672   ZZ=            -14.9861
   XY=             -0.7268   XZ=              0.0000   YZ=              0.0000

 4DQ=-33.8898965\MP4SDQ=-33.891929\CCSD=-33.8929874\CCSD(T)=-33.8955545
 Normal termination of Gaussian 16 at Sun Dec 10 06:46:35 2023.
