 Gaussian 16, Revision A.03,
 Gaussian 16:  ES64L-G16RevA.03 25-Dec-2016

 ------------------
 #p CCSD(T)/CEP-31G
 ------------------

 -----------
 H2O_H2O_335
 -----------
 Symbolic Z-matrix:
 Charge =  0 Multiplicity = 1

                         Standard orientation:
 ---------------------------------------------------------------------
 Center     Atomic      Atomic             Coordinates (Angstroms)
 Number     Number       Type             X           Y           Z
 ---------------------------------------------------------------------
      1          8           0        0.034804   -0.963739    0.000000
      2          1           0       -0.766515   -1.532415    0.000000
      3          1           0        0.832619   -1.537322    0.000000
      4          8           0        0.034804    0.987130    0.000000
      5          1           0        0.324347    1.926103    0.000000
      6          1           0       -0.947320    0.956505    0.000000
 ---------------------------------------------------------------------

 SCF Done:  E(RHF) =  -33.5889241393     A.U. after   11 cycles
 E2 =    -0.2328094306D+00 EUMP2 =    -0.33821733569843D+02
 CCSD(T)
 CCSD(T)= -0.33838917720D+02

 The electronic state is 1-A'.
 Alpha  occ. eigenvalues --   -1.34306  -1.30344  -0.69653  -0.67126  -0.58208
 Alpha  occ. eigenvalues --   -0.49163  -0.44126  -0.41897
 Alpha virt. eigenvalues --    0.20807   0.26831   0.32020   0.33364   0.80552
 Alpha virt. eigenvalues --    0.82893   0.90021   0.96806   0.99693   1.18473
 Alpha virt. eigenvalues --    1.19527   1.24381   1.26198   1.31248   2.50842

 Mulliken charges:
               1
     1  O   -0.735116
     2  H    0.341727
     3  H    0.377771
     4  O   -0.674150
     5  H    0.345668
     6  H    0.344099
 Sum of Mulliken charges =  -0.00000

 Dipole moment (field-independent basis, Debye):
    X=             -1.3462    Y=             -0.5643    Z=              0.0000  Tot=              1.4597
 Quadrupole moment (field-independent basis, Debye-Ang):
   XX=             -9.0326   YY=             -4.4723   ZZ=            -15.0061
   XY=             -0.9451   XZ=              0.0000   YZ=              0.0000

 MP4DQ=-33.83263\MP4SDQ=-33.8349689\CCSD=-33.8359193\CCSD(T)=-33.838917
 Normal termination of Gaussian 16 at Sun Dec 10 06:31:02 2023.
