 Gaussian 16, Revision A.03,
 Gaussian 16:  ES64L-G16RevA.03 25-Dec-2016

 ------------------
 #p CCSD(T)/CEP-31G
 ------------------

 ------------
 H2O_H2O_4558
 ------------
 Symbolic Z-matrix:
 Charge =  0 Multiplicity = 1

                         Standard orientation:
 ---------------------------------------------------------------------
 Center     Atomic      Atomic             Coordinates (Angstroms)
 Number     Number       Type             X           Y           Z
 ---------------------------------------------------------------------
      1          8           0        0.028562   -3.215167    0.000000
      2          1           0       -0.771444   -3.785689    0.000000
      3          1           0        0.827697   -3.786909    0.000000
      4          8           0        0.028562    3.230427    0.000000
      5          1           0        0.436129    4.124516    0.000000
      6          1           0       -0.949380    3.326002    0.000000
 ---------------------------------------------------------------------

 SCF Done:  E(RHF) =  -33.6508647756     A.U. after   11 cycles
 E2 =    -0.2284294694D+00 EUMP2 =    -0.33879294244999D+02
 CCSD(T)
 CCSD(T)= -0.33896321202D+02

 The electronic state is 1-A'.
 Alpha  occ. eigenvalues --   -1.35116  -1.35006  -0.70745  -0.70632  -0.54799
 Alpha  occ. eigenvalues --   -0.54689  -0.49673  -0.49563
 Alpha virt. eigenvalues --    0.20604   0.20716   0.30837   0.30945   0.80880
 Alpha virt. eigenvalues --    0.80989   0.83994   0.84102   0.87072   0.87200
 Alpha virt. eigenvalues --    1.17746   1.17855   1.22212   1.22321   2.57786

 Mulliken charges:
               1
     1  O   -0.737830
     2  H    0.368210
     3  H    0.369620
     4  O   -0.737685
     5  H    0.367790
     6  H    0.369895
 Sum of Mulliken charges =  -0.00000

 Dipole moment (field-independent basis, Debye):
    X=             -1.3186    Y=             -0.3567    Z=              0.0000  Tot=              1.3660
 Quadrupole moment (field-independent basis, Debye-Ang):
   XX=             -8.5665   YY=             20.3766   ZZ=            -14.9871
   XY=             -3.5015   XZ=              0.0000   YZ=              0.0000

 \MP4DQ=-33.8906699\MP4SDQ=-33.8927\CCSD=-33.8937571\CCSD(T)=-33.896321
 Normal termination of Gaussian 16 at Sun Dec 10 07:03:41 2023.
