 Gaussian 16, Revision A.03,
 Gaussian 16:  ES64L-G16RevA.03 25-Dec-2016

 ------------------
 #p CCSD(T)/CEP-31G
 ------------------

 ------------
 H2O_H2O_1856
 ------------
 Symbolic Z-matrix:
 Charge =  0 Multiplicity = 1

                         Standard orientation:
 ---------------------------------------------------------------------
 Center     Atomic      Atomic             Coordinates (Angstroms)
 Number     Number       Type             X           Y           Z
 ---------------------------------------------------------------------
      1          8           0        0.021861   -1.782799    0.000000
      2          1           0       -0.778311   -2.353088    0.000000
      3          1           0        0.820830   -2.354772    0.000000
      4          8           0        0.021861    1.791447    0.000000
      5          1           0        0.542883    2.624539    0.000000
      6          1           0       -0.935175    2.014129    0.000000
 ---------------------------------------------------------------------

 SCF Done:  E(RHF) =  -33.6458956376     A.U. after   11 cycles
 E2 =    -0.2288510084D+00 EUMP2 =    -0.33874746645944D+02
 CCSD(T)
 CCSD(T)= -0.33891935019D+02

 The electronic state is 1-A'.
 Alpha  occ. eigenvalues --   -1.33996  -1.33782  -0.69617  -0.69390  -0.53754
 Alpha  occ. eigenvalues --   -0.52782  -0.48509  -0.48248
 Alpha virt. eigenvalues --    0.20972   0.22167   0.31677   0.31920   0.76910
 Alpha virt. eigenvalues --    0.80922   0.83412   0.85649   0.90774   0.99476
 Alpha virt. eigenvalues --    1.18669   1.18932   1.23175   1.23495   2.58237

 Mulliken charges:
               1
     1  O   -0.721410
     2  H    0.358048
     3  H    0.363434
     4  O   -0.720153
     5  H    0.356838
     6  H    0.363244
 Sum of Mulliken charges =   0.00000

 Dipole moment (field-independent basis, Debye):
    X=             -0.9928    Y=             -0.2128    Z=              0.0000  Tot=              1.0153
 Quadrupole moment (field-independent basis, Debye-Ang):
   XX=             -8.4155   YY=              6.2064   ZZ=            -14.9839
   XY=             -1.2360   XZ=              0.0000   YZ=              0.0000

 \MP4DQ=-33.8862141\MP4SDQ=-33.8882773\CCSD=-33.889336\CCSD(T)=-33.8919
 Normal termination of Gaussian 16 at Sun Dec 10 06:59:22 2023.
