 Gaussian 16, Revision A.03,
 Gaussian 16:  ES64L-G16RevA.03 25-Dec-2016

 ------------------
 #p CCSD(T)/CEP-31G
 ------------------

 ------------
 H2O_H2O_2298
 ------------
 Symbolic Z-matrix:
 Charge =  0 Multiplicity = 1

                         Standard orientation:
 ---------------------------------------------------------------------
 Center     Atomic      Atomic             Coordinates (Angstroms)
 Number     Number       Type             X           Y           Z
 ---------------------------------------------------------------------
      1          8           0        0.057121   -1.955699    0.000000
      2          1           0       -0.743842   -2.524877    0.000000
      3          1           0        0.855295   -2.528782    0.000000
      4          8           0        0.057121    2.062176    0.000000
      5          1           0       -0.458453    2.898651    0.000000
      6          1           0       -0.566938    1.303193    0.000000
 ---------------------------------------------------------------------

 SCF Done:  E(RHF) =  -33.6531870494     A.U. after   11 cycles
 E2 =    -0.2285144392D+00 EUMP2 =    -0.33881701488597D+02
 CCSD(T)
 CCSD(T)= -0.33898672297D+02

 The electronic state is 1-A'.
 Alpha  occ. eigenvalues --   -1.35957  -1.33839  -0.71597  -0.69409  -0.55774
 Alpha  occ. eigenvalues --   -0.53590  -0.50547  -0.48429
 Alpha virt. eigenvalues --    0.19371   0.22520   0.30060   0.32443   0.79917
 Alpha virt. eigenvalues --    0.80766   0.82177   0.85544   0.86174   0.91544
 Alpha virt. eigenvalues --    1.16986   1.19485   1.21380   1.25317   2.56211

 Mulliken charges:
               1
     1  O   -0.745439
     2  H    0.368321
     3  H    0.377869
     4  O   -0.744713
     5  H    0.359820
     6  H    0.384142
 Sum of Mulliken charges =   0.00000

 Dipole moment (field-independent basis, Debye):
    X=             -2.6100    Y=             -2.5803    Z=              0.0000  Tot=              3.6702
 Quadrupole moment (field-independent basis, Debye-Ang):
   XX=            -10.1431   YY=              0.9172   ZZ=            -14.9924
   XY=             -5.5293   XZ=              0.0000   YZ=              0.0000

 MP4DQ=-33.8930133\MP4SDQ=-33.8950562\CCSD=-33.8960978\CCSD(T)=-33.8986
 Normal termination of Gaussian 16 at Sun Dec 10 07:08:45 2023.
