 Gaussian 16, Revision A.03,
 Gaussian 16:  ES64L-G16RevA.03 25-Dec-2016

 ------------------
 #p CCSD(T)/CEP-31G
 ------------------

 -----------
 H2O_H2O_994
 -----------
 Symbolic Z-matrix:
 Charge =  0 Multiplicity = 1

                         Standard orientation:
 ---------------------------------------------------------------------
 Center     Atomic      Atomic             Coordinates (Angstroms)
 Number     Number       Type             X           Y           Z
 ---------------------------------------------------------------------
      1          8           0        0.054219   -1.280248    0.000000
      2          1           0       -0.747363   -1.848554    0.000000
      3          1           0        0.851769   -1.854199    0.000000
      4          8           0        0.054219    1.357375    0.000000
      5          1           0       -0.226268    2.299094    0.000000
      6          1           0       -0.745637    0.786641    0.000000
 ---------------------------------------------------------------------

 SCF Done:  E(RHF) =  -33.6467738756     A.U. after   11 cycles
 E2 =    -0.2298878294D+00 EUMP2 =    -0.33876661705012D+02
 CCSD(T)
 CCSD(T)= -0.33893821494D+02

 The electronic state is 1-A'.
 Alpha  occ. eigenvalues --   -1.35503  -1.32003  -0.71167  -0.67950  -0.54966
 Alpha  occ. eigenvalues --   -0.51446  -0.50086  -0.46523
 Alpha virt. eigenvalues --    0.19506   0.25544   0.30477   0.34069   0.77717
 Alpha virt. eigenvalues --    0.81270   0.87511   0.88149   0.93023   1.15441
 Alpha virt. eigenvalues --    1.19288   1.20592   1.22621   1.29562   2.64674

 Mulliken charges:
               1
     1  O   -0.749687
     2  H    0.358593
     3  H    0.388842
     4  O   -0.716423
     5  H    0.338488
     6  H    0.380186
 Sum of Mulliken charges =  -0.00000

 Dipole moment (field-independent basis, Debye):
    X=             -2.3514    Y=             -1.9675    Z=              0.0000  Tot=              3.0660
 Quadrupole moment (field-independent basis, Debye-Ang):
   XX=             -9.9296   YY=             -1.8750   ZZ=            -14.9967
   XY=             -3.0690   XZ=              0.0000   YZ=              0.0000

 P4DQ=-33.8879265\MP4SDQ=-33.8900794\CCSD=-33.8911102\CCSD(T)=-33.89382
 Normal termination of Gaussian 16 at Sun Dec 10 06:43:20 2023.
