 Gaussian 16, Revision A.03,
 Gaussian 16:  ES64L-G16RevA.03 25-Dec-2016

 ------------------
 #p CCSD(T)/CEP-31G
 ------------------

 ------------
 H2O_H2O_1891
 ------------
 Symbolic Z-matrix:
 Charge =  0 Multiplicity = 1

                         Standard orientation:
 ---------------------------------------------------------------------
 Center     Atomic      Atomic             Coordinates (Angstroms)
 Number     Number       Type             X           Y           Z
 ---------------------------------------------------------------------
      1          8           0        0.049529   -1.769900    0.000000
      2          1           0       -0.751392   -2.339137    0.000000
      3          1           0        0.847745   -2.342923    0.000000
      4          8           0        0.049529    1.826778    0.000000
      5          1           0       -0.042984    2.805015    0.000000
      6          1           0       -0.845832    1.422013    0.000000
 ---------------------------------------------------------------------

 SCF Done:  E(RHF) =  -33.6497188548     A.U. after   11 cycles
 E2 =    -0.2287805814D+00 EUMP2 =    -0.33878499436169D+02
 CCSD(T)
 CCSD(T)= -0.33895582848D+02

 The electronic state is 1-A'.
 Alpha  occ. eigenvalues --   -1.35033  -1.33629  -0.70666  -0.69193  -0.54678
 Alpha  occ. eigenvalues --   -0.53192  -0.49577  -0.48179
 Alpha virt. eigenvalues --    0.20016   0.22645   0.30792   0.32273   0.76406
 Alpha virt. eigenvalues --    0.80285   0.83056   0.85789   0.87752   1.00464
 Alpha virt. eigenvalues --    1.17757   1.19787   1.22174   1.24241   2.57006

 Mulliken charges:
               1
     1  O   -0.734119
     2  H    0.361408
     3  H    0.373248
     4  O   -0.729702
     5  H    0.355010
     6  H    0.374156
 Sum of Mulliken charges =  -0.00000

 Dipole moment (field-independent basis, Debye):
    X=             -2.2462    Y=             -1.3940    Z=              0.0000  Tot=              2.6436
 Quadrupole moment (field-independent basis, Debye-Ang):
   XX=             -9.6320   YY=              3.4246   ZZ=            -14.9882
   XY=             -3.5518   XZ=              0.0000   YZ=              0.0000

 \MP4DQ=-33.8898862\MP4SDQ=-33.8919456\CCSD=-33.8929917\CCSD(T)=-33.895
 Normal termination of Gaussian 16 at Sun Dec 10 07:00:00 2023.
