 Gaussian 16, Revision A.03,
 Gaussian 16:  ES64L-G16RevA.03 25-Dec-2016

 ------------------
 #p CCSD(T)/CEP-31G
 ------------------

 ------------
 H2O_H2O_1801
 ------------
 Symbolic Z-matrix:
 Charge =  0 Multiplicity = 1

                         Standard orientation:
 ---------------------------------------------------------------------
 Center     Atomic      Atomic             Coordinates (Angstroms)
 Number     Number       Type             X           Y           Z
 ---------------------------------------------------------------------
      1          8           0        0.003735   -1.760772    0.000000
      2          1           0       -0.795940   -2.331758    0.000000
      3          1           0        0.803202   -2.332050    0.000000
      4          8           0        0.003735    1.761016    0.000000
      5          1           0        0.764355    2.383080    0.000000
      6          1           0       -0.831383    2.278783    0.000000
 ---------------------------------------------------------------------

 SCF Done:  E(RHF) =  -33.6449345149     A.U. after   11 cycles
 E2 =    -0.2288761896D+00 EUMP2 =    -0.33873810704463D+02
 CCSD(T)
 CCSD(T)= -0.33891027263D+02

 The electronic state is 1-A'.
 Alpha  occ. eigenvalues --   -1.33786  -1.33742  -0.69404  -0.69358  -0.53641
 Alpha  occ. eigenvalues --   -0.52525  -0.48326  -0.48151
 Alpha virt. eigenvalues --    0.21123   0.22192   0.31720   0.32045   0.77034
 Alpha virt. eigenvalues --    0.80943   0.83670   0.85552   0.92068   0.99110
 Alpha virt. eigenvalues --    1.18847   1.18905   1.23182   1.23686   2.58310

 Mulliken charges:
               1
     1  O   -0.718317
     2  H    0.358680
     3  H    0.359640
     4  O   -0.718277
     5  H    0.358595
     6  H    0.359680
 Sum of Mulliken charges =   0.00000

 Dipole moment (field-independent basis, Debye):
    X=             -0.1696    Y=             -0.0060    Z=              0.0000  Tot=              0.1697
 Quadrupole moment (field-independent basis, Debye-Ang):
   XX=             -8.1355   YY=              6.3449   ZZ=            -14.9833
   XY=             -0.1979   XZ=              0.0000   YZ=              0.0000

 P4DQ=-33.8852969\MP4SDQ=-33.8873624\CCSD=-33.8884243\CCSD(T)=-33.89102
 Normal termination of Gaussian 16 at Sun Dec 10 06:58:21 2023.
