 Gaussian 16, Revision A.03,
 Gaussian 16:  ES64L-G16RevA.03 25-Dec-2016

 ------------------
 #p CCSD(T)/CEP-31G
 ------------------

 ------------
 H2O_H2O_3210
 ------------
 Symbolic Z-matrix:
 Charge =  0 Multiplicity = 1

                         Standard orientation:
 ---------------------------------------------------------------------
 Center     Atomic      Atomic             Coordinates (Angstroms)
 Number     Number       Type             X           Y           Z
 ---------------------------------------------------------------------
      1          8           0        0.034782   -2.492701    0.000000
      2          1           0       -0.765471   -3.062877    0.000000
      3          1           0        0.833670   -3.064788    0.000000
      4          8           0        0.034782    2.516222    0.000000
      5          1           0        0.322565    3.455736    0.000000
      6          1           0       -0.947283    2.483757    0.000000
 ---------------------------------------------------------------------

 SCF Done:  E(RHF) =  -33.6500303782     A.U. after   11 cycles
 E2 =    -0.2284942247D+00 EUMP2 =    -0.33878524602890D+02
 CCSD(T)
 CCSD(T)= -0.33895575856D+02

 The electronic state is 1-A'.
 Alpha  occ. eigenvalues --   -1.34896  -1.34610  -0.70522  -0.70226  -0.54531
 Alpha  occ. eigenvalues --   -0.54243  -0.49441  -0.49157
 Alpha virt. eigenvalues --    0.20766   0.21081   0.31011   0.31286   0.81109
 Alpha virt. eigenvalues --    0.81394   0.83871   0.84966   0.87345   0.87785
 Alpha virt. eigenvalues --    1.17932   1.18214   1.22405   1.22688   2.57991

 Mulliken charges:
               1
     1  O   -0.734987
     2  H    0.365775
     3  H    0.369213
     4  O   -0.734329
     5  H    0.364671
     6  H    0.369656
 Sum of Mulliken charges =  -0.00000

 Dipole moment (field-independent basis, Debye):
    X=             -1.5997    Y=             -0.5556    Z=              0.0000  Tot=              1.6935
 Quadrupole moment (field-independent basis, Debye-Ang):
   XX=             -8.8316   YY=             12.4400   ZZ=            -14.9864
   XY=             -3.2230   XZ=              0.0000   YZ=              0.0000

 \MP4DQ=-33.8899174\MP4SDQ=-33.8919503\CCSD=-33.893008\CCSD(T)=-33.8955
 Normal termination of Gaussian 16 at Sun Dec 10 06:37:39 2023.
