 Gaussian 16, Revision A.03,
 Gaussian 16:  ES64L-G16RevA.03 25-Dec-2016

 ------------------
 #p CCSD(T)/CEP-31G
 ------------------

 ------------
 H2O_H2O_1640
 ------------
 Symbolic Z-matrix:
 Charge =  0 Multiplicity = 1

                         Standard orientation:
 ---------------------------------------------------------------------
 Center     Atomic      Atomic             Coordinates (Angstroms)
 Number     Number       Type             X           Y           Z
 ---------------------------------------------------------------------
      1          8           0        0.047550   -1.640387    0.000000
      2          1           0       -0.753420   -2.209555    0.000000
      3          1           0        0.845717   -2.213480    0.000000
      4          8           0        0.047550    1.690919    0.000000
      5          1           0        0.019300    2.673114    0.000000
      6          1           0       -0.872397    1.345661    0.000000
 ---------------------------------------------------------------------

 SCF Done:  E(RHF) =  -33.6484446784     A.U. after   11 cycles
 E2 =    -0.2289684580D+00 EUMP2 =    -0.33877413136457D+02
 CCSD(T)
 CCSD(T)= -0.33894558004D+02

 The electronic state is 1-A'.
 Alpha  occ. eigenvalues --   -1.34806  -1.33362  -0.70439  -0.68922  -0.54468
 Alpha  occ. eigenvalues --   -0.52774  -0.49340  -0.47893
 Alpha virt. eigenvalues --    0.20068   0.23053   0.30979   0.32427   0.75373
 Alpha virt. eigenvalues --    0.79889   0.84014   0.85362   0.88986   1.06466
 Alpha virt. eigenvalues --    1.17916   1.20473   1.22428   1.24578   2.57306

 Mulliken charges:
               1
     1  O   -0.730742
     2  H    0.358654
     3  H    0.372593
     4  O   -0.724232
     5  H    0.351631
     6  H    0.372098
 Sum of Mulliken charges =   0.00000

 Dipole moment (field-independent basis, Debye):
    X=             -2.1418    Y=             -1.2516    Z=              0.0000  Tot=              2.4807
 Quadrupole moment (field-independent basis, Debye-Ang):
   XX=             -9.5180   YY=              2.6703   ZZ=            -14.9878
   XY=             -3.0395   XZ=              0.0000   YZ=              0.0000

 4\MP4DQ=-33.8888255\MP4SDQ=-33.8909035\CCSD=-33.8919509\CCSD(T)=-33.89
 Normal termination of Gaussian 16 at Sun Dec 10 06:55:23 2023.
