 Gaussian 16, Revision A.03,
 Gaussian 16:  ES64L-G16RevA.03 25-Dec-2016

 ------------------
 #p CCSD(T)/CEP-31G
 ------------------

 ------------
 H2O_H2O_4435
 ------------
 Symbolic Z-matrix:
 Charge =  0 Multiplicity = 1

                         Standard orientation:
 ---------------------------------------------------------------------
 Center     Atomic      Atomic             Coordinates (Angstroms)
 Number     Number       Type             X           Y           Z
 ---------------------------------------------------------------------
      1          8           0        0.034779   -3.144191    0.000000
      2          1           0       -0.765333   -3.714565    0.000000
      3          1           0        0.833808   -3.716081    0.000000
      4          8           0        0.034779    3.167730    0.000000
      5          1           0        0.322331    4.107314    0.000000
      6          1           0       -0.947278    3.135022    0.000000
 ---------------------------------------------------------------------

 SCF Done:  E(RHF) =  -33.6509168613     A.U. after   11 cycles
 E2 =    -0.2284288767D+00 EUMP2 =    -0.33879345737958D+02
 CCSD(T)
 CCSD(T)= -0.33896371177D+02

 The electronic state is 1-A'.
 Alpha  occ. eigenvalues --   -1.35152  -1.34975  -0.70781  -0.70599  -0.54838
 Alpha  occ. eigenvalues --   -0.54661  -0.49710  -0.49533
 Alpha virt. eigenvalues --    0.20571   0.20751   0.30805   0.30979   0.80843
 Alpha virt. eigenvalues --    0.81018   0.83952   0.84126   0.87031   0.87237
 Alpha virt. eigenvalues --    1.17712   1.17888   1.22177   1.22354   2.57751

 Mulliken charges:
               1
     1  O   -0.738023
     2  H    0.368105
     3  H    0.369917
     4  O   -0.737798
     5  H    0.367501
     6  H    0.370297
 Sum of Mulliken charges =   0.00000

 Dipole moment (field-independent basis, Debye):
    X=             -1.6053    Y=             -0.5506    Z=              0.0000  Tot=              1.6971
 Quadrupole moment (field-independent basis, Debye-Ang):
   XX=             -8.8226   YY=             18.7175   ZZ=            -14.9872
   XY=             -4.2507   XZ=              0.0000   YZ=              0.0000

 \MP4DQ=-33.8907202\MP4SDQ=-33.8927503\CCSD=-33.8938072\CCSD(T)=-33.896
 Normal termination of Gaussian 16 at Sun Dec 10 06:59:50 2023.
