 Gaussian 16, Revision A.03,
 Gaussian 16:  ES64L-G16RevA.03 25-Dec-2016

 ------------------
 #p CCSD(T)/CEP-31G
 ------------------

 ------------
 H2O_H2O_1076
 ------------
 Symbolic Z-matrix:
 Charge =  0 Multiplicity = 1

                         Standard orientation:
 ---------------------------------------------------------------------
 Center     Atomic      Atomic             Coordinates (Angstroms)
 Number     Number       Type             X           Y           Z
 ---------------------------------------------------------------------
      1          8           0        0.003735   -1.375191    0.000000
      2          1           0       -0.795969   -1.946136    0.000000
      3          1           0        0.803173   -1.946510    0.000000
      4          8           0        0.003735    1.375434    0.000000
      5          1           0        0.764387    1.997459    0.000000
      6          1           0       -0.831357    1.893244    0.000000
 ---------------------------------------------------------------------

 SCF Done:  E(RHF) =  -33.6365456619     A.U. after   11 cycles
 E2 =    -0.2295336107D+00 EUMP2 =    -0.33866079272630D+02
 CCSD(T)
 CCSD(T)= -0.33883500356D+02

 The electronic state is 1-A'.
 Alpha  occ. eigenvalues --   -1.32982  -1.32617  -0.68554  -0.68264  -0.54036
 Alpha  occ. eigenvalues --   -0.49519  -0.47618  -0.46758
 Alpha virt. eigenvalues --    0.21421   0.23502   0.32374   0.32724   0.79596
 Alpha virt. eigenvalues --    0.80566   0.82734   0.87476   1.02242   1.08551
 Alpha virt. eigenvalues --    1.19460   1.20447   1.24402   1.24455   2.58248

 Mulliken charges:
               1
     1  O   -0.703073
     2  H    0.350584
     3  H    0.352461
     4  O   -0.702901
     5  H    0.351017
     6  H    0.351913
 Sum of Mulliken charges =  -0.00000

 Dipole moment (field-independent basis, Debye):
    X=             -0.1638    Y=             -0.0060    Z=              0.0000  Tot=              0.1639
 Quadrupole moment (field-independent basis, Debye-Ang):
   XX=             -8.2219   YY=              1.7568   ZZ=            -14.9883
   XY=             -0.1373   XZ=              0.0000   YZ=              0.0000

 \MP4DQ=-33.8776435\MP4SDQ=-33.8797376\CCSD=-33.8808295\CCSD(T)=-33.883
 Normal termination of Gaussian 16 at Sun Dec 10 06:44:53 2023.
