 Gaussian 16, Revision A.03,
 Gaussian 16:  ES64L-G16RevA.03 25-Dec-2016

 ------------------
 #p CCSD(T)/CEP-31G
 ------------------

 ------------
 H2O_H2O_1764
 ------------
 Symbolic Z-matrix:
 Charge =  0 Multiplicity = 1

                         Standard orientation:
 ---------------------------------------------------------------------
 Center     Atomic      Atomic             Coordinates (Angstroms)
 Number     Number       Type             X           Y           Z
 ---------------------------------------------------------------------
      1          8           0        0.045361   -1.710151    0.000000
      2          1           0       -0.755494   -2.279481    0.000000
      3          1           0        0.843644   -2.283081    0.000000
      4          8           0        0.045361    1.754636    0.000000
      5          1           0        0.081211    2.736584    0.000000
      6          1           0       -0.895140    1.470094    0.000000
 ---------------------------------------------------------------------

 SCF Done:  E(RHF) =  -33.6483526181     A.U. after   11 cycles
 E2 =    -0.2288817540D+00 EUMP2 =    -0.33877234372112D+02
 CCSD(T)
 CCSD(T)= -0.33894366656D+02

 The electronic state is 1-A'.
 Alpha  occ. eigenvalues --   -1.34717  -1.33544  -0.70348  -0.69112  -0.54359
 Alpha  occ. eigenvalues --   -0.52959  -0.49247  -0.48072
 Alpha virt. eigenvalues --    0.20227   0.22708   0.31063   0.32245   0.75663
 Alpha virt. eigenvalues --    0.80255   0.83536   0.85466   0.88814   1.03554
 Alpha virt. eigenvalues --    1.18018   1.19895   1.22486   1.24056   2.57457

 Mulliken charges:
               1
     1  O   -0.729875
     2  H    0.359150
     3  H    0.371156
     4  O   -0.724819
     5  H    0.353517
     6  H    0.370870
 Sum of Mulliken charges =   0.00000

 Dipole moment (field-independent basis, Debye):
    X=             -2.0509    Y=             -1.0959    Z=              0.0000  Tot=              2.3253
 Quadrupole moment (field-independent basis, Debye-Ang):
   XX=             -9.3904   YY=              3.6371   ZZ=            -14.9870
   XY=             -2.9478   XZ=              0.0000   YZ=              0.0000

 \MP4DQ=-33.8886501\MP4SDQ=-33.8907185\CCSD=-33.8917673\CCSD(T)=-33.894
 Normal termination of Gaussian 16 at Sun Dec 10 06:57:40 2023.
