 Gaussian 16, Revision A.03,
 Gaussian 16:  ES64L-G16RevA.03 25-Dec-2016

 ------------------
 #p CCSD(T)/CEP-31G
 ------------------

 -----------
 H2O_H2O_594
 -----------
 Symbolic Z-matrix:
 Charge =  0 Multiplicity = 1

                         Standard orientation:
 ---------------------------------------------------------------------
 Center     Atomic      Atomic             Coordinates (Angstroms)
 Number     Number       Type             X           Y           Z
 ---------------------------------------------------------------------
      1          8           0        0.054245   -1.067552    0.000000
      2          1           0       -0.747723   -1.635313    0.000000
      3          1           0        0.851405   -1.642044    0.000000
      4          8           0        0.054245    1.144605    0.000000
      5          1           0       -0.225602    2.086514    0.000000
      6          1           0       -0.745998    0.574414    0.000000
 ---------------------------------------------------------------------

 SCF Done:  E(RHF) =  -33.6279155156     A.U. after   11 cycles
 E2 =    -0.2312365838D+00 EUMP2 =    -0.33859152099399D+02
 CCSD(T)
 CCSD(T)= -0.33876190212D+02

 The electronic state is 1-A'.
 Alpha  occ. eigenvalues --   -1.35995  -1.30885  -0.71773  -0.68429  -0.54053
 Alpha  occ. eigenvalues --   -0.50548  -0.49594  -0.45276
 Alpha virt. eigenvalues --    0.19482   0.27119   0.30270   0.34774   0.77824
 Alpha virt. eigenvalues --    0.84535   0.89536   0.94876   0.97875   1.14057
 Alpha virt. eigenvalues --    1.18908   1.21597   1.25722   1.31476   2.66361

 Mulliken charges:
               1
     1  O   -0.771931
     2  H    0.358369
     3  H    0.402699
     4  O   -0.688784
     5  H    0.326164
     6  H    0.373482
 Sum of Mulliken charges =   0.00000

 Dipole moment (field-independent basis, Debye):
    X=             -2.2245    Y=             -1.9886    Z=              0.0000  Tot=              2.9838
 Quadrupole moment (field-independent basis, Debye-Ang):
   XX=             -9.9359   YY=             -4.0352   ZZ=            -14.9985
   XY=             -2.5250   XZ=              0.0000   YZ=              0.0000

 P4DQ=-33.8700831\MP4SDQ=-33.872337\CCSD=-33.8733054\CCSD(T)=-33.876190
 Normal termination of Gaussian 16 at Sun Dec 10 06:35:51 2023.
