 Gaussian 16, Revision A.03,
 Gaussian 16:  ES64L-G16RevA.03 25-Dec-2016

 ------------------
 #p CCSD(T)/CEP-31G
 ------------------

 ------------
 H2O_H2O_4738
 ------------
 Symbolic Z-matrix:
 Charge =  0 Multiplicity = 1

                         Standard orientation:
 ---------------------------------------------------------------------
 Center     Atomic      Atomic             Coordinates (Angstroms)
 Number     Number       Type             X           Y           Z
 ---------------------------------------------------------------------
      1          8           0        0.042962   -3.295445    0.000000
      2          1           0       -0.757246   -3.865685    0.000000
      3          1           0        0.841895   -3.867468    0.000000
      4          8           0        0.042962    3.334261    0.000000
      5          1           0        0.141846    4.311874    0.000000
      6          1           0       -0.913882    3.110752    0.000000
 ---------------------------------------------------------------------

 SCF Done:  E(RHF) =  -33.6512221324     A.U. after   11 cycles
 E2 =    -0.2284123405D+00 EUMP2 =    -0.33879634472830D+02
 CCSD(T)
 CCSD(T)= -0.33896651126D+02

 The electronic state is 1-A'.
 Alpha  occ. eigenvalues --   -1.35290  -1.35026  -0.70920  -0.70650  -0.54993
 Alpha  occ. eigenvalues --   -0.54728  -0.49853  -0.49589
 Alpha virt. eigenvalues --    0.20450   0.20719   0.30686   0.30948   0.80700
 Alpha virt. eigenvalues --    0.80961   0.83779   0.84040   0.86871   0.87168
 Alpha virt. eigenvalues --    1.17588   1.17849   1.22050   1.22314   2.57619

 Mulliken charges:
               1
     1  O   -0.739105
     2  H    0.368587
     3  H    0.370518
     4  O   -0.738864
     5  H    0.367813
     6  H    0.371051
 Sum of Mulliken charges =   0.00000

 Dipole moment (field-independent basis, Debye):
    X=             -1.9838    Y=             -0.9067    Z=              0.0000  Tot=              2.1812
 Quadrupole moment (field-independent basis, Debye-Ang):
   XX=             -9.2352   YY=             18.2386   ZZ=            -14.9877
   XY=             -5.7751   XZ=              0.0000   YZ=              0.0000

 \MP4DQ=-33.8910026\MP4SDQ=-33.8930318\CCSD=-33.8940882\CCSD(T)=-33.896
 Normal termination of Gaussian 16 at Sun Dec 10 07:06:58 2023.
