 Gaussian 16, Revision A.03,
 Gaussian 16:  ES64L-G16RevA.03 25-Dec-2016

 ------------------
 #p CCSD(T)/CEP-31G
 ------------------

 ------------
 H2O_H2O_3449
 ------------
 Symbolic Z-matrix:
 Charge =  0 Multiplicity = 1

                         Standard orientation:
 ---------------------------------------------------------------------
 Center     Atomic      Atomic             Coordinates (Angstroms)
 Number     Number       Type             X           Y           Z
 ---------------------------------------------------------------------
      1          8           0        0.057220   -2.563221    0.000000
      2          1           0       -0.743421   -3.132851    0.000000
      3          1           0        0.855718   -3.135852    0.000000
      4          8           0        0.057220    2.677233    0.000000
      5          1           0       -0.512410    3.477874    0.000000
      6          1           0       -0.515411    1.878735    0.000000
 ---------------------------------------------------------------------

 SCF Done:  E(RHF) =  -33.6524605553     A.U. after   11 cycles
 E2 =    -0.2283698244D+00 EUMP2 =    -0.33880830379774D+02
 CCSD(T)
 CCSD(T)= -0.33897810775D+02

 The electronic state is 1-A'.
 Alpha  occ. eigenvalues --   -1.35831  -1.34580  -0.71467  -0.70189  -0.55606
 Alpha  occ. eigenvalues --   -0.54326  -0.50412  -0.49160
 Alpha virt. eigenvalues --    0.19946   0.21297   0.30218   0.31520   0.80143
 Alpha virt. eigenvalues --    0.81365   0.83042   0.84429   0.86235   0.87599
 Alpha virt. eigenvalues --    1.17099   1.18352   1.21548   1.22872   2.57086

 Mulliken charges:
               1
     1  O   -0.743509
     2  H    0.369518
     3  H    0.374011
     4  O   -0.743260
     5  H    0.365660
     6  H    0.377580
 Sum of Mulliken charges =  -0.00000

 Dipole moment (field-independent basis, Debye):
    X=             -2.6335    Y=             -2.6897    Z=              0.0000  Tot=              3.7643
 Quadrupole moment (field-independent basis, Debye-Ang):
   XX=            -10.1631   YY=              3.5278   ZZ=            -14.9903
   XY=             -7.2642   XZ=              0.0000   YZ=              0.0000

 \MP4DQ=-33.892171\MP4SDQ=-33.8941976\CCSD=-33.8952503\CCSD(T)=-33.8978
 Normal termination of Gaussian 16 at Sun Dec 10 06:41:57 2023.
