 Gaussian 16, Revision A.03,
 Gaussian 16:  ES64L-G16RevA.03 25-Dec-2016

 ------------------
 #p CCSD(T)/CEP-31G
 ------------------

 ------------
 H2O_H2O_2107
 ------------
 Symbolic Z-matrix:
 Charge =  0 Multiplicity = 1

                         Standard orientation:
 ---------------------------------------------------------------------
 Center     Atomic      Atomic             Coordinates (Angstroms)
 Number     Number       Type             X           Y           Z
 ---------------------------------------------------------------------
      1          8           0        0.025267   -1.914088    0.000000
      2          1           0       -0.774950   -2.484314    0.000000
      3          1           0        0.824191   -2.486126    0.000000
      4          8           0        0.025267    1.925811    0.000000
      5          1           0        0.490756    2.791158    0.000000
      6          1           0       -0.944272    2.085500    0.000000
 ---------------------------------------------------------------------

 SCF Done:  E(RHF) =  -33.6472504177     A.U. after   11 cycles
 E2 =    -0.2287332760D+00 EUMP2 =    -0.33875983693711D+02
 CCSD(T)
 CCSD(T)= -0.33893121980D+02

 The electronic state is 1-A'.
 Alpha  occ. eigenvalues --   -1.34244  -1.33996  -0.69867  -0.69604  -0.53887
 Alpha  occ. eigenvalues --   -0.53273  -0.48758  -0.48498
 Alpha virt. eigenvalues --    0.20928   0.21867   0.31513   0.31747   0.78549
 Alpha virt. eigenvalues --    0.81182   0.82651   0.86347   0.89222   0.95156
 Alpha virt. eigenvalues --    1.18472   1.18736   1.22980   1.23257   2.58192

 Mulliken charges:
               1
     1  O   -0.725617
     2  H    0.360272
     3  H    0.365414
     4  O   -0.724419
     5  H    0.358962
     6  H    0.365389
 Sum of Mulliken charges =   0.00000

 Dipole moment (field-independent basis, Debye):
    X=             -1.1519    Y=             -0.2850    Z=              0.0000  Tot=              1.1866
 Quadrupole moment (field-independent basis, Debye-Ang):
   XX=             -8.4992   YY=              7.4471   ZZ=            -14.9845
   XY=             -1.5950   XZ=              0.0000   YZ=              0.0000

 MP4DQ=-33.8874263\MP4SDQ=-33.8894773\CCSD=-33.8905347\CCSD(T)=-33.8931
 Normal termination of Gaussian 16 at Sun Dec 10 07:05:19 2023.
