 Gaussian 16, Revision A.03,
 Gaussian 16:  ES64L-G16RevA.03 25-Dec-2016

 ------------------
 #p CCSD(T)/CEP-31G
 ------------------

 -----------
 H2O_H2O_747
 -----------
 Symbolic Z-matrix:
 Charge =  0 Multiplicity = 1

                         Standard orientation:
 ---------------------------------------------------------------------
 Center     Atomic      Atomic             Coordinates (Angstroms)
 Number     Number       Type             X           Y           Z
 ---------------------------------------------------------------------
      1          8           0        0.056828   -1.135490    0.000000
      2          1           0       -0.745085   -1.703328    0.000000
      3          1           0        0.854043   -1.709907    0.000000
      4          8           0        0.056828    1.234341    0.000000
      5          1           0       -0.401481    2.103512    0.000000
      6          1           0       -0.616731    0.518922    0.000000
 ---------------------------------------------------------------------

 SCF Done:  E(RHF) =  -33.6410572608     A.U. after   11 cycles
 E2 =    -0.2305026547D+00 EUMP2 =    -0.33871559915531D+02
 CCSD(T)
 CCSD(T)= -0.33888349756D+02

 The electronic state is 1-A'.
 Alpha  occ. eigenvalues --   -1.36912  -1.30888  -0.72628  -0.68550  -0.54599
 Alpha  occ. eigenvalues --   -0.51462  -0.50800  -0.45406
 Alpha virt. eigenvalues --    0.18981   0.27139   0.29479   0.36399   0.76828
 Alpha virt. eigenvalues --    0.83474   0.88968   0.90495   0.97931   1.12923
 Alpha virt. eigenvalues --    1.19424   1.19469   1.25621   1.31101   2.72151

 Mulliken charges:
               1
     1  O   -0.777704
     2  H    0.366259
     3  H    0.411593
     4  O   -0.715521
     5  H    0.327584
     6  H    0.387790
 Sum of Mulliken charges =  -0.00000

 Dipole moment (field-independent basis, Debye):
    X=             -2.3854    Y=             -2.6258    Z=              0.0000  Tot=              3.5475
 Quadrupole moment (field-independent basis, Debye-Ang):
   XX=            -10.0880   YY=             -4.2254   ZZ=            -15.0050
   XY=             -3.2198   XZ=              0.0000   YZ=              0.0000

 P4DQ=-33.8823259\MP4SDQ=-33.8845442\CCSD=-33.8854982\CCSD(T)=-33.88834
 Normal termination of Gaussian 16 at Sun Dec 10 06:38:42 2023.
