 Gaussian 16, Revision A.03,
 Gaussian 16:  ES64L-G16RevA.03 25-Dec-2016

 ------------------
 #p CCSD(T)/CEP-31G
 ------------------

 ------------
 H2O_H2O_4428
 ------------
 Symbolic Z-matrix:
 Charge =  0 Multiplicity = 1

                         Standard orientation:
 ---------------------------------------------------------------------
 Center     Atomic      Atomic             Coordinates (Angstroms)
 Number     Number       Type             X           Y           Z
 ---------------------------------------------------------------------
      1          8           0        0.011143   -3.155787    0.000000
      2          1           0       -0.788602   -3.726676    0.000000
      3          1           0        0.810540   -3.727161    0.000000
      4          8           0        0.011143    3.157975    0.000000
      5          1           0        0.684145    3.873916    0.000000
      6          1           0       -0.884365    3.562416    0.000000
 ---------------------------------------------------------------------

 SCF Done:  E(RHF) =  -33.6506232983     A.U. after   11 cycles
 E2 =    -0.2284402277D+00 EUMP2 =    -0.33879063526023D+02
 CCSD(T)
 CCSD(T)= -0.33896097405D+02

 The electronic state is 1-A'.
 Alpha  occ. eigenvalues --   -1.35005  -1.34988  -0.70632  -0.70615  -0.54675
 Alpha  occ. eigenvalues --   -0.54658  -0.49558  -0.49542
 Alpha virt. eigenvalues --    0.20702   0.20719   0.30934   0.30950   0.80995
 Alpha virt. eigenvalues --    0.81012   0.84130   0.84153   0.87201   0.87221
 Alpha virt. eigenvalues --    1.17847   1.17864   1.22315   1.22331   2.57893

 Mulliken charges:
               1
     1  O   -0.736970
     2  H    0.368192
     3  H    0.368778
     4  O   -0.736944
     5  H    0.368061
     6  H    0.368883
 Sum of Mulliken charges =  -0.00000

 Dipole moment (field-independent basis, Debye):
    X=             -0.5143    Y=             -0.0512    Z=              0.0000  Tot=              0.5169
 Quadrupole moment (field-independent basis, Debye-Ang):
   XX=             -8.1189   YY=             21.2411   ZZ=            -14.9868
   XY=             -1.2855   XZ=              0.0000   YZ=              0.0000

 MP4DQ=-33.8904442\MP4SDQ=-33.892475\CCSD=-33.8935326\CCSD(T)=-33.89609
 Normal termination of Gaussian 16 at Sun Dec 10 06:59:43 2023.
