 Gaussian 16, Revision A.03,
 Gaussian 16:  ES64L-G16RevA.03 25-Dec-2016

 ------------------
 #p CCSD(T)/CEP-31G
 ------------------

 ------------
 H2O_H2O_1526
 ------------
 Symbolic Z-matrix:
 Charge =  0 Multiplicity = 1

                         Standard orientation:
 ---------------------------------------------------------------------
 Center     Atomic      Atomic             Coordinates (Angstroms)
 Number     Number       Type             X           Y           Z
 ---------------------------------------------------------------------
      1          8           0        0.003735   -1.614517    0.000000
      2          1           0       -0.795949   -2.185490    0.000000
      3          1           0        0.803193   -2.185809    0.000000
      4          8           0        0.003735    1.614761    0.000000
      5          1           0        0.764365    2.236812    0.000000
      6          1           0       -0.831375    2.132541    0.000000
 ---------------------------------------------------------------------

 SCF Done:  E(RHF) =  -33.6427652102     A.U. after   11 cycles
 E2 =    -0.2290447358D+00 EUMP2 =    -0.33871809945951D+02
 CCSD(T)
 CCSD(T)= -0.33889105448D+02

 The electronic state is 1-A'.
 Alpha  occ. eigenvalues --   -1.33507  -1.33408  -0.69119  -0.69027  -0.53614
 Alpha  occ. eigenvalues --   -0.51718  -0.48067  -0.47744
 Alpha virt. eigenvalues --    0.21203   0.22598   0.31903   0.32293   0.76894
 Alpha virt. eigenvalues --    0.80437   0.83908   0.84881   0.94875   1.04227
 Alpha virt. eigenvalues --    1.19055   1.19242   1.23462   1.24028   2.59342

 Mulliken charges:
               1
     1  O   -0.712715
     2  H    0.355752
     3  H    0.356963
     4  O   -0.712651
     5  H    0.355721
     6  H    0.356931
 Sum of Mulliken charges =   0.00000

 Dipole moment (field-independent basis, Debye):
    X=             -0.1684    Y=             -0.0061    Z=              0.0000  Tot=              0.1685
 Quadrupole moment (field-independent basis, Debye-Ang):
   XX=             -8.1640   YY=              4.6720   ZZ=            -14.9834
   XY=             -0.1752   XZ=              0.0000   YZ=              0.0000

 \MP4DQ=-33.8833357\MP4SDQ=-33.8854148\CCSD=-33.8864844\CCSD(T)=-33.889
 Normal termination of Gaussian 16 at Sun Dec 10 06:53:15 2023.
