 Gaussian 16, Revision A.03,
 Gaussian 16:  ES64L-G16RevA.03 25-Dec-2016

 ------------------
 #p CCSD(T)/CEP-31G
 ------------------

 ------------
 H2O_H2O_2017
 ------------
 Symbolic Z-matrix:
 Charge =  0 Multiplicity = 1

                         Standard orientation:
 ---------------------------------------------------------------------
 Center     Atomic      Atomic             Coordinates (Angstroms)
 Number     Number       Type             X           Y           Z
 ---------------------------------------------------------------------
      1          8           0        0.051298   -1.832803    0.000000
      2          1           0       -0.749621   -2.402043    0.000000
      3          1           0        0.849517   -2.405825    0.000000
      4          8           0        0.051298    1.896266    0.000000
      5          1           0       -0.104999    2.866357    0.000000
      6          1           0       -0.815672    1.433807    0.000000
 ---------------------------------------------------------------------

 SCF Done:  E(RHF) =  -33.6504160933     A.U. after   11 cycles
 E2 =    -0.2286999235D+00 EUMP2 =    -0.33879116016751D+02
 CCSD(T)
 CCSD(T)= -0.33896171657D+02

 The electronic state is 1-A'.
 Alpha  occ. eigenvalues --   -1.35192  -1.33734  -0.70826  -0.69300  -0.54857
 Alpha  occ. eigenvalues --   -0.53354  -0.49744  -0.48293
 Alpha virt. eigenvalues --    0.19949   0.22504   0.30664   0.32230   0.77410
 Alpha virt. eigenvalues --    0.80361   0.82689   0.85882   0.87231   0.97677
 Alpha virt. eigenvalues --    1.17632   1.19586   1.22021   1.24203   2.56962

 Mulliken charges:
               1
     1  O   -0.736344
     2  H    0.362878
     3  H    0.373974
     4  O   -0.732661
     5  H    0.356499
     6  H    0.375654
 Sum of Mulliken charges =   0.00000

 Dipole moment (field-independent basis, Debye):
    X=             -2.3326    Y=             -1.5475    Z=              0.0000  Tot=              2.7993
 Quadrupole moment (field-independent basis, Debye-Ang):
   XX=             -9.7423   YY=              3.5080   ZZ=            -14.9888
   XY=             -3.9349   XZ=              0.0000   YZ=              0.0000

 MP4DQ=-33.8904891\MP4SDQ=-33.892541\CCSD=-33.8935869\CCSD(T)=-33.89617
 Normal termination of Gaussian 16 at Sun Dec 10 07:03:42 2023.
