 Gaussian 16, Revision A.03,
 Gaussian 16:  ES64L-G16RevA.03 25-Dec-2016

 ------------------
 #p CCSD(T)/CEP-31G
 ------------------

 ------------
 H2O_H2O_2881
 ------------
 Symbolic Z-matrix:
 Charge =  0 Multiplicity = 1

                         Standard orientation:
 ---------------------------------------------------------------------
 Center     Atomic      Atomic             Coordinates (Angstroms)
 Number     Number       Type             X           Y           Z
 ---------------------------------------------------------------------
      1          8           0        0.021860   -2.327925    0.000000
      2          1           0       -0.778172   -2.898412    0.000000
      3          1           0        0.820970   -2.899702    0.000000
      4          8           0        0.021860    2.336585    0.000000
      5          1           0        0.542677    3.169804    0.000000
      6          1           0       -0.935231    2.559031    0.000000
 ---------------------------------------------------------------------

 SCF Done:  E(RHF) =  -33.6491098429     A.U. after   11 cycles
 E2 =    -0.2285447724D+00 EUMP2 =    -0.33877654615312D+02
 CCSD(T)
 CCSD(T)= -0.33894732495D+02

 The electronic state is 1-A'.
 Alpha  occ. eigenvalues --   -1.34608  -1.34487  -0.70232  -0.70105  -0.54206
 Alpha  occ. eigenvalues --   -0.54047  -0.49140  -0.49019
 Alpha virt. eigenvalues --    0.20955   0.21200   0.31245   0.31361   0.81364
 Alpha virt. eigenvalues --    0.81577   0.83292   0.86050   0.87661   0.88152
 Alpha virt. eigenvalues --    1.18182   1.18301   1.22663   1.22786   2.58261

 Mulliken charges:
               1
     1  O   -0.731796
     2  H    0.364581
     3  H    0.367218
     4  O   -0.731405
     5  H    0.363971
     6  H    0.367431
 Sum of Mulliken charges =   0.00000

 Dipole moment (field-independent basis, Debye):
    X=             -1.0038    Y=             -0.2056    Z=              0.0000  Tot=              1.0246
 Quadrupole moment (field-independent basis, Debye-Ang):
   XX=             -8.3702   YY=             11.9616   ZZ=            -14.9855
   XY=             -1.7542   XZ=              0.0000   YZ=              0.0000

 P4DQ=-33.8890661\MP4SDQ=-33.8911018\CCSD=-33.8921609\CCSD(T)=-33.89473
 Normal termination of Gaussian 16 at Sun Dec 10 06:31:52 2023.
