 Gaussian 16, Revision A.03,
 Gaussian 16:  ES64L-G16RevA.03 25-Dec-2016

 ------------------
 #p CCSD(T)/CEP-31G
 ------------------

 ------------
 H2O_H2O_4232
 ------------
 Symbolic Z-matrix:
 Charge =  0 Multiplicity = 1

                         Standard orientation:
 ---------------------------------------------------------------------
 Center     Atomic      Atomic             Coordinates (Angstroms)
 Number     Number       Type             X           Y           Z
 ---------------------------------------------------------------------
      1          8           0        0.025265   -3.044229    0.000000
      2          1           0       -0.774713   -3.614791    0.000000
      3          1           0        0.824428   -3.615931    0.000000
      4          8           0        0.025265    3.055973    0.000000
      5          1           0        0.490390    3.921516    0.000000
      6          1           0       -0.944341    3.215256    0.000000
 ---------------------------------------------------------------------

 SCF Done:  E(RHF) =  -33.6506390487     A.U. after   11 cycles
 E2 =    -0.2284427303D+00 EUMP2 =    -0.33879081778913D+02
 CCSD(T)
 CCSD(T)= -0.33896115200D+02

 The electronic state is 1-A'.
 Alpha  occ. eigenvalues --   -1.35033  -1.34938  -0.70661  -0.70563  -0.54704
 Alpha  occ. eigenvalues --   -0.54609  -0.49587  -0.49492
 Alpha virt. eigenvalues --    0.20675   0.20771   0.30907   0.30999   0.80966
 Alpha virt. eigenvalues --    0.81060   0.84100   0.84199   0.87171   0.87284
 Alpha virt. eigenvalues --    1.17820   1.17914   1.22287   1.22381   2.57865

 Mulliken charges:
               1
     1  O   -0.737039
     2  H    0.367791
     3  H    0.369248
     4  O   -0.736889
     5  H    0.367390
     6  H    0.369499
 Sum of Mulliken charges =  -0.00000

 Dipole moment (field-independent basis, Debye):
    X=             -1.1657    Y=             -0.2750    Z=              0.0000  Tot=              1.1977
 Quadrupole moment (field-independent basis, Debye-Ang):
   XX=             -8.4536   YY=             19.0500   ZZ=            -14.9868
   XY=             -2.8698   XZ=              0.0000   YZ=              0.0000

 P4DQ=-33.8904621\MP4SDQ=-33.8924929\CCSD=-33.8935503\CCSD(T)=-33.89611
 Normal termination of Gaussian 16 at Sun Dec 10 06:56:16 2023.
