 Gaussian 16, Revision A.03,
 Gaussian 16:  ES64L-G16RevA.03 25-Dec-2016

 ------------------
 #p CCSD(T)/CEP-31G
 ------------------

 -----------
 H2O_H2O_172
 -----------
 Symbolic Z-matrix:
 Charge =  0 Multiplicity = 1

                         Standard orientation:
 ---------------------------------------------------------------------
 Center     Atomic      Atomic             Coordinates (Angstroms)
 Number     Number       Type             X           Y           Z
 ---------------------------------------------------------------------
      1          8           0        0.056899   -0.829769    0.000000
      2          1           0       -0.745826   -1.396459    0.000000
      3          1           0        0.853291   -1.405326    0.000000
      4          8           0        0.056899    0.928457    0.000000
      5          1           0       -0.400166    1.798283    0.000000
      6          1           0       -0.617684    0.214003    0.000000
 ---------------------------------------------------------------------

 SCF Done:  E(RHF) =  -33.5027065371     A.U. after   11 cycles
 E2 =    -0.2345988778D+00 EUMP2 =    -0.33737305414954D+02
 CCSD(T)
 CCSD(T)= -0.33753075502D+02

 The electronic state is 1-A'.
 Alpha  occ. eigenvalues --   -1.42773  -1.28072  -0.79386  -0.72714  -0.55169
 Alpha  occ. eigenvalues --   -0.49535  -0.43989  -0.42489
 Alpha virt. eigenvalues --    0.18716   0.27573   0.30559   0.37150   0.78303
 Alpha virt. eigenvalues --    0.83699   0.90308   0.93606   0.97859   1.16602
 Alpha virt. eigenvalues --    1.17955   1.25783   1.32515   1.37867   2.81734

 Mulliken charges:
               1
     1  O   -0.788276
     2  H    0.363306
     3  H    0.451305
     4  O   -0.674780
     5  H    0.281347
     6  H    0.367097
 Sum of Mulliken charges =  -0.00000

 Dipole moment (field-independent basis, Debye):
    X=             -2.0663    Y=             -2.8956    Z=              0.0000  Tot=              3.5572
 Quadrupole moment (field-independent basis, Debye-Ang):
   XX=            -10.0747   YY=             -8.0282   ZZ=            -14.9159
   XY=             -2.2629   XZ=              0.0000   YZ=              0.0000

 DQ=-33.7463139\MP4SDQ=-33.748969\CCSD=-33.7495658\CCSD(T)=-33.7530755\
 Normal termination of Gaussian 16 at Sun Dec 10 06:27:57 2023.
