 Gaussian 16, Revision A.03,
 Gaussian 16:  ES64L-G16RevA.03 25-Dec-2016

 ------------------
 #p CCSD(T)/CEP-31G
 ------------------

 ------------
 H2O_H2O_3305
 ------------
 Symbolic Z-matrix:
 Charge =  0 Multiplicity = 1

                         Standard orientation:
 ---------------------------------------------------------------------
 Center     Atomic      Atomic             Coordinates (Angstroms)
 Number     Number       Type             X           Y           Z
 ---------------------------------------------------------------------
      1          8           0        0.018360   -2.555379    0.000000
      2          1           0       -0.781563   -3.126017    0.000000
      3          1           0        0.817578   -3.127005    0.000000
      4          8           0        0.018360    2.561418    0.000000
      5          1           0        0.592407    3.358900    0.000000
      6          1           0       -0.922186    2.845807    0.000000
 ---------------------------------------------------------------------

 SCF Done:  E(RHF) =  -33.6496816892     A.U. after   11 cycles
 E2 =    -0.2285010120D+00 EUMP2 =    -0.33878182701239D+02
 CCSD(T)
 CCSD(T)= -0.33895243786D+02

 The electronic state is 1-A'.
 Alpha  occ. eigenvalues --   -1.34740  -1.34670  -0.70365  -0.70292  -0.54358
 Alpha  occ. eigenvalues --   -0.54281  -0.49280  -0.49210
 Alpha virt. eigenvalues --    0.20901   0.21001   0.31145   0.31212   0.81266
 Alpha virt. eigenvalues --    0.81347   0.84086   0.85001   0.87512   0.87647
 Alpha virt. eigenvalues --    1.18073   1.18142   1.22549   1.22619   2.58139

 Mulliken charges:
               1
     1  O   -0.733731
     2  H    0.366004
     3  H    0.367727
     4  O   -0.733547
     5  H    0.365622
     6  H    0.367925
 Sum of Mulliken charges =   0.00000

 Dipole moment (field-independent basis, Debye):
    X=             -0.8449    Y=             -0.1425    Z=              0.0000  Tot=              0.8569
 Quadrupole moment (field-independent basis, Debye-Ang):
   XX=             -8.2711   YY=             14.5452   ZZ=            -14.9859
   XY=             -1.6437   XZ=              0.0000   YZ=              0.0000

 \MP4DQ=-33.8895828\MP4SDQ=-33.8916164\CCSD=-33.8926751\CCSD(T)=-33.895
 Normal termination of Gaussian 16 at Sun Dec 10 06:39:21 2023.
