 Gaussian 16, Revision A.03,
 Gaussian 16:  ES64L-G16RevA.03 25-Dec-2016

 ------------------
 #p CCSD(T)/CEP-31G
 ------------------

 -----------
 H2O_H2O_518
 -----------
 Symbolic Z-matrix:
 Charge =  0 Multiplicity = 1

                         Standard orientation:
 ---------------------------------------------------------------------
 Center     Atomic      Atomic             Coordinates (Angstroms)
 Number     Number       Type             X           Y           Z
 ---------------------------------------------------------------------
      1          8           0        0.052915   -1.031460    0.000000
      2          1           0       -0.749081   -1.599181    0.000000
      3          1           0        0.850047   -1.605992    0.000000
      4          8           0        0.052915    1.101524    0.000000
      5          1           0       -0.164679    2.059729    0.000000
      6          1           0       -0.782932    0.584934    0.000000
 ---------------------------------------------------------------------

 SCF Done:  E(RHF) =  -33.6196357071     A.U. after   11 cycles
 E2 =    -0.2316317031D+00 EUMP2 =    -0.33851267410153D+02
 CCSD(T)
 CCSD(T)= -0.33868359779D+02

 The electronic state is 1-A'.
 Alpha  occ. eigenvalues --   -1.35820  -1.30758  -0.71627  -0.68451  -0.54241
 Alpha  occ. eigenvalues --   -0.50377  -0.48487  -0.45074
 Alpha virt. eigenvalues --    0.19644   0.27244   0.30505   0.34413   0.78292
 Alpha virt. eigenvalues --    0.84696   0.89740   0.95831   0.98759   1.14293
 Alpha virt. eigenvalues --    1.18937   1.22530   1.25908   1.31889   2.62987

 Mulliken charges:
               1
     1  O   -0.772195
     2  H    0.355928
     3  H    0.400881
     4  O   -0.678457
     5  H    0.325646
     6  H    0.368196
 Sum of Mulliken charges =   0.00000

 Dipole moment (field-independent basis, Debye):
    X=             -2.1393    Y=             -1.7889    Z=              0.0000  Tot=              2.7886
 Quadrupole moment (field-independent basis, Debye-Ang):
   XX=             -9.8618   YY=             -4.2485   ZZ=            -14.9960
   XY=             -2.2606   XZ=              0.0000   YZ=              0.0000

 \MP4DQ=-33.8622014\MP4SDQ=-33.8644807\CCSD=-33.8654419\CCSD(T)=-33.868
 Normal termination of Gaussian 16 at Sun Dec 10 06:34:26 2023.
