 Gaussian 16, Revision A.03,
 Gaussian 16:  ES64L-G16RevA.03 25-Dec-2016

 ------------------
 #p CCSD(T)/CEP-31G
 ------------------

 ------------
 H2O_H2O_1282
 ------------
 Symbolic Z-matrix:
 Charge =  0 Multiplicity = 1

                         Standard orientation:
 ---------------------------------------------------------------------
 Center     Atomic      Atomic             Coordinates (Angstroms)
 Number     Number       Type             X           Y           Z
 ---------------------------------------------------------------------
      1          8           0        0.025269   -1.475332    0.000000
      2          1           0       -0.775139   -2.045290    0.000000
      3          1           0        0.824001   -2.047637    0.000000
      4          8           0        0.025269    1.487038    0.000000
      5          1           0        0.491048    2.352229    0.000000
      6          1           0       -0.944216    1.647052    0.000000
 ---------------------------------------------------------------------

 SCF Done:  E(RHF) =  -33.6414285593     A.U. after   11 cycles
 E2 =    -0.2292957006D+00 EUMP2 =    -0.33870724259887D+02
 CCSD(T)
 CCSD(T)= -0.33888075851D+02

 The electronic state is 1-A'.
 Alpha  occ. eigenvalues --   -1.33488  -1.33042  -0.69100  -0.68645  -0.53865
 Alpha  occ. eigenvalues --   -0.51022  -0.48047  -0.47365
 Alpha virt. eigenvalues --    0.21023   0.23191   0.32054   0.32422   0.78269
 Alpha virt. eigenvalues --    0.79725   0.82637   0.86136   0.95805   1.11354
 Alpha virt. eigenvalues --    1.19035   1.20484   1.23809   1.24034   2.59342

 Mulliken charges:
               1
     1  O   -0.712697
     2  H    0.351048
     3  H    0.361228
     4  O   -0.707879
     5  H    0.349790
     6  H    0.358510
 Sum of Mulliken charges =   0.00000

 Dipole moment (field-independent basis, Debye):
    X=             -1.1240    Y=             -0.2917    Z=              0.0000  Tot=              1.1613
 Quadrupole moment (field-independent basis, Debye-Ang):
   XX=             -8.5656   YY=              2.6657   ZZ=            -14.9854
   XY=             -1.1261   XZ=              0.0000   YZ=              0.0000

 \MP4DQ=-33.8822629\MP4SDQ=-33.8843589\CCSD=-33.8854346\CCSD(T)=-33.888
 Normal termination of Gaussian 16 at Sun Dec 10 06:48:43 2023.
