 Gaussian 16, Revision A.03,
 Gaussian 16:  ES64L-G16RevA.03 25-Dec-2016

 ------------------
 #p CCSD(T)/CEP-31G
 ------------------

 -----------
 H2O_H2O_585
 -----------
 Symbolic Z-matrix:
 Charge =  0 Multiplicity = 1

                         Standard orientation:
 ---------------------------------------------------------------------
 Center     Atomic      Atomic             Coordinates (Angstroms)
 Number     Number       Type             X           Y           Z
 ---------------------------------------------------------------------
      1          8           0        0.034800   -1.096685    0.000000
      2          1           0       -0.766310   -1.665656    0.000000
      3          1           0        0.832826   -1.669974    0.000000
      4          8           0        0.034800    1.120101    0.000000
      5          1           0        0.323997    2.059181    0.000000
      6          1           0       -0.947313    1.089114    0.000000
 ---------------------------------------------------------------------

 SCF Done:  E(RHF) =  -33.6210619763     A.U. after   11 cycles
 E2 =    -0.2310164160D+00 EUMP2 =    -0.33852078392333D+02
 CCSD(T)
 CCSD(T)= -0.33869444691D+02

 The electronic state is 1-A'.
 Alpha  occ. eigenvalues --   -1.33454  -1.31376  -0.68962  -0.67357  -0.56120
 Alpha  occ. eigenvalues --   -0.48263  -0.46044  -0.45329
 Alpha virt. eigenvalues --    0.20854   0.25586   0.32228   0.33107   0.79458
 Alpha virt. eigenvalues --    0.81843   0.89741   0.95692   1.00273   1.13839
 Alpha virt. eigenvalues --    1.19414   1.22944   1.24599   1.29855   2.52743

 Mulliken charges:
               1
     1  O   -0.726247
     2  H    0.344247
     3  H    0.371677
     4  O   -0.684848
     5  H    0.346190
     6  H    0.348980
 Sum of Mulliken charges =   0.00000

 Dipole moment (field-independent basis, Debye):
    X=             -1.4257    Y=             -0.5615    Z=              0.0000  Tot=              1.5322
 Quadrupole moment (field-independent basis, Debye-Ang):
   XX=             -8.9873   YY=             -2.3570   ZZ=            -15.0014
   XY=             -1.1202   XZ=              0.0000   YZ=              0.0000

 P4DQ=-33.8633855\MP4SDQ=-33.8655799\CCSD=-33.8666323\CCSD(T)=-33.86944
 Normal termination of Gaussian 16 at Sun Dec 10 06:35:41 2023.
