 Gaussian 16, Revision A.03,
 Gaussian 16:  ES64L-G16RevA.03 25-Dec-2016

 ------------------
 #p CCSD(T)/CEP-31G
 ------------------

 ------------
 H2O_H2O_3105
 ------------
 Symbolic Z-matrix:
 Charge =  0 Multiplicity = 1

                         Standard orientation:
 ---------------------------------------------------------------------
 Center     Atomic      Atomic             Coordinates (Angstroms)
 Number     Number       Type             X           Y           Z
 ---------------------------------------------------------------------
      1          8           0        0.018360   -2.449012    0.000000
      2          1           0       -0.781579   -3.019628    0.000000
      3          1           0        0.817563   -3.020659    0.000000
      4          8           0        0.018360    2.455050    0.000000
      5          1           0        0.592428    3.252516    0.000000
      6          1           0       -0.922179    2.739465    0.000000
 ---------------------------------------------------------------------

 SCF Done:  E(RHF) =  -33.6493985599     A.U. after   11 cycles
 E2 =    -0.2285201044D+00 EUMP2 =    -0.33877918664322D+02
 CCSD(T)
 CCSD(T)= -0.33894988009D+02

 The electronic state is 1-A'.
 Alpha  occ. eigenvalues --   -1.34667  -1.34591  -0.70292  -0.70212  -0.54275
 Alpha  occ. eigenvalues --   -0.54178  -0.49203  -0.49127
 Alpha virt. eigenvalues --    0.20941   0.21083   0.31201   0.31275   0.81329
 Alpha virt. eigenvalues --    0.81443   0.83835   0.85448   0.87582   0.87803
 Alpha virt. eigenvalues --    1.18134   1.18209   1.22612   1.22690   2.58209

 Mulliken charges:
               1
     1  O   -0.732765
     2  H    0.365416
     3  H    0.367350
     4  O   -0.732542
     5  H    0.364996
     6  H    0.367545
 Sum of Mulliken charges =  -0.00000

 Dipole moment (field-independent basis, Debye):
    X=             -0.8442    Y=             -0.1429    Z=              0.0000  Tot=              0.8562
 Quadrupole moment (field-independent basis, Debye-Ang):
   XX=             -8.2752   YY=             13.4273   ZZ=            -14.9856
   XY=             -1.5562   XZ=              0.0000   YZ=              0.0000

 \MP4DQ=-33.8893245\MP4SDQ=-33.891359\CCSD=-33.892418\CCSD(T)=-33.89498
 Normal termination of Gaussian 16 at Sun Dec 10 06:35:48 2023.
