 Gaussian 16, Revision A.03,
 Gaussian 16:  ES64L-G16RevA.03 25-Dec-2016

 ------------------
 #p CCSD(T)/CEP-31G
 ------------------

 ------------
 H2O_H2O_2911
 ------------
 Symbolic Z-matrix:
 Charge =  0 Multiplicity = 1

                         Standard orientation:
 ---------------------------------------------------------------------
 Center     Atomic      Atomic             Coordinates (Angstroms)
 Number     Number       Type             X           Y           Z
 ---------------------------------------------------------------------
      1          8           0        0.037677   -2.330586    0.000000
      2          1           0       -0.762683   -2.900612    0.000000
      3          1           0        0.836458   -2.902822    0.000000
      4          8           0        0.037677    2.358828    0.000000
      5          1           0        0.263575    3.315110    0.000000
      6          1           0       -0.940181    2.262385    0.000000
 ---------------------------------------------------------------------

 SCF Done:  E(RHF) =  -33.6498170742     A.U. after   11 cycles
 E2 =    -0.2285205672D+00 EUMP2 =    -0.33878337641429D+02
 CCSD(T)
 CCSD(T)= -0.33895395390D+02

 The electronic state is 1-A'.
 Alpha  occ. eigenvalues --   -1.34862  -1.34469  -0.70489  -0.70080  -0.54487
 Alpha  occ. eigenvalues --   -0.54086  -0.49404  -0.49013
 Alpha virt. eigenvalues --    0.20755   0.21242   0.31032   0.31411   0.81131
 Alpha virt. eigenvalues --    0.81548   0.83251   0.85489   0.87397   0.88332
 Alpha virt. eigenvalues --    1.17957   1.18346   1.22431   1.22824   2.58023

 Mulliken charges:
               1
     1  O   -0.734289
     2  H    0.364924
     3  H    0.369375
     4  O   -0.733276
     5  H    0.363388
     6  H    0.369879
 Sum of Mulliken charges =  -0.00000

 Dipole moment (field-independent basis, Debye):
    X=             -1.7300    Y=             -0.6701    Z=              0.0000  Tot=              1.8552
 Quadrupole moment (field-independent basis, Debye-Ang):
   XX=             -8.9692   YY=             10.4917   ZZ=            -14.9864
   XY=             -3.2775   XZ=              0.0000   YZ=              0.0000

 \MP4DQ=-33.8897345\MP4SDQ=-33.8917685\CCSD=-33.8928258\CCSD(T)=-33.895
 Normal termination of Gaussian 16 at Sun Dec 10 06:32:24 2023.
