 Gaussian 16, Revision A.03,
 Gaussian 16:  ES64L-G16RevA.03 25-Dec-2016

 ------------------
 #p CCSD(T)/CEP-31G
 ------------------

 ------------
 H2O_H2O_2744
 ------------
 Symbolic Z-matrix:
 Charge =  0 Multiplicity = 1

                         Standard orientation:
 ---------------------------------------------------------------------
 Center     Atomic      Atomic             Coordinates (Angstroms)
 Number     Number       Type             X           Y           Z
 ---------------------------------------------------------------------
      1          8           0        0.054162   -2.210879    0.000000
      2          1           0       -0.746589   -2.780355    0.000000
      3          1           0        0.852550   -2.783664    0.000000
      4          8           0        0.054162    2.288164    0.000000
      5          1           0       -0.227699    3.229472    0.000000
      6          1           0       -0.744859    1.716262    0.000000
 ---------------------------------------------------------------------

 SCF Done:  E(RHF) =  -33.6515125480     A.U. after   11 cycles
 E2 =    -0.2284702842D+00 EUMP2 =    -0.33879982832207D+02
 CCSD(T)
 CCSD(T)= -0.33896991921D+02

 The electronic state is 1-A'.
 Alpha  occ. eigenvalues --   -1.35465  -1.34278  -0.71098  -0.69870  -0.55185
 Alpha  occ. eigenvalues --   -0.53978  -0.50031  -0.48847
 Alpha virt. eigenvalues --    0.20128   0.21645   0.30506   0.31737   0.80510
 Alpha virt. eigenvalues --    0.81694   0.82384   0.85273   0.86635   0.88924
 Alpha virt. eigenvalues --    1.17425   1.18666   1.21847   1.23242   2.57451

 Mulliken charges:
               1
     1  O   -0.740195
     2  H    0.366675
     3  H    0.373615
     4  O   -0.738685
     5  H    0.362371
     6  H    0.376219
 Sum of Mulliken charges =  -0.00000

 Dipole moment (field-independent basis, Debye):
    X=             -2.4845    Y=             -1.8424    Z=              0.0000  Tot=              3.0931
 Quadrupole moment (field-independent basis, Debye-Ang):
   XX=             -9.9367   YY=              5.2646   ZZ=            -14.9892
   XY=             -5.3263   XZ=              0.0000   YZ=              0.0000

 P4DQ=-33.8913417\MP4SDQ=-33.8933734\CCSD=-33.8944254\CCSD(T)=-33.89699
 Normal termination of Gaussian 16 at Sun Dec 10 06:29:17 2023.
