 Gaussian 16, Revision A.03,
 Gaussian 16:  ES64L-G16RevA.03 25-Dec-2016

 ------------------
 #p CCSD(T)/CEP-31G
 ------------------

 ------------
 H2O_H2O_3561
 ------------
 Symbolic Z-matrix:
 Charge =  0 Multiplicity = 1

                         Standard orientation:
 ---------------------------------------------------------------------
 Center     Atomic      Atomic             Coordinates (Angstroms)
 Number     Number       Type             X           Y           Z
 ---------------------------------------------------------------------
      1          8           0        0.037674   -2.676272    0.000000
      2          1           0       -0.762584   -3.246440    0.000000
      3          1           0        0.836557   -3.248367    0.000000
      4          8           0        0.037674    2.704528    0.000000
      5          1           0        0.263403    3.660850    0.000000
      6          1           0       -0.940167    2.607912    0.000000
 ---------------------------------------------------------------------

 SCF Done:  E(RHF) =  -33.6504749483     A.U. after   11 cycles
 E2 =    -0.2284641317D+00 EUMP2 =    -0.33878939079990D+02
 CCSD(T)
 CCSD(T)= -0.33895977335D+02

 The electronic state is 1-A'.
 Alpha  occ. eigenvalues --   -1.35031  -1.34735  -0.70659  -0.70353  -0.54691
 Alpha  occ. eigenvalues --   -0.54395  -0.49582  -0.49287
 Alpha virt. eigenvalues --    0.20666   0.20971   0.30901   0.31189   0.80971
 Alpha virt. eigenvalues --    0.81261   0.84036   0.84496   0.87181   0.87552
 Alpha virt. eigenvalues --    1.17816   1.18108   1.22285   1.22579   2.57864

 Mulliken charges:
               1
     1  O   -0.736514
     2  H    0.366731
     3  H    0.369783
     4  O   -0.735978
     5  H    0.365673
     6  H    0.370304
 Sum of Mulliken charges =  -0.00000

 Dipole moment (field-independent basis, Debye):
    X=             -1.7352    Y=             -0.6649    Z=              0.0000  Tot=              1.8582
 Quadrupole moment (field-independent basis, Debye-Ang):
   XX=             -8.9630   YY=             13.7645   ZZ=            -14.9869
   XY=             -3.8643   XZ=              0.0000   YZ=              0.0000

 \MP4DQ=-33.8903227\MP4SDQ=-33.8923541\CCSD=-33.8934114\CCSD(T)=-33.895
 Normal termination of Gaussian 16 at Sun Dec 10 06:44:00 2023.
