 Gaussian 16, Revision A.03,
 Gaussian 16:  ES64L-G16RevA.03 25-Dec-2016

 ------------------
 #p CCSD(T)/CEP-31G
 ------------------

 ------------
 H2O_H2O_4576
 ------------
 Symbolic Z-matrix:
 Charge =  0 Multiplicity = 1

                         Standard orientation:
 ---------------------------------------------------------------------
 Center     Atomic      Atomic             Coordinates (Angstroms)
 Number     Number       Type             X           Y           Z
 ---------------------------------------------------------------------
      1          8           0        0.003735   -3.236618    0.000000
      2          1           0       -0.795892   -3.807671    0.000000
      3          1           0        0.803250   -3.807830    0.000000
      4          8           0        0.003735    3.236862    0.000000
      5          1           0        0.764303    3.858989    0.000000
      6          1           0       -0.831426    3.754560    0.000000
 ---------------------------------------------------------------------

 SCF Done:  E(RHF) =  -33.6506852973     A.U. after   10 cycles
 E2 =    -0.2284360010D+00 EUMP2 =    -0.33879121298345D+02
 CCSD(T)
 CCSD(T)= -0.33896153413D+02

 The electronic state is 1-A'.
 Alpha  occ. eigenvalues --   -1.35021  -1.35019  -0.70649  -0.70647  -0.54695
 Alpha  occ. eigenvalues --   -0.54693  -0.49576  -0.49574
 Alpha virt. eigenvalues --    0.20689   0.20691   0.30921   0.30923   0.80978
 Alpha virt. eigenvalues --    0.80980   0.84106   0.84115   0.87180   0.87183
 Alpha virt. eigenvalues --    1.17833   1.17835   1.22300   1.22302   2.57877

 Mulliken charges:
               1
     1  O   -0.737185
     2  H    0.368501
     3  H    0.368684
     4  O   -0.737182
     5  H    0.368463
     6  H    0.368720
 Sum of Mulliken charges =  -0.00000

 Dipole moment (field-independent basis, Debye):
    X=             -0.1725    Y=             -0.0057    Z=              0.0000  Tot=              0.1726
 Quadrupole moment (field-independent basis, Debye-Ang):
   XX=             -8.0461   YY=             22.3152   ZZ=            -14.9868
   XY=             -0.4422   XZ=              0.0000   YZ=              0.0000

 MP4DQ=-33.8905007\MP4SDQ=-33.8925313\CCSD=-33.8935888\CCSD(T)=-33.8961
 Normal termination of Gaussian 16 at Sun Dec 10 07:04:01 2023.
