 Gaussian 16, Revision A.03,
 Gaussian 16:  ES64L-G16RevA.03 25-Dec-2016

 ------------------
 #p CCSD(T)/CEP-31G
 ------------------

 ------------
 H2O_H2O_3693
 ------------
 Symbolic Z-matrix:
 Charge =  0 Multiplicity = 1

                         Standard orientation:
 ---------------------------------------------------------------------
 Center     Atomic      Atomic             Coordinates (Angstroms)
 Number     Number       Type             X           Y           Z
 ---------------------------------------------------------------------
      1          8           0        0.052824   -2.719896    0.000000
      2          1           0       -0.747688   -3.289709    0.000000
      3          1           0        0.851452   -3.292346    0.000000
      4          8           0        0.052824    2.790236    0.000000
      5          1           0       -0.167272    3.747870    0.000000
      6          1           0       -0.781673    2.271466    0.000000
 ---------------------------------------------------------------------

 SCF Done:  E(RHF) =  -33.6514495697     A.U. after   11 cycles
 E2 =    -0.2284167695D+00 EUMP2 =    -0.33879866339168D+02
 CCSD(T)
 CCSD(T)= -0.33896876289D+02

 The electronic state is 1-A'.
 Alpha  occ. eigenvalues --   -1.35432  -1.34731  -0.71063  -0.70345  -0.55148
 Alpha  occ. eigenvalues --   -0.54439  -0.49998  -0.49298
 Alpha virt. eigenvalues --    0.20317   0.21044   0.30559   0.31262   0.80555
 Alpha virt. eigenvalues --    0.81242   0.83590   0.84327   0.86709   0.87508
 Alpha virt. eigenvalues --    1.17456   1.18151   1.21916   1.22624   2.57478

 Mulliken charges:
               1
     1  O   -0.739958
     2  H    0.368040
     3  H    0.371920
     4  O   -0.739343
     5  H    0.365897
     6  H    0.373445
 Sum of Mulliken charges =  -0.00000

 Dipole moment (field-independent basis, Debye):
    X=             -2.4339    Y=             -1.6540    Z=              0.0000  Tot=              2.9427
 Quadrupole moment (field-independent basis, Debye-Ang):
   XX=             -9.8486   YY=              9.7101   ZZ=            -14.9884
   XY=             -6.2885   XZ=              0.0000   YZ=              0.0000

 8\MP4DQ=-33.8912293\MP4SDQ=-33.8932581\CCSD=-33.8943134\CCSD(T)=-33.89
 Normal termination of Gaussian 16 at Sun Dec 10 06:46:25 2023.
