 Gaussian 16, Revision A.03,
 Gaussian 16:  ES64L-G16RevA.03 25-Dec-2016

 ------------------
 #p CCSD(T)/CEP-31G
 ------------------

 -----------
 H2O_H2O_405
 -----------
 Symbolic Z-matrix:
 Charge =  0 Multiplicity = 1

                         Standard orientation:
 ---------------------------------------------------------------------
 Center     Atomic      Atomic             Coordinates (Angstroms)
 Number     Number       Type             X           Y           Z
 ---------------------------------------------------------------------
      1          8           0        0.018363   -1.013071    0.000000
      2          1           0       -0.782095   -1.582959    0.000000
      3          1           0        0.817045   -1.585446    0.000000
      4          8           0        0.018363    1.019076    0.000000
      5          1           0        0.593157    1.816019    0.000000
      6          1           0       -0.921916    1.304347    0.000000
 ---------------------------------------------------------------------

 SCF Done:  E(RHF) =  -33.5968041262     A.U. after   11 cycles
 E2 =    -0.2321986418D+00 EUMP2 =    -0.33829002767978D+02
 CCSD(T)
 CCSD(T)= -0.33846192515D+02

 The electronic state is 1-A'.
 Alpha  occ. eigenvalues --   -1.33285  -1.30547  -0.68480  -0.66573  -0.58402
 Alpha  occ. eigenvalues --   -0.48220  -0.44212  -0.41861
 Alpha virt. eigenvalues --    0.21381   0.26062   0.32670   0.33374   0.79369
 Alpha virt. eigenvalues --    0.80652   0.90197   0.96277   1.02527   1.19091
 Alpha virt. eigenvalues --    1.20187   1.23166   1.25963   1.27974   2.49058

 Mulliken charges:
               1
     1  O   -0.707412
     2  H    0.341843
     3  H    0.361431
     4  O   -0.691871
     5  H    0.351304
     6  H    0.344705
 Sum of Mulliken charges =   0.00000

 Dipole moment (field-independent basis, Debye):
    X=             -0.7176    Y=             -0.1418    Z=              0.0000  Tot=              0.7315
 Quadrupole moment (field-independent basis, Debye-Ang):
   XX=             -8.5298   YY=             -3.6025   ZZ=            -15.0204
   XY=             -0.4355   XZ=              0.0000   YZ=              0.0000

 P4DQ=-33.8399938\MP4SDQ=-33.842252\CCSD=-33.8432504\CCSD(T)=-33.846192
 Normal termination of Gaussian 16 at Sun Dec 10 06:32:21 2023.
