 Gaussian 16, Revision A.03,
 Gaussian 16:  ES64L-G16RevA.03 25-Dec-2016

 ------------------
 #p CCSD(T)/CEP-31G
 ------------------

 -----------
 H2O_H2O_270
 -----------
 Symbolic Z-matrix:
 Charge =  0 Multiplicity = 1

                         Standard orientation:
 ---------------------------------------------------------------------
 Center     Atomic      Atomic             Coordinates (Angstroms)
 Number     Number       Type             X           Y           Z
 ---------------------------------------------------------------------
      1          8           0        0.055382   -0.890876    0.000000
      2          1           0       -0.747086   -1.457931    0.000000
      3          1           0        0.852035   -1.466071    0.000000
      4          8           0        0.055382    0.974976    0.000000
      5          1           0       -0.284657    1.896865    0.000000
      6          1           0       -0.706402    0.354339    0.000000
 ---------------------------------------------------------------------

 SCF Done:  E(RHF) =  -33.5617794589     A.U. after   11 cycles
 E2 =    -0.2335902836D+00 EUMP2 =    -0.33795369742438D+02
 CCSD(T)
 CCSD(T)= -0.33811901081D+02

 The electronic state is 1-A'.
 Alpha  occ. eigenvalues --   -1.38938  -1.29275  -0.75352  -0.70543  -0.52691
 Alpha  occ. eigenvalues --   -0.51944  -0.45874  -0.43649
 Alpha virt. eigenvalues --    0.19224   0.29082   0.29307   0.35510   0.78767
 Alpha virt. eigenvalues --    0.84109   0.90030   0.94972   0.98939   1.16600
 Alpha virt. eigenvalues --    1.20049   1.24118   1.30988   1.33701   2.70053

 Mulliken charges:
               1
     1  O   -0.795965
     2  H    0.359609
     3  H    0.425894
     4  O   -0.660936
     5  H    0.302058
     6  H    0.369341
 Sum of Mulliken charges =  -0.00000

 Dipole moment (field-independent basis, Debye):
    X=             -2.0924    Y=             -2.2707    Z=              0.0000  Tot=              3.0877
 Quadrupole moment (field-independent basis, Debye-Ang):
   XX=            -10.0033   YY=             -6.6241   ZZ=            -14.9647
   XY=             -2.1734   XZ=              0.0000   YZ=              0.0000

 \MP4DQ=-33.8054103\MP4SDQ=-33.8078953\CCSD=-33.8086667\CCSD(T)=-33.811
 Normal termination of Gaussian 16 at Sun Dec 10 06:29:48 2023.
