 Gaussian 16, Revision A.03,
 Gaussian 16:  ES64L-G16RevA.03 25-Dec-2016

 ------------------
 #p CCSD(T)/CEP-31G
 ------------------

 ------------
 H2O_H2O_1651
 ------------
 Symbolic Z-matrix:
 Charge =  0 Multiplicity = 1

                         Standard orientation:
 ---------------------------------------------------------------------
 Center     Atomic      Atomic             Coordinates (Angstroms)
 Number     Number       Type             X           Y           Z
 ---------------------------------------------------------------------
      1          8           0        0.003735   -1.680997    0.000000
      2          1           0       -0.795945   -2.251976    0.000000
      3          1           0        0.803197   -2.252282    0.000000
      4          8           0        0.003735    1.681240    0.000000
      5          1           0        0.764360    2.303298    0.000000
      6          1           0       -0.831379    2.199014    0.000000
 ---------------------------------------------------------------------

 SCF Done:  E(RHF) =  -33.6438529520     A.U. after   11 cycles
 E2 =    -0.2289613676D+00 EUMP2 =    -0.33872814319667D+02
 CCSD(T)
 CCSD(T)= -0.33890071412D+02

 The electronic state is 1-A'.
 Alpha  occ. eigenvalues --   -1.33640  -1.33571  -0.69255  -0.69188  -0.53612
 Alpha  occ. eigenvalues --   -0.52121  -0.48189  -0.47944
 Alpha virt. eigenvalues --    0.21159   0.22403   0.31812   0.32178   0.76692
 Alpha virt. eigenvalues --    0.80685   0.84287   0.84719   0.93461   1.01945
 Alpha virt. eigenvalues --    1.18957   1.19067   1.23313   1.23872   2.58670

 Mulliken charges:
               1
     1  O   -0.715375
     2  H    0.357145
     3  H    0.358231
     4  O   -0.715324
     5  H    0.357078
     6  H    0.358245
 Sum of Mulliken charges =   0.00000

 Dipole moment (field-independent basis, Debye):
    X=             -0.1691    Y=             -0.0060    Z=              0.0000  Tot=              0.1692
 Quadrupole moment (field-independent basis, Debye-Ang):
   XX=             -8.1503   YY=              5.4396   ZZ=            -14.9832
   XY=             -0.1855   XZ=              0.0000   YZ=              0.0000

 MP4DQ=-33.8843209\MP4SDQ=-33.886394\CCSD=-33.8874592\CCSD(T)=-33.89007
 Normal termination of Gaussian 16 at Sun Dec 10 06:55:35 2023.
