 Gaussian 16, Revision A.03,
 Gaussian 16:  ES64L-G16RevA.03 25-Dec-2016

 ------------------
 #p CCSD(T)/CEP-31G
 ------------------

 -----------
 H2O_H2O_107
 -----------
 Symbolic Z-matrix:
 Charge =  0 Multiplicity = 1

                         Standard orientation:
 ---------------------------------------------------------------------
 Center     Atomic      Atomic             Coordinates (Angstroms)
 Number     Number       Type             X           Y           Z
 ---------------------------------------------------------------------
      1          8           0        0.025275   -0.850452    0.000000
      2          1           0       -0.775743   -1.419552    0.000000
      3          1           0        0.823393   -1.423613    0.000000
      4          8           0        0.025275    0.862104    0.000000
      5          1           0        0.491981    1.726796    0.000000
      6          1           0       -0.944038    1.023157    0.000000
 ---------------------------------------------------------------------

 SCF Done:  E(RHF) =  -33.5160196052     A.U. after   11 cycles
 E2 =    -0.2367899589D+00 EUMP2 =    -0.33752809564162D+02
 CCSD(T)
 CCSD(T)= -0.33769450817D+02

 The electronic state is 1-A'.
 Alpha  occ. eigenvalues --   -1.36365  -1.29149  -0.70850  -0.67317  -0.62189
 Alpha  occ. eigenvalues --   -0.51056  -0.42772  -0.34535
 Alpha virt. eigenvalues --    0.20905   0.28140   0.31748   0.33608   0.81905
 Alpha virt. eigenvalues --    0.82257   0.89340   0.90754   1.01621   1.19618
 Alpha virt. eigenvalues --    1.23014   1.23157   1.27300   1.36778   2.51780

 Mulliken charges:
               1
     1  O   -0.713197
     2  H    0.333665
     3  H    0.372463
     4  O   -0.677840
     5  H    0.342939
     6  H    0.341970
 Sum of Mulliken charges =   0.00000

 Dipole moment (field-independent basis, Debye):
    X=             -0.9219    Y=             -0.3158    Z=              0.0000  Tot=              0.9745
 Quadrupole moment (field-independent basis, Debye-Ang):
   XX=             -8.8095   YY=             -6.9383   ZZ=            -15.0084
   XY=             -0.5921   XZ=              0.0000   YZ=              0.0000

 MP4DQ=-33.7627138\MP4SDQ=-33.7653858\CCSD=-33.7660605\CCSD(T)=-33.7694
 Normal termination of Gaussian 16 at Sun Dec 10 06:26:44 2023.
