 Gaussian 16, Revision A.03,
 Gaussian 16:  ES64L-G16RevA.03 25-Dec-2016

 ------------------
 #p CCSD(T)/CEP-31G
 ------------------

 -----------
 H2O_H2O_872
 -----------
 Symbolic Z-matrix:
 Charge =  0 Multiplicity = 1

                         Standard orientation:
 ---------------------------------------------------------------------
 Center     Atomic      Atomic             Coordinates (Angstroms)
 Number     Number       Type             X           Y           Z
 ---------------------------------------------------------------------
      1          8           0        0.056818   -1.201957    0.000000
      2          1           0       -0.744972   -1.769970    0.000000
      3          1           0        0.854158   -1.776199    0.000000
      4          8           0        0.056818    1.300832    0.000000
      5          1           0       -0.401682    2.169904    0.000000
      6          1           0       -0.616586    0.585267    0.000000
 ---------------------------------------------------------------------

 SCF Done:  E(RHF) =  -33.6468479201     A.U. after   11 cycles
 E2 =    -0.2301234892D+00 EUMP2 =    -0.33876971409314D+02
 CCSD(T)
 CCSD(T)= -0.33893867811D+02

 The electronic state is 1-A'.
 Alpha  occ. eigenvalues --   -1.36630  -1.31301  -0.72310  -0.68173  -0.55250
 Alpha  occ. eigenvalues --   -0.51217  -0.51161  -0.45850
 Alpha virt. eigenvalues --    0.19016   0.26623   0.29638   0.36028   0.76884
 Alpha virt. eigenvalues --    0.81979   0.88268   0.88863   0.96912   1.12751
 Alpha virt. eigenvalues --    1.19049   1.19827   1.24218   1.30885   2.66176

 Mulliken charges:
               1
     1  O   -0.770440
     2  H    0.365549
     3  H    0.405351
     4  O   -0.723622
     5  H    0.332614
     6  H    0.390549
 Sum of Mulliken charges =  -0.00000

 Dipole moment (field-independent basis, Debye):
    X=             -2.4278    Y=             -2.5970    Z=              0.0000  Tot=              3.5551
 Quadrupole moment (field-independent basis, Debye-Ang):
   XX=            -10.0897   YY=             -3.6297   ZZ=            -15.0047
   XY=             -3.4041   XZ=              0.0000   YZ=              0.0000

 P4DQ=-33.8879112\MP4SDQ=-33.8900958\CCSD=-33.8910777\CCSD(T)=-33.89386
 Normal termination of Gaussian 16 at Sun Dec 10 06:41:04 2023.
