 Gaussian 16, Revision A.03,
 Gaussian 16:  ES64L-G16RevA.03 25-Dec-2016

 ------------------
 #p CCSD(T)/CEP-31G
 ------------------

 ------------
 H2O_H2O_4580
 ------------
 Symbolic Z-matrix:
 Charge =  0 Multiplicity = 1

                         Standard orientation:
 ---------------------------------------------------------------------
 Center     Atomic      Atomic             Coordinates (Angstroms)
 Number     Number       Type             X           Y           Z
 ---------------------------------------------------------------------
      1          8           0        0.018360   -3.233468    0.000000
      2          1           0       -0.781490   -3.804209    0.000000
      3          1           0        0.817652   -3.804990    0.000000
      4          8           0        0.018360    3.239512    0.000000
      5          1           0        0.592303    4.037068    0.000000
      6          1           0       -0.922223    3.523779    0.000000
 ---------------------------------------------------------------------

 SCF Done:  E(RHF) =  -33.6507591481     A.U. after   11 cycles
 E2 =    -0.2284332557D+00 EUMP2 =    -0.33879192403812D+02
 CCSD(T)
 CCSD(T)= -0.33896222401D+02

 The electronic state is 1-A'.
 Alpha  occ. eigenvalues --   -1.35059  -1.35016  -0.70687  -0.70643  -0.54737
 Alpha  occ. eigenvalues --   -0.54694  -0.49615  -0.49572
 Alpha virt. eigenvalues --    0.20655   0.20699   0.30887   0.30930   0.80938
 Alpha virt. eigenvalues --    0.80981   0.84062   0.84105   0.87137   0.87187
 Alpha virt. eigenvalues --    1.17798   1.17841   1.22264   1.22307   2.57840

 Mulliken charges:
               1
     1  O   -0.737450
     2  H    0.368275
     3  H    0.369174
     4  O   -0.737388
     5  H    0.368048
     6  H    0.369339
 Sum of Mulliken charges =  -0.00000

 Dipole moment (field-independent basis, Debye):
    X=             -0.8477    Y=             -0.1413    Z=              0.0000  Tot=              0.8594
 Quadrupole moment (field-independent basis, Debye-Ang):
   XX=             -8.2557   YY=             21.6261   ZZ=            -14.9869
   XY=             -2.2076   XZ=              0.0000   YZ=              0.0000

 \MP4DQ=-33.8905702\MP4SDQ=-33.8926007\CCSD=-33.893658\CCSD(T)=-33.8962
 Normal termination of Gaussian 16 at Sun Dec 10 07:04:05 2023.
