 Gaussian 16, Revision A.03,
 Gaussian 16:  ES64L-G16RevA.03 25-Dec-2016

 ------------------
 #p CCSD(T)/CEP-31G
 ------------------

 ------------
 H2O_H2O_3673
 ------------
 Symbolic Z-matrix:
 Charge =  0 Multiplicity = 1

                         Standard orientation:
 ---------------------------------------------------------------------
 Center     Atomic      Atomic             Coordinates (Angstroms)
 Number     Number       Type             X           Y           Z
 ---------------------------------------------------------------------
      1          8           0        0.057086   -2.686935    0.000000
      2          1           0       -0.743506   -3.256635    0.000000
      3          1           0        0.855634   -3.259498    0.000000
      4          8           0        0.057086    2.793487    0.000000
      5          1           0       -0.459032    3.629626    0.000000
      6          1           0       -0.566478    2.034097    0.000000
 ---------------------------------------------------------------------

 SCF Done:  E(RHF) =  -33.6522064764     A.U. after   11 cycles
 E2 =    -0.2283761887D+00 EUMP2 =    -0.33880582665050D+02
 CCSD(T)
 CCSD(T)= -0.33897570485D+02

 The electronic state is 1-A'.
 Alpha  occ. eigenvalues --   -1.35745  -1.34680  -0.71380  -0.70293  -0.55505
 Alpha  occ. eigenvalues --   -0.54419  -0.50322  -0.49257
 Alpha virt. eigenvalues --    0.20039   0.21159   0.30291   0.31389   0.80231
 Alpha virt. eigenvalues --    0.81274   0.83188   0.84315   0.86341   0.87500
 Alpha virt. eigenvalues --    1.17175   1.18235   1.21628   1.22726   2.57173

 Mulliken charges:
               1
     1  O   -0.742626
     2  H    0.369304
     3  H    0.373327
     4  O   -0.742326
     5  H    0.366149
     6  H    0.376171
 Sum of Mulliken charges =   0.00000

 Dipole moment (field-independent basis, Debye):
    X=             -2.6295    Y=             -2.5073    Z=              0.0000  Tot=              3.6333
 Quadrupole moment (field-independent basis, Debye-Ang):
   XX=            -10.1540   YY=              5.1475   ZZ=            -14.9897
   XY=             -7.4234   XZ=              0.0000   YZ=              0.0000

 \MP4DQ=-33.8919292\MP4SDQ=-33.8939561\CCSD=-33.8950098\CCSD(T)=-33.897
 Normal termination of Gaussian 16 at Sun Dec 10 06:46:03 2023.
