 Gaussian 16, Revision A.03,
 Gaussian 16:  ES64L-G16RevA.03 25-Dec-2016

 ------------------
 #p CCSD(T)/CEP-31G
 ------------------

 ------------
 H2O_H2O_1352
 ------------
 Symbolic Z-matrix:
 Charge =  0 Multiplicity = 1

                         Standard orientation:
 ---------------------------------------------------------------------
 Center     Atomic      Atomic             Coordinates (Angstroms)
 Number     Number       Type             X           Y           Z
 ---------------------------------------------------------------------
      1          8           0        0.007455   -1.521051    0.000000
      2          1           0       -0.792357   -2.091846    0.000000
      3          1           0        0.806785   -2.092520    0.000000
      4          8           0        0.007455    1.522022    0.000000
      5          1           0        0.725921    2.192330    0.000000
      6          1           0       -0.859629    1.984268    0.000000
 ---------------------------------------------------------------------

 SCF Done:  E(RHF) =  -33.6409672749     A.U. after   11 cycles
 E2 =    -0.2291918257D+00 EUMP2 =    -0.33870159100631D+02
 CCSD(T)
 CCSD(T)= -0.33887509417D+02

 The electronic state is 1-A'.
 Alpha  occ. eigenvalues --   -1.33319  -1.33150  -0.68922  -0.68774  -0.53686
 Alpha  occ. eigenvalues --   -0.51047  -0.47900  -0.47426
 Alpha virt. eigenvalues --    0.21263   0.22913   0.32062   0.32445   0.78071
 Alpha virt. eigenvalues --    0.80059   0.82670   0.85816   0.97089   1.07205
 Alpha virt. eigenvalues --    1.19194   1.19606   1.23750   1.24203   2.59782

 Mulliken charges:
               1
     1  O   -0.709158
     2  H    0.353148
     3  H    0.355983
     4  O   -0.708787
     5  H    0.353203
     6  H    0.355610
 Sum of Mulliken charges =   0.00000

 Dipole moment (field-independent basis, Debye):
    X=             -0.3335    Y=             -0.0242    Z=              0.0000  Tot=              0.3344
 Quadrupole moment (field-independent basis, Debye-Ang):
   XX=             -8.2100   YY=              3.5438   ZZ=            -14.9843
   XY=             -0.3221   XZ=              0.0000   YZ=              0.0000

 DQ=-33.8817094\MP4SDQ=-33.8837959\CCSD=-33.8848734\CCSD(T)=-33.8875094
 Normal termination of Gaussian 16 at Sun Dec 10 06:50:01 2023.
