 Gaussian 16, Revision A.03,
 Gaussian 16:  ES64L-G16RevA.03 25-Dec-2016

 ------------------
 #p CCSD(T)/CEP-31G
 ------------------

 ------------
 H2O_H2O_3331
 ------------
 Symbolic Z-matrix:
 Charge =  0 Multiplicity = 1

                         Standard orientation:
 ---------------------------------------------------------------------
 Center     Atomic      Atomic             Coordinates (Angstroms)
 Number     Number       Type             X           Y           Z
 ---------------------------------------------------------------------
      1          8           0        0.021859   -2.567250    0.000000
      2          1           0       -0.778129   -3.137797    0.000000
      3          1           0        0.821012   -3.138967    0.000000
      4          8           0        0.021859    2.575913    0.000000
      5          1           0        0.542614    3.409172    0.000000
      6          1           0       -0.935248    2.798288    0.000000
 ---------------------------------------------------------------------

 SCF Done:  E(RHF) =  -33.6497809853     A.U. after   11 cycles
 E2 =    -0.2284968226D+00 EUMP2 =    -0.33878277807904D+02
 CCSD(T)
 CCSD(T)= -0.33895336050D+02

 The electronic state is 1-A'.
 Alpha  occ. eigenvalues --   -1.34776  -1.34676  -0.70401  -0.70298  -0.54398
 Alpha  occ. eigenvalues --   -0.54295  -0.49317  -0.49218
 Alpha virt. eigenvalues --    0.20875   0.20996   0.31115   0.31210   0.81232
 Alpha virt. eigenvalues --    0.81337   0.84091   0.84924   0.87476   0.87638
 Alpha virt. eigenvalues --    1.18041   1.18139   1.22517   1.22615   2.58106

 Mulliken charges:
               1
     1  O   -0.734079
     2  H    0.366030
     3  H    0.368050
     4  O   -0.733829
     5  H    0.365544
     6  H    0.368284
 Sum of Mulliken charges =  -0.00000

 Dipole moment (field-independent basis, Debye):
    X=             -1.0060    Y=             -0.2043    Z=              0.0000  Tot=              1.0266
 Quadrupole moment (field-independent basis, Debye-Ang):
   XX=             -8.3608   YY=             14.4506   ZZ=            -14.9860
   XY=             -1.9881   XZ=              0.0000   YZ=              0.0000

 MP4DQ=-33.8896759\MP4SDQ=-33.8917092\CCSD=-33.8927677\CCSD(T)=-33.8953
 Normal termination of Gaussian 16 at Sun Dec 10 06:39:49 2023.
