 Gaussian 16, Revision A.03,
 Gaussian 16:  ES64L-G16RevA.03 25-Dec-2016

 ------------------
 #p CCSD(T)/CEP-31G
 ------------------

 ------------
 H2O_H2O_4368
 ------------
 Symbolic Z-matrix:
 Charge =  0 Multiplicity = 1

                         Standard orientation:
 ---------------------------------------------------------------------
 Center     Atomic      Atomic             Coordinates (Angstroms)
 Number     Number       Type             X           Y           Z
 ---------------------------------------------------------------------
      1          8           0        0.052817   -3.078875    0.000000
      2          1           0       -0.747586   -3.648840    0.000000
      3          1           0        0.851554   -3.651173    0.000000
      4          8           0        0.052817    3.149235    0.000000
      5          1           0       -0.167460    4.106828    0.000000
      6          1           0       -0.781581    2.630307    0.000000
 ---------------------------------------------------------------------

 SCF Done:  E(RHF) =  -33.6515511767     A.U. after   11 cycles
 E2 =    -0.2283999006D+00 EUMP2 =    -0.33879951077328D+02
 CCSD(T)
 CCSD(T)= -0.33896958070D+02

 The electronic state is 1-A'.
 Alpha  occ. eigenvalues --   -1.35466  -1.34925  -0.71098  -0.70545  -0.55188
 Alpha  occ. eigenvalues --   -0.54641  -0.50034  -0.49493
 Alpha virt. eigenvalues --    0.20292   0.20847   0.30530   0.31075   0.80518
 Alpha virt. eigenvalues --    0.81052   0.83564   0.84108   0.86668   0.87267
 Alpha virt. eigenvalues --    1.17425   1.17963   1.21885   1.22431   2.57448

 Mulliken charges:
               1
     1  O   -0.740292
     2  H    0.368770
     3  H    0.371521
     4  O   -0.739950
     5  H    0.367274
     6  H    0.372675
 Sum of Mulliken charges =  -0.00000

 Dipole moment (field-independent basis, Debye):
    X=             -2.4373    Y=             -1.6467    Z=              0.0000  Tot=              2.9415
 Quadrupole moment (field-independent basis, Debye-Ang):
   XX=             -9.8498   YY=             12.3758   ZZ=            -14.9883
   XY=             -7.1543   XZ=              0.0000   YZ=              0.0000

 8\MP4DQ=-33.8913121\MP4SDQ=-33.8933404\CCSD=-33.8943961\CCSD(T)=-33.89
 Normal termination of Gaussian 16 at Sun Dec 10 06:58:39 2023.
