 Gaussian 16, Revision A.03,
 Gaussian 16:  ES64L-G16RevA.03 25-Dec-2016

 ------------------
 #p CCSD(T)/CEP-31G
 ------------------

 -----------
 H2O_H2O_248
 -----------
 Symbolic Z-matrix:
 Charge =  0 Multiplicity = 1

                         Standard orientation:
 ---------------------------------------------------------------------
 Center     Atomic      Atomic             Coordinates (Angstroms)
 Number     Number       Type             X           Y           Z
 ---------------------------------------------------------------------
      1          8           0        0.057275   -0.865607    0.000000
      2          1           0       -0.745334   -1.432461    0.000000
      3          1           0        0.853785   -1.441001    0.000000
      4          8           0        0.057275    0.971753    0.000000
      5          1           0       -0.455872    1.809718    0.000000
      6          1           0       -0.568981    0.214580    0.000000
 ---------------------------------------------------------------------

 SCF Done:  E(RHF) =  -33.5354841629     A.U. after   11 cycles
 E2 =    -0.2333353437D+00 EUMP2 =    -0.33768819506563D+02
 CCSD(T)
 CCSD(T)= -0.33784432524D+02

 The electronic state is 1-A'.
 Alpha  occ. eigenvalues --   -1.42178  -1.28148  -0.78892  -0.72640  -0.54998
 Alpha  occ. eigenvalues --   -0.48948  -0.46364  -0.42512
 Alpha virt. eigenvalues --    0.18515   0.27386   0.30271   0.38365   0.77648
 Alpha virt. eigenvalues --    0.84341   0.90614   0.93366   0.98271   1.16262
 Alpha virt. eigenvalues --    1.17794   1.23610   1.32913   1.35853   2.85524

 Mulliken charges:
               1
     1  O   -0.792633
     2  H    0.370442
     3  H    0.455995
     4  O   -0.691544
     5  H    0.287993
     6  H    0.369746
 Sum of Mulliken charges =  -0.00000

 Dipole moment (field-independent basis, Debye):
    X=             -2.1321    Y=             -3.1582    Z=              0.0000  Tot=              3.8105
 Quadrupole moment (field-independent basis, Debye-Ang):
   XX=            -10.0847   YY=             -7.6577   ZZ=            -14.9351
   XY=             -2.5366   XZ=              0.0000   YZ=              0.0000

 \MP4DQ=-33.7778344\MP4SDQ=-33.7803889\CCSD=-33.7810348\CCSD(T)=-33.784
 Normal termination of Gaussian 16 at Sun Dec 10 06:29:23 2023.
