 Gaussian 16, Revision A.03,
 Gaussian 16:  ES64L-G16RevA.03 25-Dec-2016

 ------------------
 #p CCSD(T)/CEP-31G
 ------------------

 ------------
 H2O_H2O_2140
 ------------
 Symbolic Z-matrix:
 Charge =  0 Multiplicity = 1

                         Standard orientation:
 ---------------------------------------------------------------------
 Center     Atomic      Atomic             Coordinates (Angstroms)
 Number     Number       Type             X           Y           Z
 ---------------------------------------------------------------------
      1          8           0        0.047542   -1.906288    0.000000
      2          1           0       -0.753236   -2.475727    0.000000
      3          1           0        0.845902   -2.479111    0.000000
      4          8           0        0.047542    1.956853    0.000000
      5          1           0        0.018959    2.939038    0.000000
      6          1           0       -0.872289    1.611284    0.000000
 ---------------------------------------------------------------------

 SCF Done:  E(RHF) =  -33.6497338231     A.U. after   11 cycles
 E2 =    -0.2286679521D+00 EUMP2 =    -0.33878401775285D+02
 CCSD(T)
 CCSD(T)= -0.33895470067D+02

 The electronic state is 1-A'.
 Alpha  occ. eigenvalues --   -1.34971  -1.33901  -0.70602  -0.69480  -0.54604
 Alpha  occ. eigenvalues --   -0.53483  -0.49513  -0.48449
 Alpha virt. eigenvalues --    0.20261   0.22153   0.30874   0.31991   0.78310
 Alpha virt. eigenvalues --    0.80696   0.82428   0.85890   0.87506   0.95687
 Alpha virt. eigenvalues --    1.17837   1.19148   1.22239   1.23614   2.57552

 Mulliken charges:
               1
     1  O   -0.734067
     2  H    0.362470
     3  H    0.371879
     4  O   -0.730892
     5  H    0.357846
     6  H    0.372764
 Sum of Mulliken charges =   0.00000

 Dipole moment (field-independent basis, Debye):
    X=             -2.1660    Y=             -1.2258    Z=              0.0000  Tot=              2.4888
 Quadrupole moment (field-independent basis, Debye-Ang):
   XX=             -9.5095   YY=              5.0017   ZZ=            -14.9875
   XY=             -3.5956   XZ=              0.0000   YZ=              0.0000

 5\MP4DQ=-33.8897924\MP4SDQ=-33.891839\CCSD=-33.892889\CCSD(T)=-33.8954
 Normal termination of Gaussian 16 at Sun Dec 10 07:05:55 2023.
