 Gaussian 16, Revision A.03,
 Gaussian 16:  ES64L-G16RevA.03 25-Dec-2016

 ------------------
 #p CCSD(T)/CEP-31G
 ------------------

 -----------
 H2O_H2O_318
 -----------
 Symbolic Z-matrix:
 Charge =  0 Multiplicity = 1

                         Standard orientation:
 ---------------------------------------------------------------------
 Center     Atomic      Atomic             Coordinates (Angstroms)
 Number     Number       Type             X           Y           Z
 ---------------------------------------------------------------------
      1          8           0        0.052932   -0.925119    0.000000
      2          1           0       -0.749332   -1.492462    0.000000
      3          1           0        0.849792   -1.500027    0.000000
      4          8           0        0.052932    0.995133    0.000000
      5          1           0       -0.164211    1.953441    0.000000
      6          1           0       -0.783160    0.478938    0.000000
 ---------------------------------------------------------------------

 SCF Done:  E(RHF) =  -33.5828344903     A.U. after   11 cycles
 E2 =    -0.2331346891D+00 EUMP2 =    -0.33815969179367D+02
 CCSD(T)
 CCSD(T)= -0.33832902412D+02

 The electronic state is 1-A'.
 Alpha  occ. eigenvalues --   -1.37095  -1.29905  -0.73191  -0.69339  -0.53884
 Alpha  occ. eigenvalues --   -0.51353  -0.45672  -0.44174
 Alpha virt. eigenvalues --    0.19604   0.28323   0.30204   0.34465   0.79140
 Alpha virt. eigenvalues --    0.84509   0.89922   0.95731   0.99203   1.16312
 Alpha virt. eigenvalues --    1.20005   1.24838   1.28448   1.33053   2.62968

 Mulliken charges:
               1
     1  O   -0.785508
     2  H    0.354810
     3  H    0.409685
     4  O   -0.657532
     5  H    0.314666
     6  H    0.363878
 Sum of Mulliken charges =  -0.00000

 Dipole moment (field-independent basis, Debye):
    X=             -2.0357    Y=             -1.8053    Z=              0.0000  Tot=              2.7209
 Quadrupole moment (field-independent basis, Debye-Ang):
   XX=             -9.8709   YY=             -5.7437   ZZ=            -14.9804
   XY=             -1.9753   XZ=              0.0000   YZ=              0.0000

 MP4DQ=-33.8265237\MP4SDQ=-33.8289377\CCSD=-33.8297965\CCSD(T)=-33.8329
 Normal termination of Gaussian 16 at Sun Dec 10 06:30:43 2023.
