 Gaussian 16, Revision A.03,
 Gaussian 16:  ES64L-G16RevA.03 25-Dec-2016

 ------------------
 #p CCSD(T)/CEP-31G
 ------------------

 ------------
 H2O_H2O_1889
 ------------
 Symbolic Z-matrix:
 Charge =  0 Multiplicity = 1

                         Standard orientation:
 ---------------------------------------------------------------------
 Center     Atomic      Atomic             Coordinates (Angstroms)
 Number     Number       Type             X           Y           Z
 ---------------------------------------------------------------------
      1          8           0        0.045359   -1.776626    0.000000
      2          1           0       -0.755448   -2.346023    0.000000
      3          1           0        0.843690   -2.349491    0.000000
      4          8           0        0.045359    1.821119    0.000000
      5          1           0        0.081128    2.803070    0.000000
      6          1           0       -0.895118    1.536499    0.000000
 ---------------------------------------------------------------------

 SCF Done:  E(RHF) =  -33.6487534119     A.U. after   11 cycles
 E2 =    -0.2288020785D+00 EUMP2 =    -0.33877555490472D+02
 CCSD(T)
 CCSD(T)= -0.33894665122D+02

 The electronic state is 1-A'.
 Alpha  occ. eigenvalues --   -1.34770  -1.33681  -0.70400  -0.69254  -0.54396
 Alpha  occ. eigenvalues --   -0.53155  -0.49302  -0.48216
 Alpha virt. eigenvalues --    0.20268   0.22482   0.31027   0.32139   0.76338
 Alpha virt. eigenvalues --    0.80478   0.83101   0.85679   0.88351   1.00684
 Alpha virt. eigenvalues --    1.17990   1.19547   1.22427   1.23849   2.57474

 Mulliken charges:
               1
     1  O   -0.730926
     2  H    0.360221
     3  H    0.371094
     4  O   -0.726724
     5  H    0.355137
     6  H    0.371199
 Sum of Mulliken charges =  -0.00000

 Dipole moment (field-independent basis, Debye):
    X=             -2.0570    Y=             -1.0901    Z=              0.0000  Tot=              2.3280
 Quadrupole moment (field-independent basis, Debye-Ang):
   XX=             -9.3873   YY=              4.2421   ZZ=            -14.9870
   XY=             -3.0797   XZ=              0.0000   YZ=              0.0000

 MP4DQ=-33.8889636\MP4SDQ=-33.8910236\CCSD=-33.8920727\CCSD(T)=-33.8946
 Normal termination of Gaussian 16 at Sun Dec 10 06:59:58 2023.
