 Gaussian 16, Revision A.03,
 Gaussian 16:  ES64L-G16RevA.03 25-Dec-2016

 ------------------
 #p CCSD(T)/CEP-31G
 ------------------

 ------------
 H2O_H2O_1737
 ------------
 Symbolic Z-matrix:
 Charge =  0 Multiplicity = 1

                         Standard orientation:
 ---------------------------------------------------------------------
 Center     Atomic      Atomic             Coordinates (Angstroms)
 Number     Number       Type             X           Y           Z
 ---------------------------------------------------------------------
      1          8           0        0.040419   -1.702934    0.000000
      2          1           0       -0.760305   -2.272448    0.000000
      3          1           0        0.838834   -2.275681    0.000000
      4          8           0        0.040419    1.736226    0.000000
      5          1           0        0.203909    2.705132    0.000000
      6          1           0       -0.929140    1.576655    0.000000
 ---------------------------------------------------------------------

 SCF Done:  E(RHF) =  -33.6472818722     A.U. after   11 cycles
 E2 =    -0.2289123865D+00 EUMP2 =    -0.33876194258676D+02
 CCSD(T)
 CCSD(T)= -0.33893357989D+02

 The electronic state is 1-A'.
 Alpha  occ. eigenvalues --   -1.34448  -1.33563  -0.70076  -0.69140  -0.54118
 Alpha  occ. eigenvalues --   -0.52828  -0.48967  -0.48072
 Alpha virt. eigenvalues --    0.20462   0.22603   0.31303   0.32159   0.75662
 Alpha virt. eigenvalues --    0.80377   0.83696   0.85248   0.89647   1.04037
 Alpha virt. eigenvalues --    1.18254   1.19673   1.22766   1.23807   2.57907

 Mulliken charges:
               1
     1  O   -0.726437
     2  H    0.357898
     3  H    0.368833
     4  O   -0.721885
     5  H    0.353518
     6  H    0.368074
 Sum of Mulliken charges =   0.00000

 Dipole moment (field-independent basis, Debye):
    X=             -1.8268    Y=             -0.8213    Z=              0.0000  Tot=              2.0029
 Quadrupole moment (field-independent basis, Debye-Ang):
   XX=             -9.1314   YY=              4.1695   ZZ=            -14.9859
   XY=             -2.4666   XZ=              0.0000   YZ=              0.0000

 MP4DQ=-33.8876329\MP4SDQ=-33.8897034\CCSD=-33.8907556\CCSD(T)=-33.8933
 Normal termination of Gaussian 16 at Sun Dec 10 06:57:10 2023.
