 Gaussian 16, Revision A.03,
 Gaussian 16:  ES64L-G16RevA.03 25-Dec-2016

 ------------------
 #p CCSD(T)/CEP-31G
 ------------------

 -----------
 H2O_H2O_395
 -----------
 Symbolic Z-matrix:
 Charge =  0 Multiplicity = 1

                         Standard orientation:
 ---------------------------------------------------------------------
 Center     Atomic      Atomic             Coordinates (Angstroms)
 Number     Number       Type             X           Y           Z
 ---------------------------------------------------------------------
      1          8           0        0.055368   -0.957336    0.000000
      2          1           0       -0.746908   -1.524662    0.000000
      3          1           0        0.852216   -1.532261    0.000000
      4          8           0        0.055368    1.041473    0.000000
      5          1           0       -0.284983    1.963247    0.000000
      6          1           0       -0.706206    0.420578    0.000000
 ---------------------------------------------------------------------

 SCF Done:  E(RHF) =  -33.5974400164     A.U. after   11 cycles
 E2 =    -0.2324418657D+00 EUMP2 =    -0.33829881882104D+02
 CCSD(T)
 CCSD(T)= -0.33846587883D+02

 The electronic state is 1-A'.
 Alpha  occ. eigenvalues --   -1.37554  -1.29909  -0.73689  -0.69694  -0.52541
 Alpha  occ. eigenvalues --   -0.51773  -0.48079  -0.44279
 Alpha virt. eigenvalues --    0.19267   0.28375   0.29583   0.35519   0.78228
 Alpha virt. eigenvalues --    0.84542   0.90022   0.95202   0.99502   1.15135
 Alpha virt. eigenvalues --    1.19389   1.23205   1.28928   1.32236   2.68863

 Mulliken charges:
               1
     1  O   -0.790880
     2  H    0.361006
     3  H    0.418587
     4  O   -0.673709
     5  H    0.312720
     6  H    0.372275
 Sum of Mulliken charges =   0.00000

 Dipole moment (field-independent basis, Debye):
    X=             -2.1685    Y=             -2.2356    Z=              0.0000  Tot=              3.1145
 Quadrupole moment (field-independent basis, Debye-Ang):
   XX=            -10.0021   YY=             -5.6459   ZZ=            -14.9865
   XY=             -2.3783   XZ=              0.0000   YZ=              0.0000

 DQ=-33.8402817\MP4SDQ=-33.8426519\CCSD=-33.8435139\CCSD(T)=-33.8465879
 Normal termination of Gaussian 16 at Sun Dec 10 06:32:09 2023.
