 Gaussian 16, Revision A.03,
 Gaussian 16:  ES64L-G16RevA.03 25-Dec-2016

 ------------------
 #p CCSD(T)/CEP-31G
 ------------------

 -----------
 H2O_H2O_835
 -----------
 Symbolic Z-matrix:
 Charge =  0 Multiplicity = 1

                         Standard orientation:
 ---------------------------------------------------------------------
 Center     Atomic      Atomic             Coordinates (Angstroms)
 Number     Number       Type             X           Y           Z
 ---------------------------------------------------------------------
      1          8           0        0.034797   -1.229633    0.000000
      2          1           0       -0.766149   -1.798836    0.000000
      3          1           0        0.832988   -1.802691    0.000000
      4          8           0        0.034797    1.253070    0.000000
      5          1           0        0.323722    2.192233    0.000000
      6          1           0       -0.947308    1.221799    0.000000
 ---------------------------------------------------------------------

 SCF Done:  E(RHF) =  -33.6342494789     A.U. after   11 cycles
 E2 =    -0.2301223591D+00 EUMP2 =    -0.33864371837983D+02
 CCSD(T)
 CCSD(T)= -0.33881785309D+02

 The electronic state is 1-A'.
 Alpha  occ. eigenvalues --   -1.33407  -1.32113  -0.68991  -0.67813  -0.54867
 Alpha  occ. eigenvalues --   -0.48669  -0.48086  -0.46264
 Alpha virt. eigenvalues --    0.20826   0.24635   0.32154   0.32866   0.78995
 Alpha virt. eigenvalues --    0.81694   0.88231   0.88679   0.98858   1.14414
 Alpha virt. eigenvalues --    1.19192   1.22569   1.23984   1.28081   2.55947

 Mulliken charges:
               1
     1  O   -0.719412
     2  H    0.346509
     3  H    0.367749
     4  O   -0.694732
     5  H    0.345549
     6  H    0.354337
 Sum of Mulliken charges =   0.00000

 Dipole moment (field-independent basis, Debye):
    X=             -1.4846    Y=             -0.5728    Z=              0.0000  Tot=              1.5913
 Quadrupole moment (field-independent basis, Debye-Ang):
   XX=             -8.9521   YY=             -0.5822   ZZ=            -14.9934
   XY=             -1.3144   XZ=              0.0000   YZ=              0.0000

 P4DQ=-33.8758488\MP4SDQ=-33.8779885\CCSD=-33.8790687\CCSD(T)=-33.88178
 Normal termination of Gaussian 16 at Sun Dec 10 06:40:22 2023.
