 Gaussian 16, Revision A.03,
 Gaussian 16:  ES64L-G16RevA.03 25-Dec-2016

 ------------------
 #p CCSD(T)/CEP-31G
 ------------------

 -----------
 H2O_H2O_631
 -----------
 Symbolic Z-matrix:
 Charge =  0 Multiplicity = 1

                         Standard orientation:
 ---------------------------------------------------------------------
 Center     Atomic      Atomic             Coordinates (Angstroms)
 Number     Number       Type             X           Y           Z
 ---------------------------------------------------------------------
      1          8           0        0.021863   -1.131313    0.000000
      2          1           0       -0.778653   -1.701119    0.000000
      3          1           0        0.820487   -1.703769    0.000000
      4          8           0        0.021863    1.139935    0.000000
      5          1           0        0.543389    1.972712    0.000000
      6          1           0       -0.935038    1.363195    0.000000
 ---------------------------------------------------------------------

 SCF Done:  E(RHF) =  -33.6212128927     A.U. after   11 cycles
 E2 =    -0.2307655252D+00 EUMP2 =    -0.33851978417865D+02
 CCSD(T)
 CCSD(T)= -0.33869351573D+02

 The electronic state is 1-A'.
 Alpha  occ. eigenvalues --   -1.32921  -1.31462  -0.68367  -0.67257  -0.56049
 Alpha  occ. eigenvalues --   -0.47743  -0.45696  -0.45331
 Alpha virt. eigenvalues --    0.21309   0.25064   0.32657   0.33088   0.79560
 Alpha virt. eigenvalues --    0.79690   0.89725   0.95641   1.01377   1.13530
 Alpha virt. eigenvalues --    1.19820   1.22998   1.24494   1.27078   2.52255

 Mulliken charges:
               1
     1  O   -0.708318
     2  H    0.343456
     3  H    0.360975
     4  O   -0.693075
     5  H    0.349371
     6  H    0.347591
 Sum of Mulliken charges =  -0.00000

 Dipole moment (field-independent basis, Debye):
    X=             -0.9000    Y=             -0.2041    Z=              0.0000  Tot=              0.9229
 Quadrupole moment (field-independent basis, Debye-Ang):
   XX=             -8.5622   YY=             -1.6994   ZZ=            -15.0048
   XY=             -0.6329   XZ=              0.0000   YZ=              0.0000

 P4DQ=-33.8633295\MP4SDQ=-33.8654868\CCSD=-33.8665571\CCSD(T)=-33.86935
 Normal termination of Gaussian 16 at Sun Dec 10 06:36:32 2023.
