 Gaussian 16, Revision A.03,
 Gaussian 16:  ES64L-G16RevA.03 25-Dec-2016

 ------------------
 #p CCSD(T)/CEP-31G
 ------------------

 ------------
 H2O_H2O_3353
 ------------
 Symbolic Z-matrix:
 Charge =  0 Multiplicity = 1

                         Standard orientation:
 ---------------------------------------------------------------------
 Center     Atomic      Atomic             Coordinates (Angstroms)
 Number     Number       Type             X           Y           Z
 ---------------------------------------------------------------------
      1          8           0        0.011143   -2.584063    0.000000
      2          1           0       -0.788640   -3.154899    0.000000
      3          1           0        0.810502   -3.155492    0.000000
      4          8           0        0.011143    2.586250    0.000000
      5          1           0        0.684193    3.302146    0.000000
      6          1           0       -0.884337    2.990751    0.000000
 ---------------------------------------------------------------------

 SCF Done:  E(RHF) =  -33.6496490240     A.U. after   11 cycles
 E2 =    -0.2284997101D+00 EUMP2 =    -0.33878148734070D+02
 CCSD(T)
 CCSD(T)= -0.33895210696D+02

 The electronic state is 1-A'.
 Alpha  occ. eigenvalues --   -1.34717  -1.34693  -0.70342  -0.70316  -0.54337
 Alpha  occ. eigenvalues --   -0.54298  -0.49257  -0.49232
 Alpha virt. eigenvalues --    0.20918   0.20981   0.31164   0.31190   0.81286
 Alpha virt. eigenvalues --    0.81330   0.84146   0.84960   0.87527   0.87614
 Alpha virt. eigenvalues --    1.18094   1.18119   1.22569   1.22596   2.58159

 Mulliken charges:
               1
     1  O   -0.733605
     2  H    0.366294
     3  H    0.367311
     4  O   -0.733539
     5  H    0.366099
     6  H    0.367440
 Sum of Mulliken charges =  -0.00000

 Dipole moment (field-independent basis, Debye):
    X=             -0.5129    Y=             -0.0516    Z=              0.0000  Tot=              0.5155
 Quadrupole moment (field-independent basis, Debye-Ang):
   XX=             -8.1337   YY=             15.1666   ZZ=            -14.9858
   XY=             -0.9973   XZ=              0.0000   YZ=              0.0000

 DQ=-33.8895495\MP4SDQ=-33.8915831\CCSD=-33.892642\CCSD(T)=-33.8952107\
 Normal termination of Gaussian 16 at Sun Dec 10 06:40:12 2023.
