 Gaussian 16, Revision A.03,
 Gaussian 16:  ES64L-G16RevA.03 25-Dec-2016

 ------------------
 #p CCSD(T)/CEP-31G
 ------------------

 ------------
 H2O_H2O_2367
 ------------
 Symbolic Z-matrix:
 Charge =  0 Multiplicity = 1

                         Standard orientation:
 ---------------------------------------------------------------------
 Center     Atomic      Atomic             Coordinates (Angstroms)
 Number     Number       Type             X           Y           Z
 ---------------------------------------------------------------------
      1          8           0        0.051292   -2.018935    0.000000
      2          1           0       -0.749506   -2.588346    0.000000
      3          1           0        0.849633   -2.591785    0.000000
      4          8           0        0.051292    2.082420    0.000000
      5          1           0       -0.105214    3.052477    0.000000
      6          1           0       -0.815579    1.619774    0.000000
 ---------------------------------------------------------------------

 SCF Done:  E(RHF) =  -33.6507413180     A.U. after   11 cycles
 E2 =    -0.2285678940D+00 EUMP2 =    -0.33879309212042D+02
 CCSD(T)
 CCSD(T)= -0.33896343557D+02

 The electronic state is 1-A'.
 Alpha  occ. eigenvalues --   -1.35237  -1.34049  -0.70869  -0.69631  -0.54913
 Alpha  occ. eigenvalues --   -0.53704  -0.49792  -0.48610
 Alpha virt. eigenvalues --    0.20153   0.21965   0.30665   0.31918   0.80228
 Alpha virt. eigenvalues --    0.80641   0.82040   0.85743   0.86949   0.92185
 Alpha virt. eigenvalues --    1.17616   1.18966   1.22010   1.23536   2.57505

 Mulliken charges:
               1
     1  O   -0.737502
     2  H    0.364571
     3  H    0.373144
     4  O   -0.735030
     5  H    0.359819
     6  H    0.374998
 Sum of Mulliken charges =   0.00000

 Dipole moment (field-independent basis, Debye):
    X=             -2.3443    Y=             -1.5276    Z=              0.0000  Tot=              2.7981
 Quadrupole moment (field-independent basis, Debye-Ang):
   XX=             -9.7420   YY=              4.9908   ZZ=            -14.9885
   XY=             -4.3603   XZ=              0.0000   YZ=              0.0000

 \MP4DQ=-33.8906812\MP4SDQ=-33.8927197\CCSD=-33.8937701\CCSD(T)=-33.896
 Normal termination of Gaussian 16 at Sun Dec 10 07:10:00 2023.
