 Gaussian 16, Revision A.03,
 Gaussian 16:  ES64L-G16RevA.03 25-Dec-2016

 ------------------
 #p CCSD(T)/CEP-31G
 ------------------

 ------------
 H2O_H2O_1133
 ------------
 Symbolic Z-matrix:
 Charge =  0 Multiplicity = 1

                         Standard orientation:
 ---------------------------------------------------------------------
 Center     Atomic      Atomic             Coordinates (Angstroms)
 Number     Number       Type             X           Y           Z
 ---------------------------------------------------------------------
      1          8           0        0.028570   -1.393657    0.000000
      2          1           0       -0.772002   -1.963385    0.000000
      3          1           0        0.827138   -1.966191    0.000000
      4          8           0        0.028570    1.408860    0.000000
      5          1           0        0.437023    2.302545    0.000000
      6          1           0       -0.949277    1.505405    0.000000
 ---------------------------------------------------------------------

 SCF Done:  E(RHF) =  -33.6398147111     A.U. after   11 cycles
 E2 =    -0.2294992023D+00 EUMP2 =    -0.33869313913334D+02
 CCSD(T)
 CCSD(T)= -0.33886700785D+02

 The electronic state is 1-A'.
 Alpha  occ. eigenvalues --   -1.33417  -1.32773  -0.69023  -0.68381  -0.54080
 Alpha  occ. eigenvalues --   -0.50378  -0.48002  -0.47050
 Alpha virt. eigenvalues --    0.20980   0.23595   0.32117   0.32569   0.79378
 Alpha virt. eigenvalues --    0.80515   0.82099   0.87003   0.96997   1.13486
 Alpha virt. eigenvalues --    1.19086   1.21682   1.23885   1.24509   2.58525

 Mulliken charges:
               1
     1  O   -0.712767
     2  H    0.349199
     3  H    0.362408
     4  O   -0.704204
     5  H    0.347983
     6  H    0.357381
 Sum of Mulliken charges =   0.00000

 Dipole moment (field-independent basis, Debye):
    X=             -1.2573    Y=             -0.3772    Z=              0.0000  Tot=              1.3127
 Quadrupole moment (field-independent basis, Debye-Ang):
   XX=             -8.6874   YY=              1.6075   ZZ=            -14.9873
   XY=             -1.2053   XZ=              0.0000   YZ=              0.0000

 P4DQ=-33.8808549\MP4SDQ=-33.8829611\CCSD=-33.8840422\CCSD(T)=-33.88670
 Normal termination of Gaussian 16 at Sun Dec 10 06:45:56 2023.
