 Gaussian 16, Revision A.03,
 Gaussian 16:  ES64L-G16RevA.03 25-Dec-2016

 ------------------
 #p CCSD(T)/CEP-31G
 ------------------

 ------------
 H2O_H2O_3783
 ------------
 Symbolic Z-matrix:
 Charge =  0 Multiplicity = 1

                         Standard orientation:
 ---------------------------------------------------------------------
 Center     Atomic      Atomic             Coordinates (Angstroms)
 Number     Number       Type             X           Y           Z
 ---------------------------------------------------------------------
      1          8           0        0.028563   -2.802997    0.000000
      2          1           0       -0.771507   -3.373429    0.000000
      3          1           0        0.827634   -3.374828    0.000000
      4          8           0        0.028563    2.818250    0.000000
      5          1           0        0.436229    3.712294    0.000000
      6          1           0       -0.949368    2.913935    0.000000
 ---------------------------------------------------------------------

 SCF Done:  E(RHF) =  -33.6503815927     A.U. after   11 cycles
 E2 =    -0.2284613914D+00 EUMP2 =    -0.33878842984138D+02
 CCSD(T)
 CCSD(T)= -0.33895883835D+02

 The electronic state is 1-A'.
 Alpha  occ. eigenvalues --   -1.34964  -1.34818  -0.70591  -0.70441  -0.54620
 Alpha  occ. eigenvalues --   -0.54474  -0.49514  -0.49369
 Alpha virt. eigenvalues --    0.20729   0.20878   0.30961   0.31103   0.81039
 Alpha virt. eigenvalues --    0.81183   0.84158   0.84390   0.87256   0.87437
 Alpha virt. eigenvalues --    1.17878   1.18022   1.22348   1.22493   2.57929

 Mulliken charges:
               1
     1  O   -0.736156
     2  H    0.367047
     3  H    0.369109
     4  O   -0.735883
     5  H    0.366458
     6  H    0.369425
 Sum of Mulliken charges =  -0.00000

 Dipole moment (field-independent basis, Debye):
    X=             -1.3165    Y=             -0.3582    Z=              0.0000  Tot=              1.3644
 Quadrupole moment (field-independent basis, Debye-Ang):
   XX=             -8.5722   YY=             16.2568   ZZ=            -14.9866
   XY=             -2.9661   XZ=              0.0000   YZ=              0.0000

 MP4DQ=-33.8902286\MP4SDQ=-33.8922602\CCSD=-33.8933179\CCSD(T)=-33.8958
 Normal termination of Gaussian 16 at Sun Dec 10 06:48:05 2023.
