 Gaussian 16, Revision A.03,
 Gaussian 16:  ES64L-G16RevA.03 25-Dec-2016

 ------------------
 #p CCSD(T)/CEP-31G
 ------------------

 ------------
 H2O_H2O_4333
 ------------
 Symbolic Z-matrix:
 Charge =  0 Multiplicity = 1

                         Standard orientation:
 ---------------------------------------------------------------------
 Center     Atomic      Atomic             Coordinates (Angstroms)
 Number     Number       Type             X           Y           Z
 ---------------------------------------------------------------------
      1          8           0        0.028563   -3.095504    0.000000
      2          1           0       -0.771461   -3.666003    0.000000
      3          1           0        0.827681   -3.667270    0.000000
      4          8           0        0.028563    3.110763    0.000000
      5          1           0        0.436155    4.004841    0.000000
      6          1           0       -0.949377    3.206366    0.000000
 ---------------------------------------------------------------------

 SCF Done:  E(RHF) =  -33.6507495868     A.U. after   11 cycles
 E2 =    -0.2284370097D+00 EUMP2 =    -0.33879186596464D+02
 CCSD(T)
 CCSD(T)= -0.33896216847D+02

 The electronic state is 1-A'.
 Alpha  occ. eigenvalues --   -1.35078  -1.34958  -0.70706  -0.70583  -0.54754
 Alpha  occ. eigenvalues --   -0.54635  -0.49633  -0.49514
 Alpha virt. eigenvalues --    0.20636   0.20757   0.30869   0.30986   0.80920
 Alpha virt. eigenvalues --    0.81038   0.84045   0.84163   0.87118   0.87259
 Alpha virt. eigenvalues --    1.17780   1.17898   1.22246   1.22365   2.57822

 Mulliken charges:
               1
     1  O   -0.737429
     2  H    0.367931
     3  H    0.369498
     4  O   -0.737256
     5  H    0.367470
     6  H    0.369786
 Sum of Mulliken charges =  -0.00000

 Dipole moment (field-independent basis, Debye):
    X=             -1.3181    Y=             -0.3571    Z=              0.0000  Tot=              1.3656
 Quadrupole moment (field-independent basis, Debye-Ang):
   XX=             -8.5678   YY=             19.1825   ZZ=            -14.9870
   XY=             -3.3457   XZ=              0.0000   YZ=              0.0000

 MP4DQ=-33.8905646\MP4SDQ=-33.8925951\CCSD=-33.8936523\CCSD(T)=-33.8962
 Normal termination of Gaussian 16 at Sun Dec 10 06:58:03 2023.
