 Gaussian 16, Revision A.03,
 Gaussian 16:  ES64L-G16RevA.03 25-Dec-2016

 ------------------
 #p CCSD(T)/CEP-31G
 ------------------

 -----------
 H2O_H2O_902
 -----------
 Symbolic Z-matrix:
 Charge =  0 Multiplicity = 1

                         Standard orientation:
 ---------------------------------------------------------------------
 Center     Atomic      Atomic             Coordinates (Angstroms)
 Number     Number       Type             X           Y           Z
 ---------------------------------------------------------------------
      1          8           0        0.007455   -1.281725    0.000000
      2          1           0       -0.792402   -1.852457    0.000000
      3          1           0        0.806740   -1.853257    0.000000
      4          8           0        0.007455    1.282695    0.000000
      5          1           0        0.725973    1.952946    0.000000
      6          1           0       -0.859593    1.745009    0.000000
 ---------------------------------------------------------------------

 SCF Done:  E(RHF) =  -33.6322900250     A.U. after   11 cycles
 E2 =    -0.2298768623D+00 EUMP2 =    -0.33862166887339D+02
 CCSD(T)
 CCSD(T)= -0.33879599051D+02

 The electronic state is 1-A'.
 Alpha  occ. eigenvalues --   -1.32813  -1.32206  -0.68348  -0.67880  -0.54550
 Alpha  occ. eigenvalues --   -0.48214  -0.47507  -0.46240
 Alpha virt. eigenvalues --    0.21481   0.23984   0.32590   0.32885   0.79480
 Alpha virt. eigenvalues --    0.79495   0.87341   0.88509   1.04849   1.08701
 Alpha virt. eigenvalues --    1.19632   1.21219   1.24316   1.25095   2.56323

 Mulliken charges:
               1
     1  O   -0.700846
     2  H    0.348053
     3  H    0.352578
     4  O   -0.699832
     5  H    0.349560
     6  H    0.350487
 Sum of Mulliken charges =   0.00000

 Dipole moment (field-independent basis, Debye):
    X=             -0.3204    Y=             -0.0235    Z=              0.0000  Tot=              0.3213
 Quadrupole moment (field-independent basis, Debye-Ang):
   XX=             -8.2714   YY=              0.5106   ZZ=            -14.9935
   XY=             -0.2452   XZ=              0.0000   YZ=              0.0000

 Q=-33.8736949\MP4SDQ=-33.8757981\CCSD=-33.8768929\CCSD(T)=-33.8795991\
 Normal termination of Gaussian 16 at Sun Dec 10 06:41:37 2023.
