 Gaussian 16, Revision A.03,
 Gaussian 16:  ES64L-G16RevA.03 25-Dec-2016

 ------------------
 #p CCSD(T)/CEP-31G
 ------------------

 ------------
 H2O_H2O_1956
 ------------
 Symbolic Z-matrix:
 Charge =  0 Multiplicity = 1

                         Standard orientation:
 ---------------------------------------------------------------------
 Center     Atomic      Atomic             Coordinates (Angstroms)
 Number     Number       Type             X           Y           Z
 ---------------------------------------------------------------------
      1          8           0        0.021861   -1.835981    0.000000
      2          1           0       -0.778294   -2.406296    0.000000
      3          1           0        0.820847   -2.407931    0.000000
      4          8           0        0.021861    1.844632    0.000000
      5          1           0        0.542858    2.677739    0.000000
      6          1           0       -0.935182    2.067285    0.000000
 ---------------------------------------------------------------------

 SCF Done:  E(RHF) =  -33.6464085509     A.U. after   11 cycles
 E2 =    -0.2288010267D+00 EUMP2 =    -0.33875209577555D+02
 CCSD(T)
 CCSD(T)= -0.33892377607D+02

 The electronic state is 1-A'.
 Alpha  occ. eigenvalues --   -1.34077  -1.33876  -0.69698  -0.69485  -0.53787
 Alpha  occ. eigenvalues --   -0.52983  -0.48589  -0.48356
 Alpha virt. eigenvalues --    0.20970   0.22035   0.31623   0.31847   0.77522
 Alpha virt. eigenvalues --    0.81058   0.83085   0.86012   0.90163   0.97531
 Alpha virt. eigenvalues --    1.18607   1.18835   1.23104   1.23397   2.58193

 Mulliken charges:
               1
     1  O   -0.722932
     2  H    0.359007
     3  H    0.363990
     4  O   -0.721836
     5  H    0.357871
     6  H    0.363899
 Sum of Mulliken charges =  -0.00000

 Dipole moment (field-independent basis, Debye):
    X=             -0.9945    Y=             -0.2118    Z=              0.0000  Tot=              1.0168
 Quadrupole moment (field-independent basis, Debye-Ang):
   XX=             -8.4086   YY=              6.7790   ZZ=            -14.9841
   XY=             -1.2853   XZ=              0.0000   YZ=              0.0000

 \MP4DQ=-33.8866675\MP4SDQ=-33.8887255\CCSD=-33.8897835\CCSD(T)=-33.892
 Normal termination of Gaussian 16 at Sun Dec 10 07:01:43 2023.
