 Gaussian 16, Revision A.03,
 Gaussian 16:  ES64L-G16RevA.03 25-Dec-2016

 ------------------
 #p CCSD(T)/CEP-31G
 ------------------

 ------------
 H2O_H2O_4395
 ------------
 Symbolic Z-matrix:
 Charge =  0 Multiplicity = 1

                         Standard orientation:
 ---------------------------------------------------------------------
 Center     Atomic      Atomic             Coordinates (Angstroms)
 Number     Number       Type             X           Y           Z
 ---------------------------------------------------------------------
      1          8           0        0.055231   -3.084495    0.000000
      2          1           0       -0.745206   -3.654412    0.000000
      3          1           0        0.853934   -3.656841    0.000000
      4          8           0        0.055231    3.168990    0.000000
      5          1           0       -0.288098    4.089659    0.000000
      6          1           0       -0.704331    2.545636    0.000000
 ---------------------------------------------------------------------

 SCF Done:  E(RHF) =  -33.6517509947     A.U. after   11 cycles
 E2 =    -0.2283888748D+00 EUMP2 =    -0.33880139869478D+02
 CCSD(T)
 CCSD(T)= -0.33897141032D+02

 The electronic state is 1-A'.
 Alpha  occ. eigenvalues --   -1.35563  -1.34920  -0.71195  -0.70540  -0.55295
 Alpha  occ. eigenvalues --   -0.54645  -0.50134  -0.49491
 Alpha virt. eigenvalues --    0.20207   0.20867   0.30447   0.31098   0.80418
 Alpha virt. eigenvalues --    0.81051   0.83445   0.84094   0.86557   0.87257
 Alpha virt. eigenvalues --    1.17338   1.17976   1.21796   1.22446   2.57355

 Mulliken charges:
               1
     1  O   -0.741003
     2  H    0.369105
     3  H    0.371898
     4  O   -0.740717
     5  H    0.367380
     6  H    0.373337
 Sum of Mulliken charges =   0.00000

 Dipole moment (field-independent basis, Debye):
    X=             -2.5487    Y=             -1.9774    Z=              0.0000  Tot=              3.2258
 Quadrupole moment (field-independent basis, Debye-Ang):
   XX=            -10.0202   YY=             10.5277   ZZ=            -14.9887
   XY=             -7.7662   XZ=              0.0000   YZ=              0.0000

 \MP4DQ=-33.8914966\MP4SDQ=-33.8935244\CCSD=-33.8945797\CCSD(T)=-33.897
 Normal termination of Gaussian 16 at Sun Dec 10 06:59:07 2023.
