 Gaussian 16, Revision A.03,
 Gaussian 16:  ES64L-G16RevA.03 25-Dec-2016

 ------------------
 #p CCSD(T)/CEP-31G
 ------------------

 ------------
 H2O_H2O_3636
 ------------
 Symbolic Z-matrix:
 Charge =  0 Multiplicity = 1

                         Standard orientation:
 ---------------------------------------------------------------------
 Center     Atomic      Atomic             Coordinates (Angstroms)
 Number     Number       Type             X           Y           Z
 ---------------------------------------------------------------------
      1          8           0        0.037674   -2.716159    0.000000
      2          1           0       -0.762574   -3.286342    0.000000
      3          1           0        0.836567   -3.288240    0.000000
      4          8           0        0.037674    2.744417    0.000000
      5          1           0        0.263386    3.700742    0.000000
      6          1           0       -0.940165    2.647782    0.000000
 ---------------------------------------------------------------------

 SCF Done:  E(RHF) =  -33.6505319133     A.U. after   11 cycles
 E2 =    -0.2284596615D+00 EUMP2 =    -0.33878991574863D+02
 CCSD(T)
 CCSD(T)= -0.33896028158D+02

 The electronic state is 1-A'.
 Alpha  occ. eigenvalues --   -1.35047  -1.34759  -0.70675  -0.70378  -0.54711
 Alpha  occ. eigenvalues --   -0.54423  -0.49599  -0.49313
 Alpha virt. eigenvalues --    0.20654   0.20948   0.30888   0.31168   0.80954
 Alpha virt. eigenvalues --    0.81236   0.84042   0.84439   0.87162   0.87516
 Alpha virt. eigenvalues --    1.17802   1.18086   1.22271   1.22556   2.57849

 Mulliken charges:
               1
     1  O   -0.736708
     2  H    0.366889
     3  H    0.369819
     4  O   -0.736207
     5  H    0.365872
     6  H    0.370336
 Sum of Mulliken charges =  -0.00000

 Dipole moment (field-independent basis, Debye):
    X=             -1.7356    Y=             -0.6645    Z=              0.0000  Tot=              1.8584
 Quadrupole moment (field-independent basis, Debye-Ang):
   XX=             -8.9625   YY=             14.1407   ZZ=            -14.9869
   XY=             -3.9323   XZ=              0.0000   YZ=              0.0000

 \MP4DQ=-33.890374\MP4SDQ=-33.8924053\CCSD=-33.8934625\CCSD(T)=-33.8960
 Normal termination of Gaussian 16 at Sun Dec 10 06:45:22 2023.
