 Gaussian 16, Revision A.03,
 Gaussian 16:  ES64L-G16RevA.03 25-Dec-2016

 ------------------
 #p CCSD(T)/CEP-31G
 ------------------

 -----------
 H2O_H2O_870
 -----------
 Symbolic Z-matrix:
 Charge =  0 Multiplicity = 1

                         Standard orientation:
 ---------------------------------------------------------------------
 Center     Atomic      Atomic             Coordinates (Angstroms)
 Number     Number       Type             X           Y           Z
 ---------------------------------------------------------------------
      1          8           0        0.055327   -1.209903    0.000000
      2          1           0       -0.746404   -1.777998    0.000000
      3          1           0        0.852726   -1.784064    0.000000
      4          8           0        0.055327    1.294147    0.000000
      5          1           0       -0.285907    2.215594    0.000000
      6          1           0       -0.705651    0.672522    0.000000
 ---------------------------------------------------------------------

 SCF Done:  E(RHF) =  -33.6447501144     A.U. after   11 cycles
 E2 =    -0.2301960767D+00 EUMP2 =    -0.33874946191028D+02
 CCSD(T)
 CCSD(T)= -0.33892022560D+02

 The electronic state is 1-A'.
 Alpha  occ. eigenvalues --   -1.35898  -1.31580  -0.71579  -0.67993  -0.54890
 Alpha  occ. eigenvalues --   -0.51144  -0.50485  -0.46094
 Alpha virt. eigenvalues --    0.19344   0.26206   0.30190   0.34775   0.77359
 Alpha virt. eigenvalues --    0.82619   0.88243   0.89543   0.95330   1.14343
 Alpha virt. eigenvalues --    1.19702   1.20182   1.23508   1.30329   2.68679

 Mulliken charges:
               1
     1  O   -0.759942
     2  H    0.360484
     3  H    0.396453
     4  O   -0.713826
     5  H    0.334223
     6  H    0.382608
 Sum of Mulliken charges =   0.00000

 Dipole moment (field-independent basis, Debye):
    X=             -2.3660    Y=             -2.1739    Z=              0.0000  Tot=              3.2131
 Quadrupole moment (field-independent basis, Debye-Ang):
   XX=             -9.9983   YY=             -2.8489   ZZ=            -15.0002
   XY=             -3.0767   XZ=              0.0000   YZ=              0.0000

 \MP4DQ=-33.8860717\MP4SDQ=-33.8882509\CCSD=-33.88926\CCSD(T)=-33.89202
 Normal termination of Gaussian 16 at Sun Dec 10 06:41:01 2023.
