 Gaussian 16, Revision A.03,
 Gaussian 16:  ES64L-G16RevA.03 25-Dec-2016

 ------------------
 #p CCSD(T)/CEP-31G
 ------------------

 -----------
 H2O_H2O_900
 -----------
 Symbolic Z-matrix:
 Charge =  0 Multiplicity = 1

                         Standard orientation:
 ---------------------------------------------------------------------
 Center     Atomic      Atomic             Coordinates (Angstroms)
 Number     Number       Type             X           Y           Z
 ---------------------------------------------------------------------
      1          8           0        0.000000   -0.000000    1.282252
      2          1           0        0.000000    0.799571    1.853384
      3          1           0       -0.000000   -0.799571    1.853384
      4          8           0        0.000000   -0.000000   -1.282252
      5          1           0       -0.000000   -0.799571   -1.853384
      6          1           0        0.000000    0.799571   -1.853384
 ---------------------------------------------------------------------

 SCF Done:  E(RHF) =  -33.6320975279     A.U. after   10 cycles
 E2 =    -0.2298756520D+00 EUMP2 =    -0.33861973179951D+02
 CCSD(T)
 CCSD(T)= -0.33879405313D+02

 The electronic state is 1-AG.
 Alpha  occ. eigenvalues --   -1.32795  -1.32192  -0.68328  -0.67867  -0.54545
 Alpha  occ. eigenvalues --   -0.48168  -0.47487  -0.46222
 Alpha virt. eigenvalues --    0.21511   0.23970   0.32600   0.32901   0.79409
 Alpha virt. eigenvalues --    0.79500   0.87422   0.88520   1.06479   1.06997
 Alpha virt. eigenvalues --    1.19640   1.21100   1.24343   1.25098   2.56338

 Mulliken charges:
               1
     1  O   -0.700009
     2  H    0.350005
     3  H    0.350005
     4  O   -0.700009
     5  H    0.350005
     6  H    0.350005
 Sum of Mulliken charges =  -0.00000

 Dipole moment (field-independent basis, Debye):
    X=             -0.0000    Y=              0.0000    Z=              0.0000  Tot=              0.0000
 Quadrupole moment (field-independent basis, Debye-Ang):
   XX=            -14.9936   YY=             -8.2388   ZZ=              0.5320
   XY=              0.0000   XZ=             -0.0000   YZ=             -0.0000

 3.8735015\MP4SDQ=-33.8756033\CCSD=-33.8766985\CCSD(T)=-33.8794053\RMSD
 Normal termination of Gaussian 16 at Sun Dec 10 06:41:35 2023.
