 Gaussian 16, Revision A.03,
 Gaussian 16:  ES64L-G16RevA.03 25-Dec-2016

 ------------------
 #p CCSD(T)/CEP-31G
 ------------------

 ------------
 H2O_H2O_2857
 ------------
 Symbolic Z-matrix:
 Charge =  0 Multiplicity = 1

                         Standard orientation:
 ---------------------------------------------------------------------
 Center     Atomic      Atomic             Coordinates (Angstroms)
 Number     Number       Type             X           Y           Z
 ---------------------------------------------------------------------
      1          8           0        0.025266   -2.312960    0.000000
      2          1           0       -0.774840   -2.883342    0.000000
      3          1           0        0.824301   -2.884842    0.000000
      4          8           0        0.025266    2.324693    0.000000
      5          1           0        0.490586    3.190131    0.000000
      6          1           0       -0.944304    2.484193    0.000000
 ---------------------------------------------------------------------

 SCF Done:  E(RHF) =  -33.6491718925     A.U. after   11 cycles
 E2 =    -0.2285453038D+00 EUMP2 =    -0.33877717196253D+02
 CCSD(T)
 CCSD(T)= -0.33894793375D+02

 The electronic state is 1-A'.
 Alpha  occ. eigenvalues --   -1.34637  -1.34470  -0.70261  -0.70087  -0.54235
 Alpha  occ. eigenvalues --   -0.54037  -0.49170  -0.49004
 Alpha virt. eigenvalues --    0.20930   0.21219   0.31221   0.31379   0.81337
 Alpha virt. eigenvalues --    0.81589   0.83195   0.86017   0.87646   0.88269
 Alpha virt. eigenvalues --    1.18156   1.18320   1.22637   1.22803   2.58234

 Mulliken charges:
               1
     1  O   -0.732022
     2  H    0.364467
     3  H    0.367560
     4  O   -0.731494
     5  H    0.363688
     6  H    0.367801
 Sum of Mulliken charges =   0.00000

 Dipole moment (field-independent basis, Debye):
    X=             -1.1600    Y=             -0.2787    Z=              0.0000  Tot=              1.1930
 Quadrupole moment (field-independent basis, Debye-Ang):
   XX=             -8.4728   YY=             11.5821   ZZ=            -14.9856
   XY=             -2.0368   XZ=              0.0000   YZ=              0.0000

 4DQ=-33.8891273\MP4SDQ=-33.891163\CCSD=-33.8922218\CCSD(T)=-33.8947934
 Normal termination of Gaussian 16 at Sun Dec 10 06:31:24 2023.
