 Gaussian 16, Revision A.03,
 Gaussian 16:  ES64L-G16RevA.03 25-Dec-2016

 ------------------
 #p CCSD(T)/CEP-31G
 ------------------

 ------------
 H2O_H2O_4453
 ------------
 Symbolic Z-matrix:
 Charge =  0 Multiplicity = 1

                         Standard orientation:
 ---------------------------------------------------------------------
 Center     Atomic      Atomic             Coordinates (Angstroms)
 Number     Number       Type             X           Y           Z
 ---------------------------------------------------------------------
      1          8           0        0.011143   -3.169083    0.000000
      2          1           0       -0.788601   -3.739973    0.000000
      3          1           0        0.810541   -3.740456    0.000000
      4          8           0        0.011143    3.171271    0.000000
      5          1           0        0.684144    3.887213    0.000000
      6          1           0       -0.884365    3.575711    0.000000
 ---------------------------------------------------------------------

 SCF Done:  E(RHF) =  -33.6506383581     A.U. after   11 cycles
 E2 =    -0.2284393295D+00 EUMP2 =    -0.33879077687626D+02
 CCSD(T)
 CCSD(T)= -0.33896111137D+02

 The electronic state is 1-A'.
 Alpha  occ. eigenvalues --   -1.35010  -1.34993  -0.70637  -0.70621  -0.54681
 Alpha  occ. eigenvalues --   -0.54664  -0.49564  -0.49547
 Alpha virt. eigenvalues --    0.20698   0.20715   0.30930   0.30946   0.80990
 Alpha virt. eigenvalues --    0.81006   0.84124   0.84146   0.87195   0.87214
 Alpha virt. eigenvalues --    1.17843   1.17859   1.22310   1.22326   2.57888

 Mulliken charges:
               1
     1  O   -0.737023
     2  H    0.368222
     3  H    0.368801
     4  O   -0.736997
     5  H    0.368092
     6  H    0.368905
 Sum of Mulliken charges =  -0.00000

 Dipole moment (field-independent basis, Debye):
    X=             -0.5143    Y=             -0.0512    Z=              0.0000  Tot=              0.5169
 Quadrupole moment (field-independent basis, Debye-Ang):
   XX=             -8.1187   YY=             21.3819   ZZ=            -14.9868
   XY=             -1.2922   XZ=              0.0000   YZ=              0.0000

 MP4DQ=-33.890458\MP4SDQ=-33.8924888\CCSD=-33.8935463\CCSD(T)=-33.89611
 Normal termination of Gaussian 16 at Sun Dec 10 07:00:17 2023.
