 Gaussian 16, Revision A.03,
 Gaussian 16:  ES64L-G16RevA.03 25-Dec-2016

 ------------------
 #p CCSD(T)/CEP-31G
 ------------------

 ------------
 H2O_H2O_4081
 ------------
 Symbolic Z-matrix:
 Charge =  0 Multiplicity = 1

                         Standard orientation:
 ---------------------------------------------------------------------
 Center     Atomic      Atomic             Coordinates (Angstroms)
 Number     Number       Type             X           Y           Z
 ---------------------------------------------------------------------
      1          8           0        0.021859   -2.966125    0.000000
      2          1           0       -0.778074   -3.536750    0.000000
      3          1           0        0.821068   -3.537763    0.000000
      4          8           0        0.021859    2.974792    0.000000
      5          1           0        0.542532    3.808103    0.000000
      6          1           0       -0.935270    3.197073    0.000000
 ---------------------------------------------------------------------

 SCF Done:  E(RHF) =  -33.6504906629     A.U. after   11 cycles
 E2 =    -0.2284508672D+00 EUMP2 =    -0.33878941530110D+02
 CCSD(T)
 CCSD(T)= -0.33895979209D+02

 The electronic state is 1-A'.
 Alpha  occ. eigenvalues --   -1.34978  -1.34904  -0.70606  -0.70529  -0.54640
 Alpha  occ. eigenvalues --   -0.54566  -0.49530  -0.49456
 Alpha virt. eigenvalues --    0.20721   0.20796   0.30953   0.31025   0.81024
 Alpha virt. eigenvalues --    0.81096   0.84164   0.84260   0.87236   0.87325
 Alpha virt. eigenvalues --    1.17868   1.17941   1.22337   1.22410   2.57917

 Mulliken charges:
               1
     1  O   -0.736519
     2  H    0.367580
     3  H    0.368938
     4  O   -0.736390
     5  H    0.367232
     6  H    0.369157
 Sum of Mulliken charges =   0.00000

 Dipole moment (field-independent basis, Debye):
    X=             -1.0083    Y=             -0.2031    Z=              0.0000  Tot=              1.0285
 Quadrupole moment (field-independent basis, Debye-Ang):
   XX=             -8.3511   YY=             18.5739   ZZ=            -14.9867
   XY=             -2.3822   XZ=              0.0000   YZ=              0.0000

 \MP4DQ=-33.8903249\MP4SDQ=-33.8923561\CCSD=-33.8934138\CCSD(T)=-33.895
 Normal termination of Gaussian 16 at Sun Dec 10 06:53:35 2023.
