 Gaussian 16, Revision A.03,
 Gaussian 16:  ES64L-G16RevA.03 25-Dec-2016

 ------------------
 #p CCSD(T)/CEP-31G
 ------------------

 ------------
 H2O_H2O_4545
 ------------
 Symbolic Z-matrix:
 Charge =  0 Multiplicity = 1

                         Standard orientation:
 ---------------------------------------------------------------------
 Center     Atomic      Atomic             Coordinates (Angstroms)
 Number     Number       Type             X           Y           Z
 ---------------------------------------------------------------------
      1          8           0        0.055230   -3.164269    0.000000
      2          1           0       -0.745186   -3.734216    0.000000
      3          1           0        0.853954   -3.736584    0.000000
      4          8           0        0.055230    3.248768    0.000000
      5          1           0       -0.288134    4.169423    0.000000
      6          1           0       -0.704309    2.625385    0.000000
 ---------------------------------------------------------------------

 SCF Done:  E(RHF) =  -33.6517534380     A.U. after   11 cycles
 E2 =    -0.2283870755D+00 EUMP2 =    -0.33880140513541D+02
 CCSD(T)
 CCSD(T)= -0.33897141634D+02

 The electronic state is 1-A'.
 Alpha  occ. eigenvalues --   -1.35564  -1.34955  -0.71197  -0.70577  -0.55297
 Alpha  occ. eigenvalues --   -0.54681  -0.50136  -0.49526
 Alpha virt. eigenvalues --    0.20205   0.20830   0.30445   0.31062   0.80416
 Alpha virt. eigenvalues --    0.81017   0.83444   0.84059   0.86555   0.87216
 Alpha virt. eigenvalues --    1.17336   1.17942   1.21794   1.22410   2.57354

 Mulliken charges:
               1
     1  O   -0.741009
     2  H    0.369204
     3  H    0.371805
     4  O   -0.740755
     5  H    0.367604
     6  H    0.373151
 Sum of Mulliken charges =  -0.00000

 Dipole moment (field-independent basis, Debye):
    X=             -2.5492    Y=             -1.9759    Z=              0.0000  Tot=              3.2253
 Quadrupole moment (field-independent basis, Debye-Ang):
   XX=            -10.0205   YY=             11.0657   ZZ=            -14.9887
   XY=             -7.9681   XZ=              0.0000   YZ=              0.0000

 \MP4DQ=-33.8914972\MP4SDQ=-33.893525\CCSD=-33.8945803\CCSD(T)=-33.8971
 Normal termination of Gaussian 16 at Sun Dec 10 07:03:27 2023.
