 Gaussian 16, Revision A.03,
 Gaussian 16:  ES64L-G16RevA.03 25-Dec-2016

 ------------------
 #p CCSD(T)/CEP-31G
 ------------------

 ------------
 H2O_H2O_4015
 ------------
 Symbolic Z-matrix:
 Charge =  0 Multiplicity = 1

                         Standard orientation:
 ---------------------------------------------------------------------
 Center     Atomic      Atomic             Coordinates (Angstroms)
 Number     Number       Type             X           Y           Z
 ---------------------------------------------------------------------
      1          8           0        0.047523   -2.903446    0.000000
      2          1           0       -0.752844   -3.473461    0.000000
      3          1           0        0.846296   -3.475693    0.000000
      4          8           0        0.047523    2.954079    0.000000
      5          1           0        0.018233    3.936244    0.000000
      6          1           0       -0.872058    2.607847    0.000000
 ---------------------------------------------------------------------

 SCF Done:  E(RHF) =  -33.6511618555     A.U. after   11 cycles
 E2 =    -0.2284242235D+00 EUMP2 =    -0.33879586079004D+02
 CCSD(T)
 CCSD(T)= -0.33896604383D+02

 The electronic state is 1-A'.
 Alpha  occ. eigenvalues --   -1.35295  -1.34851  -0.70926  -0.70470  -0.54995
 Alpha  occ. eigenvalues --   -0.54548  -0.49857  -0.49413
 Alpha virt. eigenvalues --    0.20441   0.20896   0.30678   0.31119   0.80696
 Alpha virt. eigenvalues --    0.81133   0.83777   0.84224   0.86868   0.87378
 Alpha virt. eigenvalues --    1.17580   1.18021   1.22043   1.22489   2.57612

 Mulliken charges:
               1
     1  O   -0.738919
     2  H    0.367961
     3  H    0.370958
     4  O   -0.738446
     5  H    0.366608
     6  H    0.371838
 Sum of Mulliken charges =   0.00000

 Dipole moment (field-independent basis, Debye):
    X=             -2.1916    Y=             -1.1874    Z=              0.0000  Tot=              2.4926
 Quadrupole moment (field-independent basis, Debye-Ang):
   XX=             -9.5040   YY=             13.4191   ZZ=            -14.9878
   XY=             -5.7317   XZ=              0.0000   YZ=              0.0000

 9\MP4DQ=-33.8909553\MP4SDQ=-33.8929848\CCSD=-33.894041\CCSD(T)=-33.896
 Normal termination of Gaussian 16 at Sun Dec 10 06:52:22 2023.
