 Gaussian 16, Revision A.03,
 Gaussian 16:  ES64L-G16RevA.03 25-Dec-2016

 ------------------
 #p CCSD(T)/CEP-31G
 ------------------

 ------------
 H2O_H2O_1307
 ------------
 Symbolic Z-matrix:
 Charge =  0 Multiplicity = 1

                         Standard orientation:
 ---------------------------------------------------------------------
 Center     Atomic      Atomic             Coordinates (Angstroms)
 Number     Number       Type             X           Y           Z
 ---------------------------------------------------------------------
      1          8           0        0.025269   -1.488627    0.000000
      2          1           0       -0.775132   -2.058595    0.000000
      3          1           0        0.824008   -2.060922    0.000000
      4          8           0        0.025269    1.500334    0.000000
      5          1           0        0.491036    2.365531    0.000000
      6          1           0       -0.944218    1.660337    0.000000
 ---------------------------------------------------------------------

 SCF Done:  E(RHF) =  -33.6417312248     A.U. after   11 cycles
 E2 =    -0.2292679523D+00 EUMP2 =    -0.33870999177131D+02
 CCSD(T)
 CCSD(T)= -0.33888342890D+02

 The electronic state is 1-A'.
 Alpha  occ. eigenvalues --   -1.33517  -1.33083  -0.69130  -0.68685  -0.53844
 Alpha  occ. eigenvalues --   -0.51134  -0.48071  -0.47416
 Alpha virt. eigenvalues --    0.21014   0.23137   0.32032   0.32398   0.77952
 Alpha virt. eigenvalues --    0.79777   0.82782   0.85989   0.95504   1.11001
 Alpha virt. eigenvalues --    1.19013   1.20357   1.23769   1.24005   2.59440

 Mulliken charges:
               1
     1  O   -0.713069
     2  H    0.351383
     3  H    0.361328
     4  O   -0.708512
     5  H    0.350042
     6  H    0.358828
 Sum of Mulliken charges =   0.00000

 Dipole moment (field-independent basis, Debye):
    X=             -1.1257    Y=             -0.2918    Z=              0.0000  Tot=              1.1629
 Quadrupole moment (field-independent basis, Debye-Ang):
   XX=             -8.5629   YY=              2.8190   ZZ=            -14.9852
   XY=             -1.1403   XZ=              0.0000   YZ=              0.0000

 \MP4DQ=-33.882535\MP4SDQ=-33.8846298\CCSD=-33.8857042\CCSD(T)=-33.8883
 Normal termination of Gaussian 16 at Sun Dec 10 06:49:11 2023.
