 Gaussian 16, Revision A.03,
 Gaussian 16:  ES64L-G16RevA.03 25-Dec-2016

 ------------------
 #p CCSD(T)/CEP-31G
 ------------------

 ------------
 H2O_H2O_1475
 ------------
 Symbolic Z-matrix:
 Charge =  0 Multiplicity = 1

                         Standard orientation:
 ---------------------------------------------------------------------
 Center     Atomic      Atomic             Coordinates (Angstroms)
 Number     Number       Type             X           Y           Z
 ---------------------------------------------------------------------
      1          8           0        0.000000   -0.000000    1.588058
      2          1           0        0.000000    0.799571    2.159190
      3          1           0       -0.000000   -0.799571    2.159190
      4          8           0        0.000000   -0.000000   -1.588058
      5          1           0       -0.000000   -0.799571   -2.159190
      6          1           0        0.000000    0.799571   -2.159190
 ---------------------------------------------------------------------

 SCF Done:  E(RHF) =  -33.6422470731     A.U. after   10 cycles
 E2 =    -0.2290817631D+00 EUMP2 =    -0.33871328836190D+02
 CCSD(T)
 CCSD(T)= -0.33888640891D+02

 The electronic state is 1-AG.
 Alpha  occ. eigenvalues --   -1.33449  -1.33335  -0.69059  -0.68955  -0.53621
 Alpha  occ. eigenvalues --   -0.51531  -0.48014  -0.47653
 Alpha virt. eigenvalues --    0.21228   0.22680   0.31943   0.32344   0.77142
 Alpha virt. eigenvalues --    0.80336   0.83554   0.85141   0.95566   1.04993
 Alpha virt. eigenvalues --    1.19099   1.19324   1.23532   1.24096   2.59748

 Mulliken charges:
               1
     1  O   -0.711522
     2  H    0.355761
     3  H    0.355761
     4  O   -0.711522
     5  H    0.355761
     6  H    0.355761
 Sum of Mulliken charges =  -0.00000

 Dipole moment (field-independent basis, Debye):
    X=             -0.0000    Y=              0.0000    Z=             -0.0000  Tot=              0.0000
 Quadrupole moment (field-independent basis, Debye-Ang):
   XX=            -14.9836   YY=             -8.1615   ZZ=              4.3709
   XY=              0.0000   XZ=              0.0000   YZ=             -0.0000

 -33.8828628\MP4SDQ=-33.884944\CCSD=-33.8860158\CCSD(T)=-33.8886409\RMS
 Normal termination of Gaussian 16 at Sun Dec 10 06:52:19 2023.
