 Gaussian 16, Revision A.03,
 Gaussian 16:  ES64L-G16RevA.03 25-Dec-2016

 ------------------
 #p CCSD(T)/CEP-31G
 ------------------

 ------------
 H2O_H2O_1896
 ------------
 Symbolic Z-matrix:
 Charge =  0 Multiplicity = 1

                         Standard orientation:
 ---------------------------------------------------------------------
 Center     Atomic      Atomic             Coordinates (Angstroms)
 Number     Number       Type             X           Y           Z
 ---------------------------------------------------------------------
      1          8           0        0.056139   -1.751021    0.000000
      2          1           0       -0.744962   -2.320005    0.000000
      3          1           0        0.854174   -2.324296    0.000000
      4          8           0        0.056139    1.842661    0.000000
      5          1           0       -0.345625    2.739374    0.000000
      6          1           0       -0.661811    1.171801    0.000000
 ---------------------------------------------------------------------

 SCF Done:  E(RHF) =  -33.6525352686     A.U. after   11 cycles
 E2 =    -0.2287137243D+00 EUMP2 =    -0.33881248992913D+02
 CCSD(T)
 CCSD(T)= -0.33898259533D+02

 The electronic state is 1-A'.
 Alpha  occ. eigenvalues --   -1.35777  -1.33460  -0.71418  -0.69015  -0.55554
 Alpha  occ. eigenvalues --   -0.53181  -0.50357  -0.48045
 Alpha virt. eigenvalues --    0.19353   0.23164   0.30175   0.32864   0.77548
 Alpha virt. eigenvalues --    0.79685   0.83000   0.85999   0.86745   0.98636
 Alpha virt. eigenvalues --    1.17101   1.20098   1.21584   1.26307   2.55307

 Mulliken charges:
               1
     1  O   -0.743418
     2  H    0.365632
     3  H    0.378883
     4  O   -0.740514
     5  H    0.355346
     6  H    0.384072
 Sum of Mulliken charges =   0.00000

 Dipole moment (field-independent basis, Debye):
    X=             -2.5488    Y=             -2.2550    Z=              0.0000  Tot=              3.4031
 Quadrupole moment (field-independent basis, Debye-Ang):
   XX=            -10.0657   YY=              0.8647   ZZ=            -14.9923
   XY=             -4.6353   XZ=              0.0000   YZ=              0.0000

 \MP4DQ=-33.892569\MP4SDQ=-33.8946293\CCSD=-33.8956677\CCSD(T)=-33.8982
 Normal termination of Gaussian 16 at Sun Dec 10 07:00:07 2023.
