 Gaussian 16, Revision A.03,
 Gaussian 16:  ES64L-G16RevA.03 25-Dec-2016

 ------------------
 #p CCSD(T)/CEP-31G
 ------------------

 -----------
 H2O_H2O_462
 -----------
 Symbolic Z-matrix:
 Charge =  0 Multiplicity = 1

                         Standard orientation:
 ---------------------------------------------------------------------
 Center     Atomic      Atomic             Coordinates (Angstroms)
 Number     Number       Type             X           Y           Z
 ---------------------------------------------------------------------
      1          8           0        0.040441   -1.024898    0.000000
      2          1           0       -0.761032   -1.593358    0.000000
      3          1           0        0.838101   -1.598696    0.000000
      4          8           0        0.040441    1.058085    0.000000
      5          1           0        0.205206    2.026773    0.000000
      6          1           0       -0.929327    0.899790    0.000000
 ---------------------------------------------------------------------

 SCF Done:  E(RHF) =  -33.6105624048     A.U. after   11 cycles
 E2 =    -0.2317727770D+00 EUMP2 =    -0.33842335181749D+02
 CCSD(T)
 CCSD(T)= -0.33859639740D+02

 The electronic state is 1-A'.
 Alpha  occ. eigenvalues --   -1.34116  -1.30917  -0.69651  -0.67442  -0.56571
 Alpha  occ. eigenvalues --   -0.48921  -0.45004  -0.44871
 Alpha virt. eigenvalues --    0.20570   0.26403   0.31862   0.33296   0.79663
 Alpha virt. eigenvalues --    0.83530   0.89933   0.97238   0.99498   1.15266
 Alpha virt. eigenvalues --    1.19230   1.23514   1.25028   1.31343   2.52940

 Mulliken charges:
               1
     1  O   -0.742347
     2  H    0.345228
     3  H    0.380249
     4  O   -0.674481
     5  H    0.341981
     6  H    0.349370
 Sum of Mulliken charges =  -0.00000

 Dipole moment (field-independent basis, Debye):
    X=             -1.6173    Y=             -0.8018    Z=              0.0000  Tot=              1.8051
 Quadrupole moment (field-independent basis, Debye-Ang):
   XX=             -9.2402   YY=             -3.5447   ZZ=            -15.0004
   XY=             -1.2988   XZ=              0.0000   YZ=              0.0000

 MP4DQ=-33.8534789\MP4SDQ=-33.8557411\CCSD=-33.8567476\CCSD(T)=-33.8596
 Normal termination of Gaussian 16 at Sun Dec 10 06:33:24 2023.
