 Gaussian 16, Revision A.03,
 Gaussian 16:  ES64L-G16RevA.03 25-Dec-2016

 ------------------
 #p CCSD(T)/CEP-31G
 ------------------

 ------------
 H2O_H2O_4348
 ------------
 Symbolic Z-matrix:
 Charge =  0 Multiplicity = 1

                         Standard orientation:
 ---------------------------------------------------------------------
 Center     Atomic      Atomic             Coordinates (Angstroms)
 Number     Number       Type             X           Y           Z
 ---------------------------------------------------------------------
      1          8           0        0.057075   -3.045912    0.000000
      2          1           0       -0.743399   -3.615778    0.000000
      3          1           0        0.855741   -3.618309    0.000000
      4          8           0        0.057075    3.152487    0.000000
      5          1           0       -0.459217    3.988520    0.000000
      6          1           0       -0.566332    2.392968    0.000000
 ---------------------------------------------------------------------

 SCF Done:  E(RHF) =  -33.6520588375     A.U. after   11 cycles
 E2 =    -0.2283717832D+00 EUMP2 =    -0.33880430620716D+02
 CCSD(T)
 CCSD(T)= -0.33897422802D+02

 The electronic state is 1-A'.
 Alpha  occ. eigenvalues --   -1.35709  -1.34891  -0.71343  -0.70511  -0.55459
 Alpha  occ. eigenvalues --   -0.54628  -0.50285  -0.49466
 Alpha virt. eigenvalues --    0.20077   0.20920   0.30319   0.31158   0.80267
 Alpha virt. eigenvalues --    0.81073   0.83262   0.84098   0.86387   0.87263
 Alpha virt. eigenvalues --    1.17204   1.18019   1.21660   1.22493   2.57214

 Mulliken charges:
               1
     1  O   -0.742098
     2  H    0.369625
     3  H    0.372473
     4  O   -0.741936
     5  H    0.367474
     6  H    0.374462
 Sum of Mulliken charges =   0.00000

 Dipole moment (field-independent basis, Debye):
    X=             -2.6330    Y=             -2.4949    Z=              0.0000  Tot=              3.6273
 Quadrupole moment (field-independent basis, Debye-Ang):
   XX=            -10.1560   YY=              7.2050   ZZ=            -14.9893
   XY=             -8.3612   XZ=              0.0000   YZ=              0.0000

 1\MP4DQ=-33.8917808\MP4SDQ=-33.8938077\CCSD=-33.8948624\CCSD(T)=-33.89
 Normal termination of Gaussian 16 at Sun Dec 10 06:58:18 2023.
