 Gaussian 16, Revision A.03,
 Gaussian 16:  ES64L-G16RevA.03 25-Dec-2016

 ------------------
 #p CCSD(T)/CEP-31G
 ------------------

 ------------
 H2O_H2O_1713
 ------------
 Symbolic Z-matrix:
 Charge =  0 Multiplicity = 1

                         Standard orientation:
 ---------------------------------------------------------------------
 Center     Atomic      Atomic             Coordinates (Angstroms)
 Number     Number       Type             X           Y           Z
 ---------------------------------------------------------------------
      1          8           0        0.042982   -1.686687    0.000000
      2          1           0       -0.757825   -2.256085    0.000000
      3          1           0        0.841314   -2.259550    0.000000
      4          8           0        0.042982    1.725413    0.000000
      5          1           0        0.142894    2.702922    0.000000
      6          1           0       -0.914096    1.502910    0.000000
 ---------------------------------------------------------------------

 SCF Done:  E(RHF) =  -33.6476508661     A.U. after   11 cycles
 E2 =    -0.2289244197D+00 EUMP2 =    -0.33876575285875D+02
 CCSD(T)
 CCSD(T)= -0.33893732003D+02

 The electronic state is 1-A'.
 Alpha  occ. eigenvalues --   -1.34559  -1.33511  -0.70189  -0.69082  -0.54222
 Alpha  occ. eigenvalues --   -0.52828  -0.49083  -0.48027
 Alpha virt. eigenvalues --    0.20339   0.22721   0.31200   0.32230   0.75521
 Alpha virt. eigenvalues --    0.80244   0.83763   0.85262   0.89403   1.04737
 Alpha virt. eigenvalues --    1.18151   1.19906   1.22649   1.23969   2.57743

 Mulliken charges:
               1
     1  O   -0.727754
     2  H    0.358127
     3  H    0.369981
     4  O   -0.722598
     5  H    0.352987
     6  H    0.369257
 Sum of Mulliken charges =  -0.00000

 Dipole moment (field-independent basis, Debye):
    X=             -1.9409    Y=             -0.9561    Z=              0.0000  Tot=              2.1636
 Quadrupole moment (field-independent basis, Debye-Ang):
   XX=             -9.2632   YY=              3.7305   ZZ=            -14.9864
   XY=             -2.6685   XZ=              0.0000   YZ=              0.0000

 \MP4DQ=-33.8880059\MP4SDQ=-33.8900782\CCSD=-33.8911288\CCSD(T)=-33.893
 Normal termination of Gaussian 16 at Sun Dec 10 06:56:43 2023.
