 Gaussian 16, Revision A.03,
 Gaussian 16:  ES64L-G16RevA.03 25-Dec-2016

 ------------------
 #p CCSD(T)/CEP-31G
 ------------------

 ------------
 H2O_H2O_2590
 ------------
 Symbolic Z-matrix:
 Charge =  0 Multiplicity = 1

                         Standard orientation:
 ---------------------------------------------------------------------
 Center     Atomic      Atomic             Coordinates (Angstroms)
 Number     Number       Type             X           Y           Z
 ---------------------------------------------------------------------
      1          8           0        0.047536   -2.145603    0.000000
      2          1           0       -0.753109   -2.715228    0.000000
      3          1           0        0.846030   -2.718240    0.000000
      4          8           0        0.047536    2.196190    0.000000
      5          1           0        0.018724    3.178369    0.000000
      6          1           0       -0.872214    1.850406    0.000000
 ---------------------------------------------------------------------

 SCF Done:  E(RHF) =  -33.6503057988     A.U. after   11 cycles
 E2 =    -0.2285387089D+00 EUMP2 =    -0.33878844507699D+02
 CCSD(T)
 CCSD(T)= -0.33895889134D+02

 The electronic state is 1-A'.
 Alpha  occ. eigenvalues --   -1.35076  -1.34243  -0.70706  -0.69838  -0.54728
 Alpha  occ. eigenvalues --   -0.53881  -0.49625  -0.48796
 Alpha virt. eigenvalues --    0.20448   0.21606   0.30830   0.31673   0.80875
 Alpha virt. eigenvalues --    0.81722   0.81792   0.85656   0.87152   0.90095
 Alpha virt. eigenvalues --    1.17763   1.18630   1.22201   1.23125   2.57807

 Mulliken charges:
               1
     1  O   -0.736042
     2  H    0.364626
     3  H    0.371485
     4  O   -0.734120
     5  H    0.361409
     6  H    0.372642
 Sum of Mulliken charges =  -0.00000

 Dipole moment (field-independent basis, Debye):
    X=             -2.1774    Y=             -1.2086    Z=              0.0000  Tot=              2.4903
 Quadrupole moment (field-independent basis, Debye-Ang):
   XX=             -9.5065   YY=              7.0455   ZZ=            -14.9875
   XY=             -4.1022   XZ=              0.0000   YZ=              0.0000

 3\MP4DQ=-33.8902292\MP4SDQ=-33.8922643\CCSD=-33.8933184\CCSD(T)=-33.89
 Normal termination of Gaussian 16 at Sun Dec 10 06:26:24 2023.
