 Gaussian 16, Revision A.03,
 Gaussian 16:  ES64L-G16RevA.03 25-Dec-2016

 ------------------
 #p CCSD(T)/CEP-31G
 ------------------

 -----------
 H2O_H2O_200
 -----------
 Symbolic Z-matrix:
 Charge =  0 Multiplicity = 1

                         Standard orientation:
 ---------------------------------------------------------------------
 Center     Atomic      Atomic             Coordinates (Angstroms)
 Number     Number       Type             X           Y           Z
 ---------------------------------------------------------------------
      1          8           0        0.000000   -0.000000    0.909966
      2          1           0        0.000000    0.799571    1.481098
      3          1           0       -0.000000   -0.799571    1.481098
      4          8           0        0.000000   -0.000000   -0.909966
      5          1           0       -0.000000   -0.799571   -1.481098
      6          1           0        0.000000    0.799571   -1.481098
 ---------------------------------------------------------------------

 SCF Done:  E(RHF) =  -33.5486182280     A.U. after   10 cycles
 E2 =    -0.2349666611D+00 EUMP2 =    -0.33783584889081D+02
 CCSD(T)
 CCSD(T)= -0.33800385573D+02

 The electronic state is 1-AG.
 Alpha  occ. eigenvalues --   -1.34444  -1.29546  -0.68955  -0.65703  -0.62406
 Alpha  occ. eigenvalues --   -0.49407  -0.43029  -0.36392
 Alpha virt. eigenvalues --    0.21462   0.27251   0.32432   0.33656   0.78760
 Alpha virt. eigenvalues --    0.81826   0.89916   0.90347   1.07221   1.20483
 Alpha virt. eigenvalues --    1.20823   1.24328   1.28186   1.31583   2.48506

 Mulliken charges:
               1
     1  O   -0.696161
     2  H    0.348081
     3  H    0.348081
     4  O   -0.696161
     5  H    0.348081
     6  H    0.348081
 Sum of Mulliken charges =   0.00000

 Dipole moment (field-independent basis, Debye):
    X=             -0.0000    Y=              0.0000    Z=             -0.0000  Tot=              0.0000
 Quadrupole moment (field-independent basis, Debye-Ang):
   XX=            -15.0389   YY=             -8.4200   ZZ=             -5.7037
   XY=              0.0000   XZ=             -0.0000   YZ=             -0.0000

 33.7938613\MP4SDQ=-33.7963528\CCSD=-33.797175\CCSD(T)=-33.8003856\RMSD
 Normal termination of Gaussian 16 at Sun Dec 10 06:28:29 2023.
