 Gaussian 16, Revision A.03,
 Gaussian 16:  ES64L-G16RevA.03 25-Dec-2016

 ------------------
 #p CCSD(T)/CEP-31G
 ------------------

 ------------
 H2O_H2O_4800
 ------------
 Symbolic Z-matrix:
 Charge =  0 Multiplicity = 1

                         Standard orientation:
 ---------------------------------------------------------------------
 Center     Atomic      Atomic             Coordinates (Angstroms)
 Number     Number       Type             X           Y           Z
 ---------------------------------------------------------------------
      1          8           0        0.000000   -0.000000    3.356414
      2          1           0        0.000000    0.799571    3.927546
      3          1           0       -0.000000   -0.799571    3.927546
      4          8           0        0.000000   -0.000000   -3.356414
      5          1           0       -0.000000   -0.799571   -3.927546
      6          1           0        0.000000    0.799571   -3.927546
 ---------------------------------------------------------------------

 SCF Done:  E(RHF) =  -33.6508006155     A.U. after   10 cycles
 E2 =    -0.2284291523D+00 EUMP2 =    -0.33879229767797D+02
 CCSD(T)
 CCSD(T)= -0.33896258601D+02

 The electronic state is 1-AG.
 Alpha  occ. eigenvalues --   -1.35061  -1.35061  -0.70689  -0.70689  -0.54741
 Alpha  occ. eigenvalues --   -0.54741  -0.49617  -0.49617
 Alpha virt. eigenvalues --    0.20656   0.20656   0.30888   0.30888   0.80936
 Alpha virt. eigenvalues --    0.80936   0.84054   0.84058   0.87132   0.87133
 Alpha virt. eigenvalues --    1.17798   1.17798   1.22264   1.22264   2.57839

 Mulliken charges:
               1
     1  O   -0.737589
     2  H    0.368794
     3  H    0.368794
     4  O   -0.737589
     5  H    0.368794
     6  H    0.368794
 Sum of Mulliken charges =   0.00000

 Dipole moment (field-independent basis, Debye):
    X=             -0.0000    Y=              0.0000    Z=             -0.0000  Tot=              0.0000
 Quadrupole moment (field-independent basis, Debye-Ang):
   XX=            -14.9870   YY=             -8.0352   ZZ=             23.6215
   XY=              0.0000   XZ=              0.0000   YZ=             -0.0000

 -33.8906068\MP4SDQ=-33.892637\CCSD=-33.8936944\CCSD(T)=-33.8962586\RMS
 Normal termination of Gaussian 16 at Sun Dec 10 07:08:07 2023.
