 Gaussian 16, Revision A.03,
 Gaussian 16:  ES64L-G16RevA.03 25-Dec-2016

 ------------------
 #p CCSD(T)/CEP-31G
 ------------------

 ------------
 H2O_H2O_2390
 ------------
 Symbolic Z-matrix:
 Charge =  0 Multiplicity = 1

                         Standard orientation:
 ---------------------------------------------------------------------
 Center     Atomic      Atomic             Coordinates (Angstroms)
 Number     Number       Type             X           Y           Z
 ---------------------------------------------------------------------
      1          8           0        0.047538   -2.039241    0.000000
      2          1           0       -0.753162   -2.608788    0.000000
      3          1           0        0.845977   -2.611955    0.000000
      4          8           0        0.047538    2.089818    0.000000
      5          1           0        0.018822    3.072000    0.000000
      6          1           0       -0.872245    1.744123    0.000000
 ---------------------------------------------------------------------

 SCF Done:  E(RHF) =  -33.6500879389     A.U. after   11 cycles
 E2 =    -0.2285842179D+00 EUMP2 =    -0.33878672156753D+02
 CCSD(T)
 CCSD(T)= -0.33895724674D+02

 The electronic state is 1-A'.
 Alpha  occ. eigenvalues --   -1.35032  -1.34105  -0.70662  -0.69693  -0.54675
 Alpha  occ. eigenvalues --   -0.53723  -0.49579  -0.48656
 Alpha virt. eigenvalues --    0.20377   0.21821   0.30849   0.31803   0.80375
 Alpha virt. eigenvalues --    0.80842   0.82010   0.85829   0.87250   0.92058
 Alpha virt. eigenvalues --    1.17796   1.18813   1.22215   1.23310   2.57763

 Mulliken charges:
               1
     1  O   -0.735287
     2  H    0.363781
     3  H    0.371644
     4  O   -0.732895
     5  H    0.360024
     6  H    0.372732
 Sum of Mulliken charges =   0.00000

 Dipole moment (field-independent basis, Debye):
    X=             -2.1731    Y=             -1.2152    Z=              0.0000  Tot=              2.4898
 Quadrupole moment (field-independent basis, Debye-Ang):
   XX=             -9.5075   YY=              6.1405   ZZ=            -14.9875
   XY=             -3.8764   XZ=              0.0000   YZ=              0.0000

 \MP4DQ=-33.8900592\MP4SDQ=-33.8920978\CCSD=-33.8931505\CCSD(T)=-33.895
 Normal termination of Gaussian 16 at Sun Dec 10 07:10:24 2023.
