 Gaussian 16, Revision A.03,
 Gaussian 16:  ES64L-G16RevA.03 25-Dec-2016

 ------------------
 #p CCSD(T)/CEP-31G
 ------------------

 -----------
 H2O_H2O_186
 -----------
 Symbolic Z-matrix:
 Charge =  0 Multiplicity = 1

                         Standard orientation:
 ---------------------------------------------------------------------
 Center     Atomic      Atomic             Coordinates (Angstroms)
 Number     Number       Type             X           Y           Z
 ---------------------------------------------------------------------
      1          8           0        0.037708   -0.881419    0.000000
      2          1           0       -0.763925   -1.449653    0.000000
      3          1           0        0.835207   -1.455442    0.000000
      4          8           0        0.037708    0.909493    0.000000
      5          1           0        0.265746    1.865267    0.000000
      6          1           0       -0.940363    0.815239    0.000000
 ---------------------------------------------------------------------

 SCF Done:  E(RHF) =  -33.5501025234     A.U. after   11 cycles
 E2 =    -0.2347987861D+00 EUMP2 =    -0.33784901309475D+02
 CCSD(T)
 CCSD(T)= -0.33801889899D+02

 The electronic state is 1-A'.
 Alpha  occ. eigenvalues --   -1.35961  -1.29582  -0.71215  -0.67818  -0.59154
 Alpha  occ. eigenvalues --   -0.50605  -0.43392  -0.38730
 Alpha virt. eigenvalues --    0.20555   0.27881   0.31558   0.33473   0.81164
 Alpha virt. eigenvalues --    0.84309   0.89642   0.94392   0.98908   1.19578
 Alpha virt. eigenvalues --    1.20532   1.25464   1.26902   1.34680   2.52959

 Mulliken charges:
               1
     1  O   -0.743115
     2  H    0.339442
     3  H    0.385002
     4  O   -0.662089
     5  H    0.337056
     6  H    0.343703
 Sum of Mulliken charges =   0.00000

 Dipole moment (field-independent basis, Debye):
    X=             -1.4012    Y=             -0.7078    Z=              0.0000  Tot=              1.5698
 Quadrupole moment (field-independent basis, Debye-Ang):
   XX=             -9.1763   YY=             -6.0838   ZZ=            -14.9909
   XY=             -0.9785   XZ=              0.0000   YZ=              0.0000

 MP4DQ=-33.7953548\MP4SDQ=-33.7978798\CCSD=-33.7986838\CCSD(T)=-33.8018
 Normal termination of Gaussian 16 at Sun Dec 10 06:28:13 2023.
