 Gaussian 16, Revision A.03,
 Gaussian 16:  ES64L-G16RevA.03 25-Dec-2016

 ------------------
 #p CCSD(T)/CEP-31G
 ------------------

 ------------
 H2O_H2O_3111
 ------------
 Symbolic Z-matrix:
 Charge =  0 Multiplicity = 1

                         Standard orientation:
 ---------------------------------------------------------------------
 Center     Atomic      Atomic             Coordinates (Angstroms)
 Number     Number       Type             X           Y           Z
 ---------------------------------------------------------------------
      1          8           0        0.037676   -2.436950    0.000000
      2          1           0       -0.762650   -3.007024    0.000000
      3          1           0        0.836491   -3.009139    0.000000
      4          8           0        0.037676    2.465197    0.000000
      5          1           0        0.263517    3.421493    0.000000
      6          1           0       -0.940176    2.368696    0.000000
 ---------------------------------------------------------------------

 SCF Done:  E(RHF) =  -33.6500560869     A.U. after   11 cycles
 E2 =    -0.2284986425D+00 EUMP2 =    -0.33878554729452D+02
 CCSD(T)
 CCSD(T)= -0.33895605360D+02

 The electronic state is 1-A'.
 Alpha  occ. eigenvalues --   -1.34920  -1.34562  -0.70547  -0.70175  -0.54558
 Alpha  occ. eigenvalues --   -0.54195  -0.49466  -0.49109
 Alpha virt. eigenvalues --    0.20735   0.21139   0.30988   0.31334   0.81082
 Alpha virt. eigenvalues --    0.81442   0.83698   0.85089   0.87319   0.87921
 Alpha virt. eigenvalues --    1.17909   1.18263   1.22381   1.22738   2.57967

 Mulliken charges:
               1
     1  O   -0.735096
     2  H    0.365578
     3  H    0.369521
     4  O   -0.734269
     5  H    0.364219
     6  H    0.370047
 Sum of Mulliken charges =  -0.00000

 Dipole moment (field-independent basis, Debye):
    X=             -1.7319    Y=             -0.6681    Z=              0.0000  Tot=              1.8563
 Quadrupole moment (field-independent basis, Debye-Ang):
   XX=             -8.9669   YY=             11.5015   ZZ=            -14.9866
   XY=             -3.4574   XZ=              0.0000   YZ=              0.0000

 MP4DQ=-33.889947\MP4SDQ=-33.8919799\CCSD=-33.8930373\CCSD(T)=-33.89560
 Normal termination of Gaussian 16 at Sun Dec 10 06:35:54 2023.
