 Gaussian 16, Revision A.03,
 Gaussian 16:  ES64L-G16RevA.03 25-Dec-2016

 ------------------
 #p CCSD(T)/CEP-31G
 ------------------

 ------------
 H2O_H2O_1100
 ------------
 Symbolic Z-matrix:
 Charge =  0 Multiplicity = 1

                         Standard orientation:
 ---------------------------------------------------------------------
 Center     Atomic      Atomic             Coordinates (Angstroms)
 Number     Number       Type             X           Y           Z
 ---------------------------------------------------------------------
      1          8           0        0.000000   -0.000000    1.388619
      2          1           0        0.000000    0.799571    1.959751
      3          1           0       -0.000000   -0.799571    1.959751
      4          8           0        0.000000   -0.000000   -1.388619
      5          1           0       -0.000000   -0.799571   -1.959751
      6          1           0        0.000000    0.799571   -1.959751
 ---------------------------------------------------------------------

 SCF Done:  E(RHF) =  -33.6370015668     A.U. after   10 cycles
 E2 =    -0.2294934560D+00 EUMP2 =    -0.33866495022848D+02
 CCSD(T)
 CCSD(T)= -0.33883912141D+02

 The electronic state is 1-AG.
 Alpha  occ. eigenvalues --   -1.33007  -1.32668  -0.68583  -0.68312  -0.53982
 Alpha  occ. eigenvalues --   -0.49674  -0.47636  -0.46822
 Alpha virt. eigenvalues --    0.21415   0.23438   0.32343   0.32704   0.79632
 Alpha virt. eigenvalues --    0.80738   0.82187   0.87326   1.01874   1.08399
 Alpha virt. eigenvalues --    1.19439   1.20337   1.24378   1.24407   2.58465

 Mulliken charges:
               1
     1  O   -0.703392
     2  H    0.351696
     3  H    0.351696
     4  O   -0.703392
     5  H    0.351696
     6  H    0.351696
 Sum of Mulliken charges =  -0.00000

 Dipole moment (field-independent basis, Debye):
    X=             -0.0000    Y=              0.0000    Z=              0.0000  Tot=              0.0000
 Quadrupole moment (field-independent basis, Debye-Ang):
   XX=            -14.9877   YY=             -8.2102   ZZ=              1.9342
   XY=              0.0000   XZ=             -0.0000   YZ=             -0.0000

 33.8780612\MP4SDQ=-33.8801542\CCSD=-33.8812452\CCSD(T)=-33.8839121\RMS
 Normal termination of Gaussian 16 at Sun Dec 10 06:45:19 2023.
