 Gaussian 16, Revision A.03,
 Gaussian 16:  ES64L-G16RevA.03 25-Dec-2016

 ------------------
 #p CCSD(T)/CEP-31G
 ------------------

 -----------
 H2O_H2O_403
 -----------
 Symbolic Z-matrix:
 Charge =  0 Multiplicity = 1

                         Standard orientation:
 ---------------------------------------------------------------------
 Center     Atomic      Atomic             Coordinates (Angstroms)
 Number     Number       Type             X           Y           Z
 ---------------------------------------------------------------------
      1          8           0        0.011143   -1.015153    0.000000
      2          1           0       -0.788966   -1.585530    0.000000
      3          1           0        0.810175   -1.587039    0.000000
      4          8           0        0.011143    1.017326    0.000000
      5          1           0        0.684604    1.732837    0.000000
      6          1           0       -0.884105    1.422340    0.000000
 ---------------------------------------------------------------------

 SCF Done:  E(RHF) =  -33.5954236257     A.U. after   11 cycles
 E2 =    -0.2322443274D+00 EUMP2 =    -0.33827667953052D+02
 CCSD(T)
 CCSD(T)= -0.33844837818D+02

 The electronic state is 1-A'.
 Alpha  occ. eigenvalues --   -1.33163  -1.30496  -0.68306  -0.66448  -0.58578
 Alpha  occ. eigenvalues --   -0.48107  -0.44132  -0.41530
 Alpha virt. eigenvalues --    0.21513   0.25998   0.32797   0.33417   0.78601
 Alpha virt. eigenvalues --    0.80753   0.90237   0.95638   1.03591   1.19978
 Alpha virt. eigenvalues --    1.20727   1.22890   1.25206   1.27545   2.48767

 Mulliken charges:
               1
     1  O   -0.701155
     2  H    0.343696
     3  H    0.355939
     4  O   -0.695450
     5  H    0.350840
     6  H    0.346131
 Sum of Mulliken charges =  -0.00000

 Dipole moment (field-independent basis, Debye):
    X=             -0.4344    Y=             -0.0512    Z=              0.0000  Tot=              0.4374
 Quadrupole moment (field-independent basis, Debye-Ang):
   XX=             -8.4074   YY=             -3.5858   ZZ=            -15.0243
   XY=             -0.2516   XZ=              0.0000   YZ=              0.0000

 4DQ=-33.8386369\MP4SDQ=-33.8408912\CCSD=-33.8418884\CCSD(T)=-33.844837
 Normal termination of Gaussian 16 at Sun Dec 10 06:32:18 2023.
