 Gaussian 16, Revision A.03,
 Gaussian 16:  ES64L-G16RevA.03 25-Dec-2016

 ------------------
 #p CCSD(T)/CEP-31G
 ------------------

 ------------
 H2O_H2O_1471
 ------------
 Symbolic Z-matrix:
 Charge =  0 Multiplicity = 1

                         Standard orientation:
 ---------------------------------------------------------------------
 Center     Atomic      Atomic             Coordinates (Angstroms)
 Number     Number       Type             X           Y           Z
 ---------------------------------------------------------------------
      1          8           0        0.056157   -1.525013    0.000000
      2          1           0       -0.745164   -2.093687    0.000000
      3          1           0        0.853971   -2.098596    0.000000
      4          8           0        0.056157    1.616610    0.000000
      5          1           0       -0.345261    2.513478    0.000000
      6          1           0       -0.662052    0.946027    0.000000
 ---------------------------------------------------------------------

 SCF Done:  E(RHF) =  -33.6524553872     A.U. after   11 cycles
 E2 =    -0.2290723117D+00 EUMP2 =    -0.33881527698868D+02
 CCSD(T)
 CCSD(T)= -0.33898579593D+02

 The electronic state is 1-A'.
 Alpha  occ. eigenvalues --   -1.35878  -1.32820  -0.71526  -0.68420  -0.55638
 Alpha  occ. eigenvalues --   -0.52544  -0.50463  -0.47409
 Alpha virt. eigenvalues --    0.19237   0.24333   0.30123   0.33769   0.76375
 Alpha virt. eigenvalues --    0.78633   0.84705   0.86510   0.88819   1.08227
 Alpha virt. eigenvalues --    1.16929   1.20546   1.21880   1.28297   2.54693

 Mulliken charges:
               1
     1  O   -0.746540
     2  H    0.363904
     3  H    0.383949
     4  O   -0.737811
     5  H    0.348662
     6  H    0.387835
 Sum of Mulliken charges =   0.00000

 Dipole moment (field-independent basis, Debye):
    X=             -2.5164    Y=             -2.3032    Z=              0.0000  Tot=              3.4113
 Quadrupole moment (field-independent basis, Debye-Ang):
   XX=            -10.0593   YY=             -0.7056   ZZ=            -14.9948
   XY=             -4.0665   XZ=              0.0000   YZ=              0.0000

 \MP4DQ=-33.8928215\MP4SDQ=-33.8949154\CCSD=-33.8959485\CCSD(T)=-33.898
 Normal termination of Gaussian 16 at Sun Dec 10 06:52:14 2023.
