 Gaussian 16, Revision A.03,
 Gaussian 16:  ES64L-G16RevA.03 25-Dec-2016

 ------------------
 #p CCSD(T)/CEP-31G
 ------------------

 -----------
 H2O_H2O_681
 -----------
 Symbolic Z-matrix:
 Charge =  0 Multiplicity = 1

                         Standard orientation:
 ---------------------------------------------------------------------
 Center     Atomic      Atomic             Coordinates (Angstroms)
 Number     Number       Type             X           Y           Z
 ---------------------------------------------------------------------
      1          8           0        0.021863   -1.157903    0.000000
      2          1           0       -0.778631   -1.727740    0.000000
      3          1           0        0.820509   -1.730329    0.000000
      4          8           0        0.021863    1.166528    0.000000
      5          1           0        0.543357    1.999324    0.000000
      6          1           0       -0.935047    1.389752    0.000000
 ---------------------------------------------------------------------

 SCF Done:  E(RHF) =  -33.6243827281     A.U. after   11 cycles
 E2 =    -0.2305589607D+00 EUMP2 =    -0.33854941688855D+02
 CCSD(T)
 CCSD(T)= -0.33872335303D+02

 The electronic state is 1-A'.
 Alpha  occ. eigenvalues --   -1.32902  -1.31631  -0.68376  -0.67390  -0.55696
 Alpha  occ. eigenvalues --   -0.47698  -0.46323  -0.45540
 Alpha virt. eigenvalues --    0.21302   0.24868   0.32637   0.33033   0.79562
 Alpha virt. eigenvalues --    0.79603   0.89536   0.93991   1.01950   1.12860
 Alpha virt. eigenvalues --    1.19760   1.22867   1.24377   1.26766   2.53045

 Mulliken charges:
               1
     1  O   -0.707818
     2  H    0.343914
     3  H    0.360463
     4  O   -0.693980
     5  H    0.349007
     6  H    0.348414
 Sum of Mulliken charges =   0.00000

 Dipole moment (field-independent basis, Debye):
    X=             -0.9086    Y=             -0.2050    Z=              0.0000  Tot=              0.9314
 Quadrupole moment (field-independent basis, Debye-Ang):
   XX=             -8.5534   YY=             -1.3100   ZZ=            -15.0021
   XY=             -0.6571   XZ=              0.0000   YZ=              0.0000

 P4DQ=-33.8663398\MP4SDQ=-33.8684848\CCSD=-33.8695628\CCSD(T)=-33.87233
 Normal termination of Gaussian 16 at Sun Dec 10 06:37:28 2023.
