 Gaussian 16, Revision A.03,
 Gaussian 16:  ES64L-G16RevA.03 25-Dec-2016

 ------------------
 #p CCSD(T)/CEP-31G
 ------------------

 -----------
 H2O_H2O_327
 -----------
 Symbolic Z-matrix:
 Charge =  0 Multiplicity = 1

                         Standard orientation:
 ---------------------------------------------------------------------
 Center     Atomic      Atomic             Coordinates (Angstroms)
 Number     Number       Type             X           Y           Z
 ---------------------------------------------------------------------
      1          8           0        0.007455   -0.975920    0.000000
      2          1           0       -0.792491   -1.546527    0.000000
      3          1           0        0.806651   -1.547577    0.000000
      4          8           0        0.007455    0.976887    0.000000
      5          1           0        0.726079    1.647026    0.000000
      6          1           0       -0.859520    1.439338    0.000000
 ---------------------------------------------------------------------

 SCF Done:  E(RHF) =  -33.5815345121     A.U. after   11 cycles
 E2 =    -0.2330426421D+00 EUMP2 =    -0.33814577154231D+02
 CCSD(T)
 CCSD(T)= -0.33831635335D+02

 The electronic state is 1-A'.
 Alpha  occ. eigenvalues --   -1.33474  -1.30143  -0.68437  -0.66162  -0.59810
 Alpha  occ. eigenvalues --   -0.48446  -0.43710  -0.39791
 Alpha virt. eigenvalues --    0.21527   0.26409   0.32735   0.33517   0.78525
 Alpha virt. eigenvalues --    0.81168   0.90216   0.93470   1.05605   1.20294
 Alpha virt. eigenvalues --    1.21871   1.23122   1.26622   1.27829   2.48174

 Mulliken charges:
               1
     1  O   -0.699197
     2  H    0.344670
     3  H    0.353805
     4  O   -0.696416
     5  H    0.350424
     6  H    0.346714
 Sum of Mulliken charges =  -0.00000

 Dipole moment (field-independent basis, Debye):
    X=             -0.2850    Y=             -0.0232    Z=              0.0000  Tot=              0.2859
 Quadrupole moment (field-independent basis, Debye-Ang):
   XX=             -8.3921   YY=             -4.3253   ZZ=            -15.0311
   XY=             -0.1584   XZ=              0.0000   YZ=              0.0000

 DQ=-33.8253384\MP4SDQ=-33.8276585\CCSD=-33.8286077\CCSD(T)=-33.8316353
 Normal termination of Gaussian 16 at Sun Dec 10 06:30:53 2023.
