 Gaussian 16, Revision A.03,
 Gaussian 16:  ES64L-G16RevA.03 25-Dec-2016

 ------------------
 #p CCSD(T)/CEP-31G
 ------------------

 ------------
 H2O_H2O_3848
 ------------
 Symbolic Z-matrix:
 Charge =  0 Multiplicity = 1

                         Standard orientation:
 ---------------------------------------------------------------------
 Center     Atomic      Atomic             Coordinates (Angstroms)
 Number     Number       Type             X           Y           Z
 ---------------------------------------------------------------------
      1          8           0        0.057083   -2.780003    0.000000
      2          1           0       -0.743475   -3.349750    0.000000
      3          1           0        0.855664   -3.352519    0.000000
      4          8           0        0.057083    2.886561    0.000000
      5          1           0       -0.459085    3.722669    0.000000
      6          1           0       -0.566437    2.127134    0.000000
 ---------------------------------------------------------------------

 SCF Done:  E(RHF) =  -33.6521583187     A.U. after   11 cycles
 E2 =    -0.2283744320D+00 EUMP2 =    -0.33880532750726D+02
 CCSD(T)
 CCSD(T)= -0.33897521975D+02

 The electronic state is 1-A'.
 Alpha  occ. eigenvalues --   -1.35734  -1.34742  -0.71368  -0.70357  -0.55491
 Alpha  occ. eigenvalues --   -0.54481  -0.50311  -0.49319
 Alpha virt. eigenvalues --    0.20053   0.21086   0.30300   0.31320   0.80242
 Alpha virt. eigenvalues --    0.81214   0.83216   0.84246   0.86355   0.87428
 Alpha virt. eigenvalues --    1.17184   1.18170   1.21638   1.22654   2.57187

 Mulliken charges:
               1
     1  O   -0.742455
     2  H    0.369397
     3  H    0.373060
     4  O   -0.742202
     5  H    0.366554
     6  H    0.375646
 Sum of Mulliken charges =  -0.00000

 Dipole moment (field-independent basis, Debye):
    X=             -2.6306    Y=             -2.5034    Z=              0.0000  Tot=              3.6314
 Quadrupole moment (field-independent basis, Debye-Ang):
   XX=            -10.1546   YY=              5.6820   ZZ=            -14.9896
   XY=             -7.6662   XZ=              0.0000   YZ=              0.0000

 7\MP4DQ=-33.8918805\MP4SDQ=-33.8939074\CCSD=-33.8949614\CCSD(T)=-33.89
 Normal termination of Gaussian 16 at Sun Dec 10 06:49:17 2023.
