 Gaussian 16, Revision A.03,
 Gaussian 16:  ES64L-G16RevA.03 25-Dec-2016

 ------------------
 #p CCSD(T)/CEP-31G
 ------------------

 ------------
 H2O_H2O_3040
 ------------
 Symbolic Z-matrix:
 Charge =  0 Multiplicity = 1

                         Standard orientation:
 ---------------------------------------------------------------------
 Center     Atomic      Atomic             Coordinates (Angstroms)
 Number     Number       Type             X           Y           Z
 ---------------------------------------------------------------------
      1          8           0        0.047531   -2.384920    0.000000
      2          1           0       -0.753008   -2.954695    0.000000
      3          1           0        0.846132   -2.957408    0.000000
      4          8           0        0.047531    2.435525    0.000000
      5          1           0        0.018536    3.417698    0.000000
      6          1           0       -0.872154    2.089569    0.000000
 ---------------------------------------------------------------------

 SCF Done:  E(RHF) =  -33.6506772570     A.U. after   11 cycles
 E2 =    -0.2284784668D+00 EUMP2 =    -0.33879155723749D+02
 CCSD(T)
 CCSD(T)= -0.33896188549D+02

 The electronic state is 1-A'.
 Alpha  occ. eigenvalues --   -1.35161  -1.34494  -0.70791  -0.70100  -0.54834
 Alpha  occ. eigenvalues --   -0.54160  -0.49716  -0.49051
 Alpha virt. eigenvalues --    0.20510   0.21265   0.30780   0.31441   0.80833
 Alpha virt. eigenvalues --    0.81493   0.83385   0.84993   0.87032   0.88092
 Alpha virt. eigenvalues --    1.17694   1.18358   1.22155   1.22838   2.57735

 Mulliken charges:
               1
     1  O   -0.737297
     2  H    0.366079
     3  H    0.371228
     4  O   -0.736106
     5  H    0.363722
     6  H    0.372374
 Sum of Mulliken charges =   0.00000

 Dipole moment (field-independent basis, Debye):
    X=             -2.1841    Y=             -1.1985    Z=              0.0000  Tot=              2.4913
 Quadrupole moment (field-independent basis, Debye-Ang):
   XX=             -9.5051   YY=              9.0700   ZZ=            -14.9876
   XY=             -4.6134   XZ=              0.0000   YZ=              0.0000

 \MP4DQ=-33.8905347\MP4SDQ=-33.8925662\CCSD=-33.893622\CCSD(T)=-33.8961
 Normal termination of Gaussian 16 at Sun Dec 10 06:34:39 2023.
