 Gaussian 16, Revision A.03,
 Gaussian 16:  ES64L-G16RevA.03 25-Dec-2016

 ------------------
 #p CCSD(T)/CEP-31G
 ------------------

 ------------
 H2O_H2O_4728
 ------------
 Symbolic Z-matrix:
 Charge =  0 Multiplicity = 1

                         Standard orientation:
 ---------------------------------------------------------------------
 Center     Atomic      Atomic             Coordinates (Angstroms)
 Number     Number       Type             X           Y           Z
 ---------------------------------------------------------------------
      1          8           0        0.011143   -3.315337    0.000000
      2          1           0       -0.788594   -3.886238    0.000000
      3          1           0        0.810548   -3.886701    0.000000
      4          8           0        0.011143    3.317526    0.000000
      5          1           0        0.684135    4.033477    0.000000
      6          1           0       -0.884371    3.721954    0.000000
 ---------------------------------------------------------------------

 SCF Done:  E(RHF) =  -33.6507888843     A.U. after   11 cycles
 E2 =    -0.2284303762D+00 EUMP2 =    -0.33879219260424D+02
 CCSD(T)
 CCSD(T)= -0.33896248420D+02

 The electronic state is 1-A'.
 Alpha  occ. eigenvalues --   -1.35061  -1.35047  -0.70689  -0.70674  -0.54741
 Alpha  occ. eigenvalues --   -0.54726  -0.49618  -0.49603
 Alpha virt. eigenvalues --    0.20655   0.20670   0.30887   0.30902   0.80936
 Alpha virt. eigenvalues --    0.80951   0.84057   0.84072   0.87133   0.87150
 Alpha virt. eigenvalues --    1.17798   1.17812   1.22263   1.22278   2.57839

 Mulliken charges:
               1
     1  O   -0.737550
     2  H    0.368520
     3  H    0.369030
     4  O   -0.737529
     5  H    0.368401
     6  H    0.369128
 Sum of Mulliken charges =  -0.00000

 Dipole moment (field-independent basis, Debye):
    X=             -0.5146    Y=             -0.0511    Z=              0.0000  Tot=              0.5171
 Quadrupole moment (field-independent basis, Debye-Ang):
   XX=             -8.1164   YY=             22.9291   ZZ=            -14.9870
   XY=             -1.3665   XZ=              0.0000   YZ=              0.0000

 MP4DQ=-33.8905965\MP4SDQ=-33.8926268\CCSD=-33.8936842\CCSD(T)=-33.8962
 Normal termination of Gaussian 16 at Sun Dec 10 07:06:48 2023.
