 Gaussian 16, Revision A.03,
 Gaussian 16:  ES64L-G16RevA.03 25-Dec-2016

 ------------------
 #p CCSD(T)/CEP-31G
 ------------------

 ------------
 H2O_H2O_4266
 ------------
 Symbolic Z-matrix:
 Charge =  0 Multiplicity = 1

                         Standard orientation:
 ---------------------------------------------------------------------
 Center     Atomic      Atomic             Coordinates (Angstroms)
 Number     Number       Type             X           Y           Z
 ---------------------------------------------------------------------
      1          8           0        0.049501   -3.032960    0.000000
      2          1           0       -0.750863   -3.602980    0.000000
      3          1           0        0.848277   -3.605204    0.000000
      4          8           0        0.049501    3.089936    0.000000
      5          1           0       -0.043968    4.068082    0.000000
      6          1           0       -0.845464    2.684297    0.000000
 ---------------------------------------------------------------------

 SCF Done:  E(RHF) =  -33.6513371856     A.U. after   11 cycles
 E2 =    -0.2284119941D+00 EUMP2 =    -0.33879749179692D+02
 CCSD(T)
 CCSD(T)= -0.33896762400D+02

 The electronic state is 1-A'.
 Alpha  occ. eigenvalues --   -1.35366  -1.34911  -0.70997  -0.70531  -0.55076
 Alpha  occ. eigenvalues --   -0.54617  -0.49931  -0.49476
 Alpha virt. eigenvalues --    0.20380   0.20846   0.30617   0.31072   0.80622
 Alpha virt. eigenvalues --    0.81070   0.83688   0.84143   0.86784   0.87297
 Alpha virt. eigenvalues --    1.17516   1.17968   1.21978   1.22435   2.57544

 Mulliken charges:
               1
     1  O   -0.739532
     2  H    0.368395
     3  H    0.371137
     4  O   -0.739143
     5  H    0.367078
     6  H    0.372065
 Sum of Mulliken charges =  -0.00000

 Dipole moment (field-independent basis, Debye):
    X=             -2.2840    Y=             -1.3341    Z=              0.0000  Tot=              2.6450
 Quadrupole moment (field-independent basis, Debye-Ang):
   XX=             -9.6287   YY=             13.7236   ZZ=            -14.9880
   XY=             -6.3716   XZ=              0.0000   YZ=              0.0000

 5\MP4DQ=-33.8911147\MP4SDQ=-33.8931437\CCSD=-33.8941997\CCSD(T)=-33.89
 Normal termination of Gaussian 16 at Sun Dec 10 06:56:52 2023.
