 Gaussian 16, Revision A.03,
 Gaussian 16:  ES64L-G16RevA.03 25-Dec-2016

 ------------------
 #p CCSD(T)/CEP-31G
 ------------------

 ------------
 H2O_H2O_4234
 ------------
 Symbolic Z-matrix:
 Charge =  0 Multiplicity = 1

                         Standard orientation:
 ---------------------------------------------------------------------
 Center     Atomic      Atomic             Coordinates (Angstroms)
 Number     Number       Type             X           Y           Z
 ---------------------------------------------------------------------
      1          8           0        0.031739   -3.040183    0.000000
      2          1           0       -0.768343   -3.610599    0.000000
      3          1           0        0.830798   -3.612031    0.000000
      4          8           0        0.031739    3.059377    0.000000
      5          1           0        0.380077    3.978162    0.000000
      6          1           0       -0.950356    3.090918    0.000000
 ---------------------------------------------------------------------

 SCF Done:  E(RHF) =  -33.6507528217     A.U. after   11 cycles
 E2 =    -0.2284383412D+00 EUMP2 =    -0.33879191162926D+02
 CCSD(T)
 CCSD(T)= -0.33896221314D+02

 The electronic state is 1-A'.
 Alpha  occ. eigenvalues --   -1.35088  -1.34933  -0.70716  -0.70557  -0.54765
 Alpha  occ. eigenvalues --   -0.54610  -0.49644  -0.49489
 Alpha virt. eigenvalues --    0.20626   0.20783   0.30859   0.31011   0.80910
 Alpha virt. eigenvalues --    0.81063   0.84034   0.84188   0.87107   0.87290
 Alpha virt. eigenvalues --    1.17769   1.17923   1.22236   1.22390   2.57812

 Mulliken charges:
               1
     1  O   -0.737446
     2  H    0.367811
     3  H    0.369635
     4  O   -0.737220
     5  H    0.367243
     6  H    0.369977
 Sum of Mulliken charges =   0.00000

 Dipole moment (field-independent basis, Debye):
    X=             -1.4644    Y=             -0.4494    Z=              0.0000  Tot=              1.5318
 Quadrupole moment (field-independent basis, Debye-Ang):
   XX=             -8.6925   YY=             18.2001   ZZ=            -14.9870
   XY=             -3.6810   XZ=              0.0000   YZ=              0.0000

 \MP4DQ=-33.8905691\MP4SDQ=-33.8925996\CCSD=-33.8936568\CCSD(T)=-33.896
 Normal termination of Gaussian 16 at Sun Dec 10 06:56:18 2023.
