 Gaussian 16, Revision A.03,
 Gaussian 16:  ES64L-G16RevA.03 25-Dec-2016

 ------------------
 #p CCSD(T)/CEP-31G
 ------------------

 ------------
 H2O_H2O_1791
 ------------
 Symbolic Z-matrix:
 Charge =  0 Multiplicity = 1

                         Standard orientation:
 ---------------------------------------------------------------------
 Center     Atomic      Atomic             Coordinates (Angstroms)
 Number     Number       Type             X           Y           Z
 ---------------------------------------------------------------------
      1          8           0        0.049531   -1.716719    0.000000
      2          1           0       -0.751431   -2.285899    0.000000
      3          1           0        0.847706   -2.289801    0.000000
      4          8           0        0.049531    1.773591    0.000000
      5          1           0       -0.042911    2.751834    0.000000
      6          1           0       -0.845859    1.368891    0.000000
 ---------------------------------------------------------------------

 SCF Done:  E(RHF) =  -33.6494928562     A.U. after   11 cycles
 E2 =    -0.2288446622D+00 EUMP2 =    -0.33878337518421D+02
 CCSD(T)
 CCSD(T)= -0.33895436467D+02

 The electronic state is 1-A'.
 Alpha  occ. eigenvalues --   -1.35006  -1.33515  -0.70641  -0.69076  -0.54655
 Alpha  occ. eigenvalues --   -0.53050  -0.49549  -0.48063
 Alpha virt. eigenvalues --    0.19976   0.22840   0.30808   0.32368   0.75845
 Alpha virt. eigenvalues --    0.80105   0.83390   0.85703   0.88042   1.02717
 Alpha virt. eigenvalues --    1.17764   1.20071   1.22213   1.24486   2.56901

 Mulliken charges:
               1
     1  O   -0.733554
     2  H    0.360662
     3  H    0.373492
     4  O   -0.728425
     5  H    0.353697
     6  H    0.374127
 Sum of Mulliken charges =  -0.00000

 Dipole moment (field-independent basis, Debye):
    X=             -2.2409    Y=             -1.4000    Z=              0.0000  Tot=              2.6423
 Quadrupole moment (field-independent basis, Debye-Ang):
   XX=             -9.6332   YY=              2.9737   ZZ=            -14.9883
   XY=             -3.4356   XZ=              0.0000   YZ=              0.0000

 \MP4DQ=-33.889728\MP4SDQ=-33.8917942\CCSD=-33.8928397\CCSD(T)=-33.8954
 Normal termination of Gaussian 16 at Sun Dec 10 06:58:10 2023.
