 Gaussian 16, Revision A.03,
 Gaussian 16:  ES64L-G16RevA.03 25-Dec-2016

 ------------------
 #p CCSD(T)/CEP-31G
 ------------------

 ------------
 H2O_H2O_1363
 ------------
 Symbolic Z-matrix:
 Charge =  0 Multiplicity = 1

                         Standard orientation:
 ---------------------------------------------------------------------
 Center     Atomic      Atomic             Coordinates (Angstroms)
 Number     Number       Type             X           Y           Z
 ---------------------------------------------------------------------
      1          8           0        0.042987   -1.500556    0.000000
      2          1           0       -0.757970   -2.069742    0.000000
      3          1           0        0.841167   -2.073631    0.000000
      4          8           0        0.042987    1.539259    0.000000
      5          1           0        0.143159    2.516741    0.000000
      6          1           0       -0.914150    1.317010    0.000000
 ---------------------------------------------------------------------

 SCF Done:  E(RHF) =  -33.6455950081     A.U. after   11 cycles
 E2 =    -0.2292469522D+00 EUMP2 =    -0.33874841960305D+02
 CCSD(T)
 CCSD(T)= -0.33892097651D+02

 The electronic state is 1-A'.
 Alpha  occ. eigenvalues --   -1.34333  -1.33041  -0.69963  -0.68613  -0.54206
 Alpha  occ. eigenvalues --   -0.51969  -0.48860  -0.47515
 Alpha virt. eigenvalues --    0.20327   0.23470   0.31383   0.32533   0.76627
 Alpha virt. eigenvalues --    0.79417   0.84259   0.85467   0.91578   1.12596
 Alpha virt. eigenvalues --    1.18292   1.21589   1.22930   1.24828   2.59947

 Mulliken charges:
               1
     1  O   -0.724915
     2  H    0.354361
     3  H    0.370272
     4  O   -0.714675
     5  H    0.348000
     6  H    0.366957
 Sum of Mulliken charges =  -0.00000

 Dipole moment (field-independent basis, Debye):
    X=             -1.9155    Y=             -0.9660    Z=              0.0000  Tot=              2.1453
 Quadrupole moment (field-independent basis, Debye-Ang):
   XX=             -9.2791   YY=              1.9222   ZZ=            -14.9871
   XY=             -2.3237   XZ=              0.0000   YZ=              0.0000

 P4DQ=-33.8863088\MP4SDQ=-33.888409\CCSD=-33.889467\CCSD(T)=-33.8920977
 Normal termination of Gaussian 16 at Sun Dec 10 06:50:14 2023.
