 Gaussian 16, Revision A.03,
 Gaussian 16:  ES64L-G16RevA.03 25-Dec-2016

 ------------------
 #p CCSD(T)/CEP-31G
 ------------------

 -----------
 H2O_H2O_552
 -----------
 Symbolic Z-matrix:
 Charge =  0 Multiplicity = 1

                         Standard orientation:
 ---------------------------------------------------------------------
 Center     Atomic      Atomic             Coordinates (Angstroms)
 Number     Number       Type             X           Y           Z
 ---------------------------------------------------------------------
      1          8           0        0.007455   -1.095583    0.000000
      2          1           0       -0.792450   -1.666247    0.000000
      3          1           0        0.806692   -1.667183    0.000000
      4          8           0        0.007455    1.096552    0.000000
      5          1           0        0.726030    1.766741    0.000000
      6          1           0       -0.859553    1.558939    0.000000
 ---------------------------------------------------------------------

 SCF Done:  E(RHF) =  -33.6131058965     A.U. after   11 cycles
 E2 =    -0.2311720820D+00 EUMP2 =    -0.33844277978514D+02
 CCSD(T)
 CCSD(T)= -0.33861587156D+02

 The electronic state is 1-A'.
 Alpha  occ. eigenvalues --   -1.32777  -1.31092  -0.68112  -0.66899  -0.56821
 Alpha  occ. eigenvalues --   -0.47644  -0.44847  -0.44098
 Alpha virt. eigenvalues --    0.21570   0.25247   0.32888   0.33259   0.78302
 Alpha virt. eigenvalues --    0.80128   0.90038   0.99287   0.99497   1.16615
 Alpha virt. eigenvalues --    1.20068   1.22773   1.23638   1.26781   2.50741

 Mulliken charges:
               1
     1  O   -0.698823
     2  H    0.345723
     3  H    0.352561
     4  O   -0.696792
     5  H    0.349665
     6  H    0.347666
 Sum of Mulliken charges =   0.00000

 Dipole moment (field-independent basis, Debye):
    X=             -0.3009    Y=             -0.0226    Z=              0.0000  Tot=              0.3018
 Quadrupole moment (field-independent basis, Debye-Ang):
   XX=             -8.3311   YY=             -2.2255   ZZ=            -15.0137
   XY=             -0.1861   XZ=              0.0000   YZ=              0.0000

 DQ=-33.8555193\MP4SDQ=-33.8576891\CCSD=-33.8587439\CCSD(T)=-33.8615872
 Normal termination of Gaussian 16 at Sun Dec 10 06:35:04 2023.
