 Gaussian 16, Revision A.03,
 Gaussian 16:  ES64L-G16RevA.03 25-Dec-2016

 ------------------
 #p CCSD(T)/CEP-31G
 ------------------

 ------------
 H2O_H2O_4198
 ------------
 Symbolic Z-matrix:
 Charge =  0 Multiplicity = 1

                         Standard orientation:
 ---------------------------------------------------------------------
 Center     Atomic      Atomic             Coordinates (Angstroms)
 Number     Number       Type             X           Y           Z
 ---------------------------------------------------------------------
      1          8           0        0.057078   -2.966140    0.000000
      2          1           0       -0.743420   -3.535972    0.000000
      3          1           0        0.855720   -3.538570    0.000000
      4          8           0        0.057078    3.072710    0.000000
      5          1           0       -0.459180    3.908763    0.000000
      6          1           0       -0.566361    2.313216    0.000000
 ---------------------------------------------------------------------

 SCF Done:  E(RHF) =  -33.6520839539     A.U. after   11 cycles
 E2 =    -0.2283723519D+00 EUMP2 =    -0.33880456305814D+02
 CCSD(T)
 CCSD(T)= -0.33897447729D+02

 The electronic state is 1-A'.
 Alpha  occ. eigenvalues --   -1.35716  -1.34850  -0.71350  -0.70469  -0.55467
 Alpha  occ. eigenvalues --   -0.54588  -0.50292  -0.49426
 Alpha virt. eigenvalues --    0.20071   0.20965   0.30314   0.31202   0.80260
 Alpha virt. eigenvalues --    0.81111   0.83251   0.84138   0.86379   0.87307
 Alpha virt. eigenvalues --    1.17199   1.18060   1.21654   1.22536   2.57208

 Mulliken charges:
               1
     1  O   -0.742189
     2  H    0.369562
     3  H    0.372627
     4  O   -0.742005
     5  H    0.367229
     6  H    0.374775
 Sum of Mulliken charges =  -0.00000

 Dipole moment (field-independent basis, Debye):
    X=             -2.6324    Y=             -2.4971    Z=              0.0000  Tot=              3.6284
 Quadrupole moment (field-independent basis, Debye-Ang):
   XX=            -10.1557   YY=              6.7487   ZZ=            -14.9893
   XY=             -8.1526   XZ=              0.0000   YZ=              0.0000

 \MP4DQ=-33.8918058\MP4SDQ=-33.8938328\CCSD=-33.8948873\CCSD(T)=-33.897
 Normal termination of Gaussian 16 at Sun Dec 10 06:55:40 2023.
