 Gaussian 16, Revision A.03,
 Gaussian 16:  ES64L-G16RevA.03 25-Dec-2016

 ------------------
 #p CCSD(T)/CEP-31G
 ------------------

 ------------
 H2O_H2O_1355
 ------------
 Symbolic Z-matrix:
 Charge =  0 Multiplicity = 1

                         Standard orientation:
 ---------------------------------------------------------------------
 Center     Atomic      Atomic             Coordinates (Angstroms)
 Number     Number       Type             X           Y           Z
 ---------------------------------------------------------------------
      1          8           0        0.018362   -1.518306    0.000000
      2          1           0       -0.781802   -2.088607    0.000000
      3          1           0        0.817339   -2.090268    0.000000
      4          8           0        0.018362    1.524330    0.000000
      5          1           0        0.592744    2.321569    0.000000
      6          1           0       -0.922065    1.809116    0.000000
 ---------------------------------------------------------------------

 SCF Done:  E(RHF) =  -33.6415962791     A.U. after   11 cycles
 E2 =    -0.2292038626D+00 EUMP2 =    -0.33870800141742D+02
 CCSD(T)
 CCSD(T)= -0.33888140243D+02

 The electronic state is 1-A'.
 Alpha  occ. eigenvalues --   -1.33426  -1.33169  -0.69035  -0.68781  -0.53744
 Alpha  occ. eigenvalues --   -0.51191  -0.47992  -0.47479
 Alpha virt. eigenvalues --    0.21139   0.22965   0.32057   0.32374   0.77719
 Alpha virt. eigenvalues --    0.79978   0.82863   0.85761   0.95931   1.08874
 Alpha virt. eigenvalues --    1.19099   1.19807   1.23747   1.24050   2.59671

 Mulliken charges:
               1
     1  O   -0.711394
     2  H    0.352153
     3  H    0.359096
     4  O   -0.709187
     5  H    0.351584
     6  H    0.357749
 Sum of Mulliken charges =  -0.00000

 Dipole moment (field-independent basis, Debye):
    X=             -0.8208    Y=             -0.1503    Z=              0.0000  Tot=              0.8344
 Quadrupole moment (field-independent basis, Debye-Ang):
   XX=             -8.3779   YY=              3.3498   ZZ=            -14.9846
   XY=             -0.8195   XZ=              0.0000   YZ=              0.0000

 MP4DQ=-33.882341\MP4SDQ=-33.8844305\CCSD=-33.8855053\CCSD(T)=-33.88814
 Normal termination of Gaussian 16 at Sun Dec 10 06:50:05 2023.
