 Gaussian 16, Revision A.03,
 Gaussian 16:  ES64L-G16RevA.03 25-Dec-2016

 ------------------
 #p CCSD(T)/CEP-31G
 ------------------

 -----------
 H2O_H2O_281
 -----------
 Symbolic Z-matrix:
 Charge =  0 Multiplicity = 1

                         Standard orientation:
 ---------------------------------------------------------------------
 Center     Atomic      Atomic             Coordinates (Angstroms)
 Number     Number       Type             X           Y           Z
 ---------------------------------------------------------------------
      1          8           0        0.021865   -0.945177    0.000000
      2          1           0       -0.778836   -1.514724    0.000000
      3          1           0        0.820302   -1.517893    0.000000
      4          8           0        0.021865    0.953785    0.000000
      5          1           0        0.543661    1.786393    0.000000
      6          1           0       -0.934964    1.177357    0.000000
 ---------------------------------------------------------------------

 SCF Done:  E(RHF) =  -33.5736004288     A.U. after   11 cycles
 E2 =    -0.2335326348D+00 EUMP2 =    -0.33807133063663D+02
 CCSD(T)
 CCSD(T)= -0.33824162600D+02

 The electronic state is 1-A'.
 Alpha  occ. eigenvalues --   -1.34078  -1.29996  -0.69071  -0.66433  -0.60031
 Alpha  occ. eigenvalues --   -0.49016  -0.43603  -0.39336
 Alpha virt. eigenvalues --    0.21232   0.26840   0.32382   0.33492   0.80431
 Alpha virt. eigenvalues --    0.81225   0.90062   0.93727   1.03444   1.19967
 Alpha virt. eigenvalues --    1.21327   1.23322   1.27328   1.30294   2.48911

 Mulliken charges:
               1
     1  O   -0.712702
     2  H    0.339721
     3  H    0.366544
     4  O   -0.687394
     5  H    0.350919
     6  H    0.342913
 Sum of Mulliken charges =  -0.00000

 Dipole moment (field-independent basis, Debye):
    X=             -0.8292    Y=             -0.2098    Z=              0.0000  Tot=              0.8553
 Quadrupole moment (field-independent basis, Debye-Ang):
   XX=             -8.6468   YY=             -4.8549   ZZ=            -15.0228
   XY=             -0.4987   XZ=              0.0000   YZ=              0.0000

 MP4DQ=-33.8177999\MP4SDQ=-33.8201786\CCSD=-33.8210917\CCSD(T)=-33.8241
 Normal termination of Gaussian 16 at Sun Dec 10 06:30:01 2023.
