 Gaussian 16, Revision A.03,
 Gaussian 16:  ES64L-G16RevA.03 25-Dec-2016

 ------------------
 #p CCSD(T)/CEP-31G
 ------------------

 ------------
 H2O_H2O_2650
 ------------
 Symbolic Z-matrix:
 Charge =  0 Multiplicity = 1

                         Standard orientation:
 ---------------------------------------------------------------------
 Center     Atomic      Atomic             Coordinates (Angstroms)
 Number     Number       Type             X           Y           Z
 ---------------------------------------------------------------------
      1          8           0        0.000000   -0.000000    2.212966
      2          1           0        0.000000    0.799571    2.784098
      3          1           0       -0.000000   -0.799571    2.784098
      4          8           0        0.000000   -0.000000   -2.212966
      5          1           0       -0.000000   -0.799571   -2.784098
      6          1           0        0.000000    0.799571   -2.784098
 ---------------------------------------------------------------------

 SCF Done:  E(RHF) =  -33.6483199957     A.U. after   10 cycles
 E2 =    -0.2285887745D+00 EUMP2 =    -0.33876908770171D+02
 CCSD(T)
 CCSD(T)= -0.33894009480D+02

 The electronic state is 1-AG.
 Alpha  occ. eigenvalues --   -1.34387  -1.34384  -0.70010  -0.70005  -0.54011
 Alpha  occ. eigenvalues --   -0.53819  -0.48917  -0.48895
 Alpha virt. eigenvalues --    0.21047   0.21347   0.31386   0.31464   0.81470
 Alpha virt. eigenvalues --    0.81816   0.82457   0.87562   0.87782   0.88365
 Alpha virt. eigenvalues --    1.18372   1.18372   1.22809   1.22916   2.58372

 Mulliken charges:
               1
     1  O   -0.729072
     2  H    0.364536
     3  H    0.364536
     4  O   -0.729072
     5  H    0.364536
     6  H    0.364536
 Sum of Mulliken charges =  -0.00000

 Dipole moment (field-independent basis, Debye):
    X=             -0.0000    Y=              0.0000    Z=              0.0000  Tot=              0.0000
 Quadrupole moment (field-independent basis, Debye-Ang):
   XX=            -14.9847   YY=             -8.0744   ZZ=             11.3320
   XY=              0.0000   XZ=              0.0000   YZ=             -0.0000

 8883356\MP4SDQ=-33.8903742\CCSD=-33.8914343\CCSD(T)=-33.8940095\RMSD=5
 Normal termination of Gaussian 16 at Sun Dec 10 06:27:32 2023.
