 Gaussian 16, Revision A.03,
 Gaussian 16:  ES64L-G16RevA.03 25-Dec-2016

 ------------------
 #p CCSD(T)/CEP-31G
 ------------------

 ------------
 H2O_H2O_2943
 ------------
 Symbolic Z-matrix:
 Charge =  0 Multiplicity = 1

                         Standard orientation:
 ---------------------------------------------------------------------
 Center     Atomic      Atomic             Coordinates (Angstroms)
 Number     Number       Type             X           Y           Z
 ---------------------------------------------------------------------
      1          8           0        0.052834   -2.321035    0.000000
      2          1           0       -0.747837   -2.890624    0.000000
      3          1           0        0.851302   -2.893707    0.000000
      4          8           0        0.052834    2.391345    0.000000
      5          1           0       -0.166994    3.349041    0.000000
      6          1           0       -0.781808    1.872808    0.000000
 ---------------------------------------------------------------------

 SCF Done:  E(RHF) =  -33.6512844555     A.U. after   11 cycles
 E2 =    -0.2284591970D+00 EUMP2 =    -0.33879743652483D+02
 CCSD(T)
 CCSD(T)= -0.33896758922D+02

 The electronic state is 1-A'.
 Alpha  occ. eigenvalues --   -1.35384  -1.34408  -0.71016  -0.70008  -0.55092
 Alpha  occ. eigenvalues --   -0.54102  -0.49948  -0.48974
 Alpha virt. eigenvalues --    0.20278   0.21429   0.30586   0.31578   0.80602
 Alpha virt. eigenvalues --    0.81563   0.83012   0.85019   0.86753   0.88275
 Alpha virt. eigenvalues --    1.17496   1.18484   1.21941   1.22994   2.57525

 Mulliken charges:
               1
     1  O   -0.739423
     2  H    0.366729
     3  H    0.372728
     4  O   -0.738122
     5  H    0.363319
     6  H    0.374769
 Sum of Mulliken charges =  -0.00000

 Dipole moment (field-independent basis, Debye):
    X=             -2.4267    Y=             -1.6689    Z=              0.0000  Tot=              2.9451
 Quadrupole moment (field-independent basis, Debye-Ang):
   XX=             -9.8465   YY=              6.7290   ZZ=            -14.9886
   XY=             -5.3322   XZ=              0.0000   YZ=              0.0000

 \MP4DQ=-33.891109\MP4SDQ=-33.8931396\CCSD=-33.8941935\CCSD(T)=-33.8967
 Normal termination of Gaussian 16 at Sun Dec 10 06:32:58 2023.
