 Gaussian 16, Revision A.03,
 Gaussian 16:  ES64L-G16RevA.03 25-Dec-2016

 ------------------
 #p CCSD(T)/CEP-31G
 ------------------

 ------------
 H2O_H2O_2932
 ------------
 Symbolic Z-matrix:
 Charge =  0 Multiplicity = 1

                         Standard orientation:
 ---------------------------------------------------------------------
 Center     Atomic      Atomic             Coordinates (Angstroms)
 Number     Number       Type             X           Y           Z
 ---------------------------------------------------------------------
      1          8           0        0.025266   -2.352848    0.000000
      2          1           0       -0.774831   -2.923242    0.000000
      3          1           0        0.824310   -2.924717    0.000000
      4          8           0        0.025266    2.364581    0.000000
      5          1           0        0.490572    3.230027    0.000000
      6          1           0       -0.944306    2.524066    0.000000
 ---------------------------------------------------------------------

 SCF Done:  E(RHF) =  -33.6492989501     A.U. after   11 cycles
 E2 =    -0.2285352401D+00 EUMP2 =    -0.33877834190186D+02
 CCSD(T)
 CCSD(T)= -0.33894906629D+02

 The electronic state is 1-A'.
 Alpha  occ. eigenvalues --   -1.34667  -1.34506  -0.70291  -0.70124  -0.54269
 Alpha  occ. eigenvalues --   -0.54086  -0.49201  -0.49041
 Alpha virt. eigenvalues --    0.20921   0.21177   0.31198   0.31350   0.81319
 Alpha virt. eigenvalues --    0.81538   0.83422   0.85802   0.87605   0.88097
 Alpha virt. eigenvalues --    1.18131   1.18289   1.22611   1.22771   2.58208

 Mulliken charges:
               1
     1  O   -0.732453
     2  H    0.364752
     3  H    0.367705
     4  O   -0.731964
     5  H    0.364005
     6  H    0.367955
 Sum of Mulliken charges =   0.00000

 Dipole moment (field-independent basis, Debye):
    X=             -1.1605    Y=             -0.2783    Z=              0.0000  Tot=              1.1934
 Quadrupole moment (field-independent basis, Debye-Ang):
   XX=             -8.4711   YY=             11.9923   ZZ=            -14.9857
   XY=             -2.0817   XZ=              0.0000   YZ=              0.0000

 MP4DQ=-33.8892419\MP4SDQ=-33.891277\CCSD=-33.8923358\CCSD(T)=-33.89490
 Normal termination of Gaussian 16 at Sun Dec 10 06:32:46 2023.
