 Gaussian 16, Revision A.03,
 Gaussian 16:  ES64L-G16RevA.03 25-Dec-2016

 ------------------
 #p CCSD(T)/CEP-31G
 ------------------

 ------------
 H2O_H2O_4772
 ------------
 Symbolic Z-matrix:
 Charge =  0 Multiplicity = 1

                         Standard orientation:
 ---------------------------------------------------------------------
 Center     Atomic      Atomic             Coordinates (Angstroms)
 Number     Number       Type             X           Y           Z
 ---------------------------------------------------------------------
      1          8           0        0.056697   -3.275975    0.000000
      2          1           0       -0.743710   -3.845935    0.000000
      3          1           0        0.855430   -3.848279    0.000000
      4          8           0        0.056697    3.375126    0.000000
      5          1           0       -0.403912    4.243081    0.000000
      6          1           0       -0.614966    2.657927    0.000000
 ---------------------------------------------------------------------

 SCF Done:  E(RHF) =  -33.6519215522     A.U. after   11 cycles
 E2 =    -0.2283755008D+00 EUMP2 =    -0.33880297052961D+02
 CCSD(T)
 CCSD(T)= -0.33897293327D+02

 The electronic state is 1-A'.
 Alpha  occ. eigenvalues --   -1.35652  -1.34994  -0.71286  -0.70617  -0.55394
 Alpha  occ. eigenvalues --   -0.54728  -0.50226  -0.49568
 Alpha virt. eigenvalues --    0.20127   0.20802   0.30368   0.31038   0.80325
 Alpha virt. eigenvalues --    0.80975   0.83337   0.84005   0.86454   0.87156
 Alpha virt. eigenvalues --    1.17255   1.17911   1.21712   1.22380   2.57269

 Mulliken charges:
               1
     1  O   -0.741606
     2  H    0.369626
     3  H    0.371980
     4  O   -0.741454
     5  H    0.367993
     6  H    0.373460
 Sum of Mulliken charges =   0.00000

 Dipole moment (field-independent basis, Debye):
    X=             -2.6175    Y=             -2.3161    Z=              0.0000  Tot=              3.4951
 Quadrupole moment (field-independent basis, Debye-Ang):
   XX=            -10.1289   YY=              9.6503   ZZ=            -14.9889
   XY=             -8.7588   XZ=              0.0000   YZ=              0.0000

 P4DQ=-33.8916503\MP4SDQ=-33.8936775\CCSD=-33.8947326\CCSD(T)=-33.89729
 Normal termination of Gaussian 16 at Sun Dec 10 07:07:36 2023.
