 Gaussian 16, Revision A.03,
 Gaussian 16:  ES64L-G16RevA.03 25-Dec-2016

 ------------------
 #p CCSD(T)/CEP-31G
 ------------------

 ------------
 H2O_H2O_4124
 ------------
 Symbolic Z-matrix:
 Charge =  0 Multiplicity = 1

                         Standard orientation:
 ---------------------------------------------------------------------
 Center     Atomic      Atomic             Coordinates (Angstroms)
 Number     Number       Type             X           Y           Z
 ---------------------------------------------------------------------
      1          8           0        0.057207   -2.922197    0.000000
      2          1           0       -0.743305   -3.492008    0.000000
      3          1           0        0.855835   -3.494647    0.000000
      4          8           0        0.057207    3.036234    0.000000
      5          1           0       -0.512604    3.836748    0.000000
      6          1           0       -0.515243    2.237607    0.000000
 ---------------------------------------------------------------------

 SCF Done:  E(RHF) =  -33.6522130600     A.U. after   11 cycles
 E2 =    -0.2283657548D+00 EUMP2 =    -0.33880578814801D+02
 CCSD(T)
 CCSD(T)= -0.33897566477D+02

 The electronic state is 1-A'.
 Alpha  occ. eigenvalues --   -1.35772  -1.34822  -0.71406  -0.70441  -0.55531
 Alpha  occ. eigenvalues --   -0.54564  -0.50350  -0.49400
 Alpha virt. eigenvalues --    0.20022   0.21004   0.30266   0.31245   0.80202
 Alpha virt. eigenvalues --    0.81135   0.83179   0.84156   0.86313   0.87327
 Alpha virt. eigenvalues --    1.17149   1.18094   1.21603   1.22573   2.57153

 Mulliken charges:
               1
     1  O   -0.742646
     2  H    0.369755
     3  H    0.372892
     4  O   -0.742519
     5  H    0.367183
     6  H    0.375335
 Sum of Mulliken charges =  -0.00000

 Dipole moment (field-independent basis, Debye):
    X=             -2.6377    Y=             -2.6734    Z=              0.0000  Tot=              3.7556
 Quadrupole moment (field-independent basis, Debye-Ang):
   XX=            -10.1654   YY=              5.4631   ZZ=            -14.9896
   XY=             -8.2035   XZ=              0.0000   YZ=              0.0000

 \MP4DQ=-33.8919256\MP4SDQ=-33.8939521\CCSD=-33.8950064\CCSD(T)=-33.897
 Normal termination of Gaussian 16 at Sun Dec 10 06:54:23 2023.
