 Gaussian 16, Revision A.03,
 Gaussian 16:  ES64L-G16RevA.03 25-Dec-2016

 ------------------
 #p CCSD(T)/CEP-31G
 ------------------

 ------------
 H2O_H2O_2361
 ------------
 Symbolic Z-matrix:
 Charge =  0 Multiplicity = 1

                         Standard orientation:
 ---------------------------------------------------------------------
 Center     Atomic      Atomic             Coordinates (Angstroms)
 Number     Number       Type             X           Y           Z
 ---------------------------------------------------------------------
      1          8           0        0.037680   -2.038083    0.000000
      2          1           0       -0.762792   -2.607952    0.000000
      3          1           0        0.836348   -2.610477    0.000000
      4          8           0        0.037680    2.066311    0.000000
      5          1           0        0.263766    3.022548    0.000000
      6          1           0       -0.940198    1.970060    0.000000
 ---------------------------------------------------------------------

 SCF Done:  E(RHF) =  -33.6489012071     A.U. after   11 cycles
 E2 =    -0.2286270331D+00 EUMP2 =    -0.33877528240248D+02
 CCSD(T)
 CCSD(T)= -0.33894614793D+02

 The electronic state is 1-A'.
 Alpha  occ. eigenvalues --   -1.34664  -1.34144  -0.70290  -0.69744  -0.54261
 Alpha  occ. eigenvalues --   -0.53671  -0.49194  -0.48676
 Alpha virt. eigenvalues --    0.20718   0.21684   0.31176   0.31679   0.80300
 Alpha virt. eigenvalues --    0.81140   0.82080   0.86185   0.87858   0.92239
 Alpha virt. eigenvalues --    1.18117   1.18661   1.22591   1.23144   2.58098

 Mulliken charges:
               1
     1  O   -0.731195
     2  H    0.362443
     3  H    0.368830
     4  O   -0.729361
     5  H    0.360175
     6  H    0.369108
 Sum of Mulliken charges =  -0.00000

 Dipole moment (field-independent basis, Debye):
    X=             -1.7221    Y=             -0.6787    Z=              0.0000  Tot=              1.8510
 Quadrupole moment (field-independent basis, Debye-Ang):
   XX=             -8.9786   YY=              7.6980   ZZ=            -14.9859
   XY=             -2.7874   XZ=              0.0000   YZ=              0.0000

 MP4DQ=-33.8889403\MP4SDQ=-33.8909816\CCSD=-33.8920373\CCSD(T)=-33.8946
 Normal termination of Gaussian 16 at Sun Dec 10 07:09:53 2023.
