 Gaussian 16, Revision A.03,
 Gaussian 16:  ES64L-G16RevA.03 25-Dec-2016

 ------------------
 #p CCSD(T)/CEP-31G
 ------------------

 ------------
 H2O_H2O_3602
 ------------
 Symbolic Z-matrix:
 Charge =  0 Multiplicity = 1

                         Standard orientation:
 ---------------------------------------------------------------------
 Center     Atomic      Atomic             Coordinates (Angstroms)
 Number     Number       Type             X           Y           Z
 ---------------------------------------------------------------------
      1          8           0        0.007455   -2.717681    0.000000
      2          1           0       -0.792251   -3.288625    0.000000
      3          1           0        0.806891   -3.289002    0.000000
      4          8           0        0.007455    2.718655    0.000000
      5          1           0        0.725796    3.389096    0.000000
      6          1           0       -0.859715    3.180741    0.000000
 ---------------------------------------------------------------------

 SCF Done:  E(RHF) =  -33.6499219314     A.U. after   11 cycles
 E2 =    -0.2284819504D+00 EUMP2 =    -0.33878403881818D+02
 CCSD(T)
 CCSD(T)= -0.33895457916D+02

 The electronic state is 1-A'.
 Alpha  occ. eigenvalues --   -1.34788  -1.34778  -0.70413  -0.70403  -0.54421
 Alpha  occ. eigenvalues --   -0.54403  -0.49331  -0.49321
 Alpha virt. eigenvalues --    0.20871   0.20901   0.31109   0.31120   0.81218
 Alpha virt. eigenvalues --    0.81236   0.84256   0.84628   0.87453   0.87489
 Alpha virt. eigenvalues --    1.18035   1.18045   1.22508   1.22519   2.58092

 Mulliken charges:
               1
     1  O   -0.734538
     2  H    0.366972
     3  H    0.367566
     4  O   -0.734515
     5  H    0.366862
     6  H    0.367653
 Sum of Mulliken charges =  -0.00000

 Dipole moment (field-independent basis, Debye):
    X=             -0.3435    Y=             -0.0229    Z=              0.0000  Tot=              0.3442
 Quadrupole moment (field-independent basis, Debye-Ang):
   XX=             -8.0851   YY=             16.6982   ZZ=            -14.9860
   XY=             -0.7089   XZ=              0.0000   YZ=              0.0000

 P4DQ=-33.889799\MP4SDQ=-33.8918318\CCSD=-33.8928904\CCSD(T)=-33.895457
 Normal termination of Gaussian 16 at Sun Dec 10 06:44:45 2023.
