 Gaussian 16, Revision A.03,
 Gaussian 16:  ES64L-G16RevA.03 25-Dec-2016

 ------------------
 #p CCSD(T)/CEP-31G
 ------------------

 ------------
 H2O_H2O_3132
 ------------
 Symbolic Z-matrix:
 Charge =  0 Multiplicity = 1

                         Standard orientation:
 ---------------------------------------------------------------------
 Center     Atomic      Atomic             Coordinates (Angstroms)
 Number     Number       Type             X           Y           Z
 ---------------------------------------------------------------------
      1          8           0        0.025266   -2.459214    0.000000
      2          1           0       -0.774809   -3.029640    0.000000
      3          1           0        0.824333   -3.031051    0.000000
      4          8           0        0.025266    2.470949    0.000000
      5          1           0        0.490537    3.336413    0.000000
      6          1           0       -0.944313    2.630396    0.000000
 ---------------------------------------------------------------------

 SCF Done:  E(RHF) =  -33.6496017118     A.U. after   11 cycles
 E2 =    -0.2285125239D+00 EUMP2 =    -0.33878114235732D+02
 CCSD(T)
 CCSD(T)= -0.33895177789D+02

 The electronic state is 1-A'.
 Alpha  occ. eigenvalues --   -1.34741  -1.34594  -0.70366  -0.70214  -0.54355
 Alpha  occ. eigenvalues --   -0.54199  -0.49280  -0.49134
 Alpha virt. eigenvalues --    0.20888   0.21080   0.31140   0.31280   0.81262
 Alpha virt. eigenvalues --    0.81426   0.83845   0.85279   0.87518   0.87809
 Alpha virt. eigenvalues --    1.18069   1.18213   1.22546   1.22691   2.58139

 Mulliken charges:
               1
     1  O   -0.733481
     2  H    0.365432
     3  H    0.368051
     4  O   -0.733081
     5  H    0.364762
     6  H    0.368317
 Sum of Mulliken charges =  -0.00000

 Dipole moment (field-independent basis, Debye):
    X=             -1.1617    Y=             -0.2775    Z=              0.0000  Tot=              1.1944
 Quadrupole moment (field-independent basis, Debye-Ang):
   XX=             -8.4671   YY=             13.0842   ZZ=            -14.9859
   XY=             -2.2018   XZ=              0.0000   YZ=              0.0000

 P4DQ=-33.8895159\MP4SDQ=-33.8915499\CCSD=-33.8926085\CCSD(T)=-33.89517
 Normal termination of Gaussian 16 at Sun Dec 10 06:36:16 2023.
