 Gaussian 16, Revision A.03,
 Gaussian 16:  ES64L-G16RevA.03 25-Dec-2016

 ------------------
 #p CCSD(T)/CEP-31G
 ------------------

 -----------
 H2O_H2O_866
 -----------
 Symbolic Z-matrix:
 Charge =  0 Multiplicity = 1

                         Standard orientation:
 ---------------------------------------------------------------------
 Center     Atomic      Atomic             Coordinates (Angstroms)
 Number     Number       Type             X           Y           Z
 ---------------------------------------------------------------------
      1          8           0        0.049558   -1.224820    0.000000
      2          1           0       -0.751949   -1.793232    0.000000
      3          1           0        0.847184   -1.798666    0.000000
      4          8           0        0.049558    1.281597    0.000000
      5          1           0       -0.041947    2.259929    0.000000
      6          1           0       -0.846219    0.877755    0.000000
 ---------------------------------------------------------------------

 SCF Done:  E(RHF) =  -33.6407029598     A.U. after   11 cycles
 E2 =    -0.2301871998D+00 EUMP2 =    -0.33870890159610D+02
 CCSD(T)
 CCSD(T)= -0.33888185228D+02

 The electronic state is 1-A'.
 Alpha  occ. eigenvalues --   -1.34682  -1.31958  -0.70333  -0.67868  -0.54721
 Alpha  occ. eigenvalues --   -0.50380  -0.49284  -0.46356
 Alpha virt. eigenvalues --    0.19965   0.25406   0.31139   0.33415   0.78152
 Alpha virt. eigenvalues --    0.83401   0.88308   0.89208   0.94079   1.16093
 Alpha virt. eigenvalues --    1.19035   1.21878   1.23014   1.30067   2.61440

 Mulliken charges:
               1
     1  O   -0.741733
     2  H    0.353077
     3  H    0.382346
     4  O   -0.700405
     5  H    0.338669
     6  H    0.368047
 Sum of Mulliken charges =  -0.00000

 Dipole moment (field-independent basis, Debye):
    X=             -2.1218    Y=             -1.4262    Z=              0.0000  Tot=              2.5566
 Quadrupole moment (field-independent basis, Debye-Ang):
   XX=             -9.6575   YY=             -1.5936   ZZ=            -14.9940
   XY=             -2.3662   XZ=              0.0000   YZ=              0.0000

 4DQ=-33.8822473\MP4SDQ=-33.8844113\CCSD=-33.8854596\CCSD(T)=-33.888185
 Normal termination of Gaussian 16 at Sun Dec 10 06:40:57 2023.
