 Gaussian 16, Revision A.03,
 Gaussian 16:  ES64L-G16RevA.03 25-Dec-2016

 ------------------
 #p CCSD(T)/CEP-31G
 ------------------

 ------------
 H2O_H2O_4520
 ------------
 Symbolic Z-matrix:
 Charge =  0 Multiplicity = 1

                         Standard orientation:
 ---------------------------------------------------------------------
 Center     Atomic      Atomic             Coordinates (Angstroms)
 Number     Number       Type             X           Y           Z
 ---------------------------------------------------------------------
      1          8           0        0.055230   -3.150973    0.000000
      2          1           0       -0.745190   -3.720915    0.000000
      3          1           0        0.853951   -3.723293    0.000000
      4          8           0        0.055230    3.235471    0.000000
      5          1           0       -0.288128    4.156130    0.000000
      6          1           0       -0.704313    2.612093    0.000000
 ---------------------------------------------------------------------

 SCF Done:  E(RHF) =  -33.6517529812     A.U. after   11 cycles
 E2 =    -0.2283874001D+00 EUMP2 =    -0.33880140381322D+02
 CCSD(T)
 CCSD(T)= -0.33897141511D+02

 The electronic state is 1-A'.
 Alpha  occ. eigenvalues --   -1.35564  -1.34950  -0.71197  -0.70571  -0.55297
 Alpha  occ. eigenvalues --   -0.54675  -0.50135  -0.49521
 Alpha virt. eigenvalues --    0.20205   0.20836   0.30445   0.31068   0.80417
 Alpha virt. eigenvalues --    0.81022   0.83444   0.84064   0.86555   0.87223
 Alpha virt. eigenvalues --    1.17336   1.17947   1.21794   1.22416   2.57354

 Mulliken charges:
               1
     1  O   -0.741008
     2  H    0.369188
     3  H    0.371820
     4  O   -0.740749
     5  H    0.367568
     6  H    0.373181
 Sum of Mulliken charges =   0.00000

 Dipole moment (field-independent basis, Debye):
    X=             -2.5491    Y=             -1.9761    Z=              0.0000  Tot=              3.2254
 Quadrupole moment (field-independent basis, Debye-Ang):
   XX=            -10.0205   YY=             10.9760   ZZ=            -14.9887
   XY=             -7.9344   XZ=              0.0000   YZ=              0.0000

 \MP4DQ=-33.8914971\MP4SDQ=-33.8935249\CCSD=-33.8945802\CCSD(T)=-33.897
 Normal termination of Gaussian 16 at Sun Dec 10 07:02:47 2023.
