 Gaussian 16, Revision A.03,
 Gaussian 16:  ES64L-G16RevA.03 25-Dec-2016

 ------------------
 #p CCSD(T)/CEP-31G
 ------------------

 ------------
 H2O_H2O_1206
 ------------
 Symbolic Z-matrix:
 Charge =  0 Multiplicity = 1

                         Standard orientation:
 ---------------------------------------------------------------------
 Center     Atomic      Atomic             Coordinates (Angstroms)
 Number     Number       Type             X           Y           Z
 ---------------------------------------------------------------------
      1          8           0        0.021862   -1.437111    0.000000
      2          1           0       -0.778454   -2.007199    0.000000
      3          1           0        0.820687   -2.009286    0.000000
      4          8           0        0.021862    1.445749    0.000000
      5          1           0        0.543095    2.278708    0.000000
      6          1           0       -0.935118    1.668672    0.000000
 ---------------------------------------------------------------------

 SCF Done:  E(RHF) =  -33.6399968094     A.U. after   11 cycles
 E2 =    -0.2293781153D+00 EUMP2 =    -0.33869374924696D+02
 CCSD(T)
 CCSD(T)= -0.33886755166D+02

 The electronic state is 1-A'.
 Alpha  occ. eigenvalues --   -1.33316  -1.32918  -0.68919  -0.68531  -0.53909
 Alpha  occ. eigenvalues --   -0.50560  -0.47904  -0.47180
 Alpha virt. eigenvalues --    0.21133   0.23316   0.32171   0.32502   0.79533
 Alpha virt. eigenvalues --    0.79631   0.82060   0.86617   0.97380   1.11496
 Alpha virt. eigenvalues --    1.19177   1.20618   1.24006   1.24137   2.58996

 Mulliken charges:
               1
     1  O   -0.710080
     2  H    0.350036
     3  H    0.359539
     4  O   -0.705755
     5  H    0.349619
     6  H    0.356641
 Sum of Mulliken charges =  -0.00000

 Dipole moment (field-independent basis, Debye):
    X=             -0.9681    Y=             -0.2148    Z=              0.0000  Tot=              0.9916
 Quadrupole moment (field-independent basis, Debye-Ang):
   XX=             -8.4792   YY=              2.3107   ZZ=            -14.9861
   XY=             -0.9183   XZ=              0.0000   YZ=              0.0000

 \MP4DQ=-33.8809259\MP4SDQ=-33.8830235\CCSD=-33.8841048\CCSD(T)=-33.886
 Normal termination of Gaussian 16 at Sun Dec 10 06:47:18 2023.
