 Gaussian 16, Revision A.03,
 Gaussian 16:  ES64L-G16RevA.03 25-Dec-2016

 ------------------
 #p CCSD(T)/CEP-31G
 ------------------

 ------------
 H2O_H2O_1141
 ------------
 Symbolic Z-matrix:
 Charge =  0 Multiplicity = 1

                         Standard orientation:
 ---------------------------------------------------------------------
 Center     Atomic      Atomic             Coordinates (Angstroms)
 Number     Number       Type             X           Y           Z
 ---------------------------------------------------------------------
      1          8           0        0.049548   -1.371057    0.000000
      2          1           0       -0.751757   -1.939754    0.000000
      3          1           0        0.847378   -1.944619    0.000000
      4          8           0        0.049548    1.427869    0.000000
      5          1           0       -0.042305    2.406168    0.000000
      6          1           0       -0.846086    1.023709    0.000000
 ---------------------------------------------------------------------

 SCF Done:  E(RHF) =  -33.6459101648     A.U. after   11 cycles
 E2 =    -0.2295827942D+00 EUMP2 =    -0.33875492959043D+02
 CCSD(T)
 CCSD(T)= -0.33892748230D+02

 The electronic state is 1-A'.
 Alpha  occ. eigenvalues --   -1.34761  -1.32534  -0.70404  -0.68173  -0.54602
 Alpha  occ. eigenvalues --   -0.51582  -0.49317  -0.47021
 Alpha virt. eigenvalues --    0.19937   0.24496   0.31051   0.33063   0.78511
 Alpha virt. eigenvalues --    0.79612   0.85518   0.86676   0.91704   1.15884
 Alpha virt. eigenvalues --    1.18098   1.22014   1.22636   1.27852   2.62389

 Mulliken charges:
               1
     1  O   -0.734189
     2  H    0.354940
     3  H    0.377649
     4  O   -0.713253
     5  H    0.343347
     6  H    0.371506
 Sum of Mulliken charges =  -0.00000

 Dipole moment (field-independent basis, Debye):
    X=             -2.1768    Y=             -1.4279    Z=              0.0000  Tot=              2.6034
 Quadrupole moment (field-independent basis, Debye-Ang):
   XX=             -9.6472   YY=             -0.1217   ZZ=            -14.9910
   XY=             -2.6854   XZ=              0.0000   YZ=              0.0000

 MP4DQ=-33.8869067\MP4SDQ=-33.8890327\CCSD=-33.8900857\CCSD(T)=-33.8927
 Normal termination of Gaussian 16 at Sun Dec 10 06:46:05 2023.
