 Gaussian 16, Revision A.03,
 Gaussian 16:  ES64L-G16RevA.03 25-Dec-2016

 ------------------
 #p CCSD(T)/CEP-31G
 ------------------

 ------------
 H2O_H2O_1375
 ------------
 Symbolic Z-matrix:
 Charge =  0 Multiplicity = 1

                         Standard orientation:
 ---------------------------------------------------------------------
 Center     Atomic      Atomic             Coordinates (Angstroms)
 Number     Number       Type             X           Y           Z
 ---------------------------------------------------------------------
      1          8           0        0.000000   -0.000000    1.534874
      2          1           0        0.000000    0.799571    2.106006
      3          1           0       -0.000000   -0.799571    2.106006
      4          8           0        0.000000   -0.000000   -1.534874
      5          1           0       -0.000000   -0.799571   -2.106006
      6          1           0        0.000000    0.799571   -2.106006
 ---------------------------------------------------------------------

 SCF Done:  E(RHF) =  -33.6411477042     A.U. after   10 cycles
 E2 =    -0.2291659594D+00 EUMP2 =    -0.33870313663542D+02
 CCSD(T)
 CCSD(T)= -0.33887657953D+02

 The electronic state is 1-AG.
 Alpha  occ. eigenvalues --   -1.33334  -1.33181  -0.68939  -0.68805  -0.53660
 Alpha  occ. eigenvalues --   -0.51128  -0.47911  -0.47463
 Alpha virt. eigenvalues --    0.21274   0.22857   0.32034   0.32439   0.77895
 Alpha virt. eigenvalues --    0.80126   0.82820   0.85685   0.96980   1.06487
 Alpha virt. eigenvalues --    1.19184   1.19523   1.23701   1.24209   2.59876

 Mulliken charges:
               1
     1  O   -0.709282
     2  H    0.354641
     3  H    0.354641
     4  O   -0.709282
     5  H    0.354641
     6  H    0.354641
 Sum of Mulliken charges =   0.00000

 Dipole moment (field-independent basis, Debye):
    X=             -0.0000    Y=              0.0000    Z=              0.0000  Tot=              0.0000
 Quadrupole moment (field-independent basis, Debye-Ang):
   XX=            -14.9841   YY=             -8.1738   ZZ=              3.7399
   XY=              0.0000   XZ=             -0.0000   YZ=             -0.0000

 -33.8818624\MP4SDQ=-33.8839475\CCSD=-33.8850242\CCSD(T)=-33.887658\RMS
 Normal termination of Gaussian 16 at Sun Dec 10 06:50:27 2023.
