 Gaussian 16, Revision A.03,
 Gaussian 16:  ES64L-G16RevA.03 25-Dec-2016

 ------------------
 #p CCSD(T)/CEP-31G
 ------------------

 -----------
 H2O_H2O_127
 -----------
 Symbolic Z-matrix:
 Charge =  0 Multiplicity = 1

                         Standard orientation:
 ---------------------------------------------------------------------
 Center     Atomic      Atomic             Coordinates (Angstroms)
 Number     Number       Type             X           Y           Z
 ---------------------------------------------------------------------
      1          8           0        0.007455   -0.869554    0.000000
      2          1           0       -0.792537   -1.440096    0.000000
      3          1           0        0.806605   -1.441275    0.000000
      4          8           0        0.007455    0.870520    0.000000
      5          1           0        0.726132    1.540601    0.000000
      6          1           0       -0.859483    1.333040    0.000000
 ---------------------------------------------------------------------

 SCF Done:  E(RHF) =  -33.5213310948     A.U. after   11 cycles
 E2 =    -0.2366185088D+00 EUMP2 =    -0.33757949603672D+02
 CCSD(T)
 CCSD(T)= -0.33774541695D+02

 The electronic state is 1-A'.
 Alpha  occ. eigenvalues --   -1.35474  -1.29214  -0.69627  -0.65775  -0.63957
 Alpha  occ. eigenvalues --   -0.50352  -0.42693  -0.34105
 Alpha virt. eigenvalues --    0.21315   0.27879   0.32075   0.33697   0.79410
 Alpha virt. eigenvalues --    0.82101   0.89088   0.89546   1.06156   1.20060
 Alpha virt. eigenvalues --    1.20780   1.24548   1.28126   1.35261   2.49795

 Mulliken charges:
               1
     1  O   -0.695346
     2  H    0.341232
     3  H    0.353511
     4  O   -0.692339
     5  H    0.347691
     6  H    0.345250
 Sum of Mulliken charges =  -0.00000

 Dipole moment (field-independent basis, Debye):
    X=             -0.2732    Y=             -0.0264    Z=              0.0000  Tot=              0.2745
 Quadrupole moment (field-independent basis, Debye-Ang):
   XX=             -8.5037   YY=             -6.6384   ZZ=            -15.0362
   XY=             -0.1627   XZ=              0.0000   YZ=              0.0000

 Q=-33.7678318\MP4SDQ=-33.7704714\CCSD=-33.7711752\CCSD(T)=-33.7745417\
 Normal termination of Gaussian 16 at Sun Dec 10 06:27:07 2023.
