 Gaussian 16, Revision A.03,
 Gaussian 16:  ES64L-G16RevA.03 25-Dec-2016

 ------------------
 #p CCSD(T)/CEP-31G
 ------------------

 ------------
 H2O_H2O_1731
 ------------
 Symbolic Z-matrix:
 Charge =  0 Multiplicity = 1

                         Standard orientation:
 ---------------------------------------------------------------------
 Center     Atomic      Atomic             Coordinates (Angstroms)
 Number     Number       Type             X           Y           Z
 ---------------------------------------------------------------------
      1          8           0        0.021861   -1.716320    0.000000
      2          1           0       -0.778334   -2.286577    0.000000
      3          1           0        0.820807   -2.288326    0.000000
      4          8           0        0.021861    1.724967    0.000000
      5          1           0        0.542917    2.558038    0.000000
      6          1           0       -0.935166    1.947688    0.000000
 ---------------------------------------------------------------------

 SCF Done:  E(RHF) =  -33.6451478074     A.U. after   11 cycles
 E2 =    -0.2289215326D+00 EUMP2 =    -0.33874069340017D+02
 CCSD(T)
 CCSD(T)= -0.33891287971D+02

 The electronic state is 1-A'.
 Alpha  occ. eigenvalues --   -1.33886  -1.33653  -0.69506  -0.69259  -0.53723
 Alpha  occ. eigenvalues --   -0.52491  -0.48402  -0.48097
 Alpha virt. eigenvalues --    0.20981   0.22345   0.31752   0.32020   0.76390
 Alpha virt. eigenvalues --    0.80716   0.83885   0.85103   0.91677   1.02063
 Alpha virt. eigenvalues --    1.18752   1.19081   1.23277   1.23622   2.58426

 Mulliken charges:
               1
     1  O   -0.719334
     2  H    0.356722
     3  H    0.362676
     4  O   -0.717815
     5  H    0.355445
     6  H    0.362306
 Sum of Mulliken charges =   0.00000

 Dipole moment (field-independent basis, Debye):
    X=             -0.9901    Y=             -0.2140    Z=              0.0000  Tot=              1.0129
 Quadrupole moment (field-independent basis, Debye-Ang):
   XX=             -8.4253   YY=              5.4836   ZZ=            -14.9838
   XY=             -1.1748   XZ=              0.0000   YZ=              0.0000

 \MP4DQ=-33.8855513\MP4SDQ=-33.8876215\CCSD=-33.8886818\CCSD(T)=-33.891
 Normal termination of Gaussian 16 at Sun Dec 10 06:57:03 2023.
