 Gaussian 16, Revision A.03,
 Gaussian 16:  ES64L-G16RevA.03 25-Dec-2016

 ------------------
 #p CCSD(T)/CEP-31G
 ------------------

 ------------
 H2O_H2O_1256
 ------------
 Symbolic Z-matrix:
 Charge =  0 Multiplicity = 1

                         Standard orientation:
 ---------------------------------------------------------------------
 Center     Atomic      Atomic             Coordinates (Angstroms)
 Number     Number       Type             X           Y           Z
 ---------------------------------------------------------------------
      1          8           0        0.021862   -1.463702    0.000000
      2          1           0       -0.778441   -2.033809    0.000000
      3          1           0        0.820700   -2.035858    0.000000
      4          8           0        0.021862    1.472341    0.000000
      5          1           0        0.543075    2.305313    0.000000
      6          1           0       -0.935123    1.695242    0.000000
 ---------------------------------------------------------------------

 SCF Done:  E(RHF) =  -33.6406954945     A.U. after   11 cycles
 E2 =    -0.2293171239D+00 EUMP2 =    -0.33870012618413D+02
 CCSD(T)
 CCSD(T)= -0.33887378426D+02

 The electronic state is 1-A'.
 Alpha  occ. eigenvalues --   -1.33375  -1.33005  -0.68982  -0.68615  -0.53853
 Alpha  occ. eigenvalues --   -0.50812  -0.47951  -0.47292
 Alpha virt. eigenvalues --    0.21113   0.23204   0.32124   0.32453   0.78780
 Alpha virt. eigenvalues --    0.79727   0.82344   0.86316   0.96710   1.10961
 Alpha virt. eigenvalues --    1.19130   1.20370   1.23914   1.24078   2.59255

 Mulliken charges:
               1
     1  O   -0.710848
     2  H    0.350705
     3  H    0.359760
     4  O   -0.706987
     5  H    0.350062
     6  H    0.357308
 Sum of Mulliken charges =   0.00000

 Dipole moment (field-independent basis, Debye):
    X=             -0.9713    Y=             -0.2151    Z=              0.0000  Tot=              0.9949
 Quadrupole moment (field-independent basis, Debye-Ang):
   XX=             -8.4732   YY=              2.6260   ZZ=            -14.9855
   XY=             -0.9429   XZ=              0.0000   YZ=              0.0000

 \MP4DQ=-33.8815598\MP4SDQ=-33.8836551\CCSD=-33.8847338\CCSD(T)=-33.887
 Normal termination of Gaussian 16 at Sun Dec 10 06:48:14 2023.
