 Gaussian 16, Revision A.03,
 Gaussian 16:  ES64L-G16RevA.03 25-Dec-2016

 ------------------
 #p CCSD(T)/CEP-31G
 ------------------

 -----------
 H2O_H2O_817
 -----------
 Symbolic Z-matrix:
 Charge =  0 Multiplicity = 1

                         Standard orientation:
 ---------------------------------------------------------------------
 Center     Atomic      Atomic             Coordinates (Angstroms)
 Number     Number       Type             X           Y           Z
 ---------------------------------------------------------------------
      1          8           0        0.051337   -1.194666    0.000000
      2          1           0       -0.750282   -1.762919    0.000000
      3          1           0        0.848850   -1.768669    0.000000
      4          8           0        0.051337    1.258002    0.000000
      5          1           0       -0.103766    2.228285    0.000000
      6          1           0       -0.816201    0.796610    0.000000
 ---------------------------------------------------------------------

 SCF Done:  E(RHF) =  -33.6400562418     A.U. after   11 cycles
 E2 =    -0.2303475955D+00 EUMP2 =    -0.33870403837310D+02
 CCSD(T)
 CCSD(T)= -0.33887657061D+02

 The electronic state is 1-A'.
 Alpha  occ. eigenvalues --   -1.34969  -1.31762  -0.70634  -0.67870  -0.54719
 Alpha  occ. eigenvalues --   -0.50364  -0.49574  -0.46173
 Alpha virt. eigenvalues --    0.19815   0.25778   0.30922   0.33720   0.77970
 Alpha virt. eigenvalues --    0.83650   0.88552   0.91037   0.94262   1.15585
 Alpha virt. eigenvalues --    1.19210   1.21538   1.23261   1.30406   2.62966

 Mulliken charges:
               1
     1  O   -0.748306
     2  H    0.354458
     3  H    0.386714
     4  O   -0.699827
     5  H    0.336394
     6  H    0.370567
 Sum of Mulliken charges =  -0.00000

 Dipole moment (field-independent basis, Debye):
    X=             -2.1840    Y=             -1.5999    Z=              0.0000  Tot=              2.7073
 Quadrupole moment (field-independent basis, Debye-Ang):
   XX=             -9.7605   YY=             -2.1479   ZZ=            -14.9957
   XY=             -2.4847   XZ=              0.0000   YZ=              0.0000

 P4DQ=-33.8816937\MP4SDQ=-33.8838715\CCSD=-33.8849075\CCSD(T)=-33.88765
 Normal termination of Gaussian 16 at Sun Dec 10 06:40:01 2023.
