 Gaussian 16, Revision A.03,
 Gaussian 16:  ES64L-G16RevA.03 25-Dec-2016

 ------------------
 #p CCSD(T)/CEP-31G
 ------------------

 ------------
 H2O_H2O_4587
 ------------
 Symbolic Z-matrix:
 Charge =  0 Multiplicity = 1

                         Standard orientation:
 ---------------------------------------------------------------------
 Center     Atomic      Atomic             Coordinates (Angstroms)
 Number     Number       Type             X           Y           Z
 ---------------------------------------------------------------------
      1          8           0        0.040403   -3.218628    0.000000
      2          1           0       -0.759781   -3.788900    0.000000
      3          1           0        0.839360   -3.790619    0.000000
      4          8           0        0.040403    3.251997    0.000000
      5          1           0        0.202975    4.221056    0.000000
      6          1           0       -0.929004    3.091508    0.000000
 ---------------------------------------------------------------------

 SCF Done:  E(RHF) =  -33.6511075055     A.U. after   11 cycles
 E2 =    -0.2284189630D+00 EUMP2 =    -0.33879526468525D+02
 CCSD(T)
 CCSD(T)= -0.33896546417D+02

 The electronic state is 1-A'.
 Alpha  occ. eigenvalues --   -1.35238  -1.35000  -0.70868  -0.70624  -0.54935
 Alpha  occ. eigenvalues --   -0.54696  -0.49800  -0.49561
 Alpha virt. eigenvalues --    0.20495   0.20738   0.30730   0.30966   0.80753
 Alpha virt. eigenvalues --    0.80989   0.83844   0.84079   0.86931   0.87202
 Alpha virt. eigenvalues --    1.17634   1.17871   1.22098   1.22336   2.57668

 Mulliken charges:
               1
     1  O   -0.738699
     2  H    0.368374
     3  H    0.370325
     4  O   -0.738449
     5  H    0.367638
     6  H    0.370811
 Sum of Mulliken charges =   0.00000

 Dipole moment (field-independent basis, Debye):
    X=             -1.8653    Y=             -0.7800    Z=              0.0000  Tot=              2.0218
 Quadrupole moment (field-independent basis, Debye-Ang):
   XX=             -9.0967   YY=             18.2352   ZZ=            -14.9875
   XY=             -5.2129   XZ=              0.0000   YZ=              0.0000

 \MP4DQ=-33.890897\MP4SDQ=-33.8929265\CCSD=-33.8939831\CCSD(T)=-33.8965
 Normal termination of Gaussian 16 at Sun Dec 10 07:04:13 2023.
