 Gaussian 16, Revision A.03,
 Gaussian 16:  ES64L-G16RevA.03 25-Dec-2016

 ------------------
 #p CCSD(T)/CEP-31G
 ------------------

 -----------
 H2O_H2O_225
 -----------
 Symbolic Z-matrix:
 Charge =  0 Multiplicity = 1

                         Standard orientation:
 ---------------------------------------------------------------------
 Center     Atomic      Atomic             Coordinates (Angstroms)
 Number     Number       Type             X           Y           Z
 ---------------------------------------------------------------------
      1          8           0        0.000000   -0.000000    0.923262
      2          1           0        0.000000    0.799571    1.494394
      3          1           0       -0.000000   -0.799571    1.494394
      4          8           0        0.000000   -0.000000   -0.923262
      5          1           0       -0.000000   -0.799571   -1.494394
      6          1           0        0.000000    0.799571   -1.494394
 ---------------------------------------------------------------------

 SCF Done:  E(RHF) =  -33.5563516399     A.U. after   10 cycles
 E2 =    -0.2345080827D+00 EUMP2 =    -0.33790859722616D+02
 CCSD(T)
 CCSD(T)= -0.33807720147D+02

 The electronic state is 1-AG.
 Alpha  occ. eigenvalues --   -1.34188  -1.29663  -0.68806  -0.65782  -0.61840
 Alpha  occ. eigenvalues --   -0.49163  -0.43158  -0.37118
 Alpha virt. eigenvalues --    0.21489   0.27063   0.32519   0.33633   0.78650
 Alpha virt. eigenvalues --    0.81707   0.90006   0.90888   1.07174   1.20465
 Alpha virt. eigenvalues --    1.21050   1.24188   1.28142   1.30424   2.48274

 Mulliken charges:
               1
     1  O   -0.696639
     2  H    0.348319
     3  H    0.348319
     4  O   -0.696639
     5  H    0.348319
     6  H    0.348319
 Sum of Mulliken charges =  -0.00000

 Dipole moment (field-independent basis, Debye):
    X=             -0.0000    Y=              0.0000    Z=              0.0000  Tot=              0.0000
 Quadrupole moment (field-independent basis, Debye-Ang):
   XX=            -15.0381   YY=             -8.4055   ZZ=             -5.4117
   XY=              0.0000   XZ=             -0.0000   YZ=             -0.0000

 33.8012492\MP4SDQ=-33.8036991\CCSD=-33.8045527\CCSD(T)=-33.8077201\RMS
 Normal termination of Gaussian 16 at Sun Dec 10 06:28:57 2023.
