 Gaussian 16, Revision A.03,
 Gaussian 16:  ES64L-G16RevA.03 25-Dec-2016

 ------------------
 #p CCSD(T)/CEP-31G
 ------------------

 ------------
 H2O_H2O_4750
 ------------
 Symbolic Z-matrix:
 Charge =  0 Multiplicity = 1

                         Standard orientation:
 ---------------------------------------------------------------------
 Center     Atomic      Atomic             Coordinates (Angstroms)
 Number     Number       Type             X           Y           Z
 ---------------------------------------------------------------------
      1          8           0        0.000000   -0.000000    3.329822
      2          1           0        0.000000    0.799571    3.900954
      3          1           0       -0.000000   -0.799571    3.900954
      4          8           0        0.000000   -0.000000   -3.329822
      5          1           0       -0.000000   -0.799571   -3.900954
      6          1           0        0.000000    0.799571   -3.900954
 ---------------------------------------------------------------------

 SCF Done:  E(RHF) =  -33.6507757355     A.U. after   10 cycles
 E2 =    -0.2284306087D+00 EUMP2 =    -0.33879206344175D+02
 CCSD(T)
 CCSD(T)= -0.33896235884D+02

 The electronic state is 1-AG.
 Alpha  occ. eigenvalues --   -1.35052  -1.35052  -0.70680  -0.70680  -0.54731
 Alpha  occ. eigenvalues --   -0.54731  -0.49608  -0.49608
 Alpha virt. eigenvalues --    0.20663   0.20663   0.30895   0.30895   0.80946
 Alpha virt. eigenvalues --    0.80946   0.84066   0.84070   0.87143   0.87143
 Alpha virt. eigenvalues --    1.17806   1.17806   1.22272   1.22272   2.57848

 Mulliken charges:
               1
     1  O   -0.737501
     2  H    0.368751
     3  H    0.368751
     4  O   -0.737501
     5  H    0.368751
     6  H    0.368751
 Sum of Mulliken charges =   0.00000

 Dipole moment (field-independent basis, Debye):
    X=             -0.0000    Y=              0.0000    Z=              0.0000  Tot=              0.0000
 Quadrupole moment (field-independent basis, Debye-Ang):
   XX=            -14.9869   YY=             -8.0356   ZZ=             23.3377
   XY=              0.0000   XZ=              0.0000   YZ=             -0.0000

 33.8905839\MP4SDQ=-33.8926142\CCSD=-33.8936716\CCSD(T)=-33.8962359\RMS
 Normal termination of Gaussian 16 at Sun Dec 10 07:07:12 2023.
