 Gaussian 16, Revision A.03,
 Gaussian 16:  ES64L-G16RevA.03 25-Dec-2016

 ------------------
 #p CCSD(T)/CEP-31G
 ------------------

 ------------
 H2O_H2O_2239
 ------------
 Symbolic Z-matrix:
 Charge =  0 Multiplicity = 1

                         Standard orientation:
 ---------------------------------------------------------------------
 Center     Atomic      Atomic             Coordinates (Angstroms)
 Number     Number       Type             X           Y           Z
 ---------------------------------------------------------------------
      1          8           0        0.045355   -1.962760    0.000000
      2          1           0       -0.755337   -2.532319    0.000000
      3          1           0        0.843802   -2.535462    0.000000
      4          8           0        0.045355    2.007271    0.000000
      5          1           0        0.080923    2.989229    0.000000
      6          1           0       -0.895065    1.722459    0.000000
 ---------------------------------------------------------------------

 SCF Done:  E(RHF) =  -33.6495394207     A.U. after   11 cycles
 E2 =    -0.2286409804D+00 EUMP2 =    -0.33878180401163D+02
 CCSD(T)
 CCSD(T)= -0.33895251124D+02

 The electronic state is 1-A'.
 Alpha  occ. eigenvalues --   -1.34891  -1.34005  -0.70521  -0.69591  -0.54513
 Alpha  occ. eigenvalues --   -0.53579  -0.49431  -0.48549
 Alpha virt. eigenvalues --    0.20416   0.21955   0.30959   0.31866   0.79166
 Alpha virt. eigenvalues --    0.80860   0.82247   0.85938   0.87562   0.94111
 Alpha virt. eigenvalues --    1.17913   1.18927   1.22336   1.23395   2.57780

 Mulliken charges:
               1
     1  O   -0.733408
     2  H    0.362615
     3  H    0.370978
     4  O   -0.730685
     5  H    0.358838
     6  H    0.371662
 Sum of Mulliken charges =  -0.00000

 Dipole moment (field-independent basis, Debye):
    X=             -2.0694    Y=             -1.0748    Z=              0.0000  Tot=              2.3319
 Quadrupole moment (field-independent basis, Debye-Ang):
   XX=             -9.3811   YY=              5.9073   ZZ=            -14.9870
   XY=             -3.4516   XZ=              0.0000   YZ=              0.0000

 P4DQ=-33.889577\MP4SDQ=-33.8916203\CCSD=-33.8926725\CCSD(T)=-33.895251
 Normal termination of Gaussian 16 at Sun Dec 10 07:07:42 2023.
