 Gaussian 16, Revision A.03,
 Gaussian 16:  ES64L-G16RevA.03 25-Dec-2016

 ------------------
 #p CCSD(T)/CEP-31G
 ------------------

 ------------
 H2O_H2O_2696
 ------------
 Symbolic Z-matrix:
 Charge =  0 Multiplicity = 1

                         Standard orientation:
 ---------------------------------------------------------------------
 Center     Atomic      Atomic             Coordinates (Angstroms)
 Number     Number       Type             X           Y           Z
 ---------------------------------------------------------------------
      1          8           0        0.056115   -2.176460    0.000000
      2          1           0       -0.744693   -2.745856    0.000000
      3          1           0        0.854445   -2.749325    0.000000
      4          8           0        0.056115    2.268159    0.000000
      5          1           0       -0.346109    3.164663    0.000000
      6          1           0       -0.661490    1.596928    0.000000
 ---------------------------------------------------------------------

 SCF Done:  E(RHF) =  -33.6521189758     A.U. after   11 cycles
 E2 =    -0.2284528662D+00 EUMP2 =    -0.33880571841995D+02
 CCSD(T)
 CCSD(T)= -0.33897563634D+02

 The electronic state is 1-A'.
 Alpha  occ. eigenvalues --   -1.35661  -1.34211  -0.71297  -0.69799  -0.55417
 Alpha  occ. eigenvalues --   -0.53934  -0.50236  -0.48788
 Alpha virt. eigenvalues --    0.19902   0.21802   0.30336   0.31867   0.80307
 Alpha virt. eigenvalues --    0.81747   0.82212   0.85296   0.86371   0.88960
 Alpha virt. eigenvalues --    1.17253   1.18808   1.21661   1.23530   2.57242

 Mulliken charges:
               1
     1  O   -0.742225
     2  H    0.367555
     3  H    0.374849
     4  O   -0.740992
     5  H    0.362264
     6  H    0.378549
 Sum of Mulliken charges =  -0.00000

 Dipole moment (field-independent basis, Debye):
    X=             -2.5733    Y=             -2.1908    Z=              0.0000  Tot=              3.3796
 Quadrupole moment (field-independent basis, Debye-Ang):
   XX=            -10.0748   YY=              3.6691   ZZ=            -14.9902
   XY=             -5.7079   XZ=              0.0000   YZ=              0.0000

 \MP4DQ=-33.8919159\MP4SDQ=-33.8939479\CCSD=-33.8949976\CCSD(T)=-33.897
 Normal termination of Gaussian 16 at Sun Dec 10 06:28:23 2023.
