 Gaussian 16, Revision A.03,
 Gaussian 16:  ES64L-G16RevA.03 25-Dec-2016

 ------------------
 #p CCSD(T)/CEP-31G
 ------------------

 ------------
 H2O_H2O_2133
 ------------
 Symbolic Z-matrix:
 Charge =  0 Multiplicity = 1

                         Standard orientation:
 ---------------------------------------------------------------------
 Center     Atomic      Atomic             Coordinates (Angstroms)
 Number     Number       Type             X           Y           Z
 ---------------------------------------------------------------------
      1          8           0        0.028566   -1.925479    0.000000
      2          1           0       -0.771730   -2.495593    0.000000
      3          1           0        0.827410   -2.497627    0.000000
      4          8           0        0.028566    1.940709    0.000000
      5          1           0        0.436587    2.834591    0.000000
      6          1           0       -0.949327    2.036782    0.000000
 ---------------------------------------------------------------------

 SCF Done:  E(RHF) =  -33.6475558388     A.U. after   11 cycles
 E2 =    -0.2287200524D+00 EUMP2 =    -0.33876275891167D+02
 CCSD(T)
 CCSD(T)= -0.33893404937D+02

 The electronic state is 1-A'.
 Alpha  occ. eigenvalues --   -1.34325  -1.34007  -0.69948  -0.69612  -0.53948
 Alpha  occ. eigenvalues --   -0.53342  -0.48840  -0.48516
 Alpha virt. eigenvalues --    0.20877   0.21857   0.31453   0.31744   0.78669
 Alpha virt. eigenvalues --    0.81164   0.82568   0.86308   0.88933   0.94985
 Alpha virt. eigenvalues --    1.18403   1.18743   1.22915   1.23244   2.58171

 Mulliken charges:
               1
     1  O   -0.726645
     2  H    0.360512
     3  H    0.366216
     4  O   -0.725183
     5  H    0.358912
     6  H    0.366188
 Sum of Mulliken charges =   0.00000

 Dipole moment (field-independent basis, Debye):
    X=             -1.3025    Y=             -0.3697    Z=              0.0000  Tot=              1.3539
 Quadrupole moment (field-independent basis, Debye-Ang):
   XX=             -8.6085   YY=              7.3714   ZZ=            -14.9848
   XY=             -1.8499   XZ=              0.0000   YZ=              0.0000

 \MP4DQ=-33.8877126\MP4SDQ=-33.8897624\CCSD=-33.890819\CCSD(T)=-33.8934
 Normal termination of Gaussian 16 at Sun Dec 10 07:05:48 2023.
