 Gaussian 16, Revision A.03,
 Gaussian 16:  ES64L-G16RevA.03 25-Dec-2016

 ------------------
 #p CCSD(T)/CEP-31G
 ------------------

 ------------
 H2O_H2O_4565
 ------------
 Symbolic Z-matrix:
 Charge =  0 Multiplicity = 1

                         Standard orientation:
 ---------------------------------------------------------------------
 Center     Atomic      Atomic             Coordinates (Angstroms)
 Number     Number       Type             X           Y           Z
 ---------------------------------------------------------------------
      1          8           0        0.047520   -3.195950    0.000000
      2          1           0       -0.752775   -3.766066    0.000000
      3          1           0        0.846366   -3.768096    0.000000
      4          8           0        0.047520    3.246595    0.000000
      5          1           0        0.018105    4.228756    0.000000
      6          1           0       -0.872017    2.900246    0.000000
 ---------------------------------------------------------------------

 SCF Done:  E(RHF) =  -33.6513216016     A.U. after   11 cycles
 E2 =    -0.2284092943D+00 EUMP2 =    -0.33879730895936D+02
 CCSD(T)
 CCSD(T)= -0.33896744622D+02

 The electronic state is 1-A'.
 Alpha  occ. eigenvalues --   -1.35348  -1.34984  -0.70979  -0.70606  -0.55057
 Alpha  occ. eigenvalues --   -0.54690  -0.49913  -0.49548
 Alpha virt. eigenvalues --    0.20397   0.20769   0.30634   0.30997   0.80640
 Alpha virt. eigenvalues --    0.81000   0.83709   0.84072   0.86804   0.87213
 Alpha virt. eigenvalues --    1.17534   1.17896   1.21995   1.22361   2.57562

 Mulliken charges:
               1
     1  O   -0.739466
     2  H    0.368586
     3  H    0.370880
     4  O   -0.739164
     5  H    0.367551
     6  H    0.371613
 Sum of Mulliken charges =  -0.00000

 Dipole moment (field-independent basis, Debye):
    X=             -2.1937    Y=             -1.1840    Z=              0.0000  Tot=              2.4928
 Quadrupole moment (field-independent basis, Debye-Ang):
   XX=             -9.5038   YY=             15.8571   ZZ=            -14.9879
   XY=             -6.3665   XZ=              0.0000   YZ=              0.0000

 6\MP4DQ=-33.8910969\MP4SDQ=-33.8931258\CCSD=-33.894182\CCSD(T)=-33.896
 Normal termination of Gaussian 16 at Sun Dec 10 07:03:49 2023.
