 Gaussian 16, Revision A.03,
 Gaussian 16:  ES64L-G16RevA.03 25-Dec-2016

 ------------------
 #p CCSD(T)/CEP-31G
 ------------------

 ------------
 H2O_H2O_2967
 ------------
 Symbolic Z-matrix:
 Charge =  0 Multiplicity = 1

                         Standard orientation:
 ---------------------------------------------------------------------
 Center     Atomic      Atomic             Coordinates (Angstroms)
 Number     Number       Type             X           Y           Z
 ---------------------------------------------------------------------
      1          8           0        0.051282   -2.338021    0.000000
      2          1           0       -0.749350   -2.907665    0.000000
      3          1           0        0.849789   -2.910640    0.000000
      4          8           0        0.051282    2.401536    0.000000
      5          1           0       -0.105504    3.371548    0.000000
      6          1           0       -0.815454    1.938639    0.000000
 ---------------------------------------------------------------------

 SCF Done:  E(RHF) =  -33.6510597155     A.U. after   11 cycles
 E2 =    -0.2284671706D+00 EUMP2 =    -0.33879526886097D+02
 CCSD(T)
 CCSD(T)= -0.33896548684D+02

 The electronic state is 1-A'.
 Alpha  occ. eigenvalues --   -1.35304  -1.34434  -0.70935  -0.70035  -0.54999
 Alpha  occ. eigenvalues --   -0.54118  -0.49864  -0.48997
 Alpha virt. eigenvalues --    0.20361   0.21374   0.30655   0.31532   0.80685
 Alpha virt. eigenvalues --    0.81543   0.83121   0.85019   0.86855   0.88238
 Alpha virt. eigenvalues --    1.17567   1.18442   1.22018   1.22937   2.57600

 Mulliken charges:
               1
     1  O   -0.738642
     2  H    0.366450
     3  H    0.372216
     4  O   -0.737336
     5  H    0.363402
     6  H    0.373911
 Sum of Mulliken charges =  -0.00000

 Dipole moment (field-independent basis, Debye):
    X=             -2.3557    Y=             -1.5065    Z=              0.0000  Tot=              2.7962
 Quadrupole moment (field-independent basis, Debye-Ang):
   XX=             -9.7429   YY=              7.4997   ZZ=            -14.9882
   XY=             -5.0956   XZ=              0.0000   YZ=              0.0000

 \MP4DQ=-33.8908973\MP4SDQ=-33.8929283\CCSD=-33.8939828\CCSD(T)=-33.896
 Normal termination of Gaussian 16 at Sun Dec 10 06:33:23 2023.
