 Gaussian 16, Revision A.03,
 Gaussian 16:  ES64L-G16RevA.03 25-Dec-2016

 ------------------
 #p CCSD(T)/CEP-31G
 ------------------

 ------------
 H2O_H2O_2165
 ------------
 Symbolic Z-matrix:
 Charge =  0 Multiplicity = 1

                         Standard orientation:
 ---------------------------------------------------------------------
 Center     Atomic      Atomic             Coordinates (Angstroms)
 Number     Number       Type             X           Y           Z
 ---------------------------------------------------------------------
      1          8           0        0.047541   -1.919583    0.000000
      2          1           0       -0.753229   -2.489033    0.000000
      3          1           0        0.845910   -2.492395    0.000000
      4          8           0        0.047541    1.970149    0.000000
      5          1           0        0.018945    2.952335    0.000000
      6          1           0       -0.872284    1.624567    0.000000
 ---------------------------------------------------------------------

 SCF Done:  E(RHF) =  -33.6497748399     A.U. after   11 cycles
 E2 =    -0.2286579501D+00 EUMP2 =    -0.33878432789939D+02
 CCSD(T)
 CCSD(T)= -0.33895499020D+02

 The electronic state is 1-A'.
 Alpha  occ. eigenvalues --   -1.34978  -1.33923  -0.70608  -0.69503  -0.54611
 Alpha  occ. eigenvalues --   -0.53510  -0.49520  -0.48472
 Alpha virt. eigenvalues --    0.20274   0.22116   0.30871   0.31971   0.78524
 Alpha virt. eigenvalues --    0.80718   0.82377   0.85893   0.87469   0.95264
 Alpha virt. eigenvalues --    1.17833   1.19107   1.22236   1.23579   2.57580

 Mulliken charges:
               1
     1  O   -0.734205
     2  H    0.362616
     3  H    0.371853
     4  O   -0.731122
     5  H    0.358090
     6  H    0.372767
 Sum of Mulliken charges =   0.00000

 Dipole moment (field-independent basis, Debye):
    X=             -2.1669    Y=             -1.2246    Z=              0.0000  Tot=              2.4890
 Quadrupole moment (field-independent basis, Debye-Ang):
   XX=             -9.5093   YY=              5.1161   ZZ=            -14.9875
   XY=             -3.6236   XZ=              0.0000   YZ=              0.0000

 P4DQ=-33.8898229\MP4SDQ=-33.8918685\CCSD=-33.8929188\CCSD(T)=-33.89549
 Normal termination of Gaussian 16 at Sun Dec 10 07:06:22 2023.
