 Gaussian 16, Revision A.03,
 Gaussian 16:  ES64L-G16RevA.03 25-Dec-2016

 ------------------
 #p CCSD(T)/CEP-31G
 ------------------

 -----------
 H2O_H2O_339
 -----------
 Symbolic Z-matrix:
 Charge =  0 Multiplicity = 1

                         Standard orientation:
 ---------------------------------------------------------------------
 Center     Atomic      Atomic             Coordinates (Angstroms)
 Number     Number       Type             X           Y           Z
 ---------------------------------------------------------------------
      1          8           0        0.045400   -0.952366    0.000000
      2          1           0       -0.756450   -1.520294    0.000000
      3          1           0        0.842679   -1.526694    0.000000
      4          8           0        0.045400    0.996693    0.000000
      5          1           0        0.082969    1.978577    0.000000
      6          1           0       -0.895598    0.713798    0.000000
 ---------------------------------------------------------------------

 SCF Done:  E(RHF) =  -33.5915902701     A.U. after   11 cycles
 E2 =    -0.2328294633D+00 EUMP2 =    -0.33824419733382D+02
 CCSD(T)
 CCSD(T)= -0.33841622096D+02

 The electronic state is 1-A'.
 Alpha  occ. eigenvalues --   -1.35274  -1.30338  -0.70942  -0.68005  -0.56478
 Alpha  occ. eigenvalues --   -0.49943  -0.44348  -0.43821
 Alpha virt. eigenvalues --    0.20245   0.27368   0.31347   0.33532   0.79919
 Alpha virt. eigenvalues --    0.84761   0.89917   0.96832   0.98798   1.17065
 Alpha virt. eigenvalues --    1.19448   1.25021   1.26124   1.32528   2.54948

 Mulliken charges:
               1
     1  O   -0.760794
     2  H    0.346961
     3  H    0.390575
     4  O   -0.661000
     5  H    0.332672
     6  H    0.351586
 Sum of Mulliken charges =  -0.00000

 Dipole moment (field-independent basis, Debye):
    X=             -1.7624    Y=             -1.0912    Z=              0.0000  Tot=              2.0728
 Quadrupole moment (field-independent basis, Debye-Ang):
   XX=             -9.4840   YY=             -4.8442   ZZ=            -14.9922
   XY=             -1.4560   XZ=              0.0000   YZ=              0.0000

 MP4DQ=-33.8353173\MP4SDQ=-33.8376796\CCSD=-33.8386084\CCSD(T)=-33.8416
 Normal termination of Gaussian 16 at Sun Dec 10 06:31:06 2023.
