 Gaussian 16, Revision A.03,
 Gaussian 16:  ES64L-G16RevA.03 25-Dec-2016

 ------------------
 #p CCSD(T)/CEP-31G
 ------------------

 ------------
 H2O_H2O_3839
 ------------
 Symbolic Z-matrix:
 Charge =  0 Multiplicity = 1

                         Standard orientation:
 ---------------------------------------------------------------------
 Center     Atomic      Atomic             Coordinates (Angstroms)
 Number     Number       Type             X           Y           Z
 ---------------------------------------------------------------------
      1          8           0        0.045342   -2.813670    0.000000
      2          1           0       -0.755014   -3.383701    0.000000
      3          1           0        0.844126   -3.385901    0.000000
      4          8           0        0.045342    2.858235    0.000000
      5          1           0        0.080331    3.840213    0.000000
      6          1           0       -0.894910    2.572869    0.000000
 ---------------------------------------------------------------------

 SCF Done:  E(RHF) =  -33.6509812242     A.U. after   11 cycles
 E2 =    -0.2284358949D+00 EUMP2 =    -0.33879417119131D+02
 CCSD(T)
 CCSD(T)= -0.33896440678D+02

 The electronic state is 1-A'.
 Alpha  occ. eigenvalues --   -1.35224  -1.34806  -0.70854  -0.70424  -0.54914
 Alpha  occ. eigenvalues --   -0.54493  -0.49784  -0.49366
 Alpha virt. eigenvalues --    0.20501   0.20930   0.30738   0.31151   0.80769
 Alpha virt. eigenvalues --    0.81181   0.83860   0.84295   0.86952   0.87442
 Alpha virt. eigenvalues --    1.17643   1.18058   1.22108   1.22526   2.57679

 Mulliken charges:
               1
     1  O   -0.738288
     2  H    0.367573
     3  H    0.370715
     4  O   -0.737756
     5  H    0.366241
     6  H    0.371514
 Sum of Mulliken charges =   0.00000

 Dipole moment (field-independent basis, Debye):
    X=             -2.0900    Y=             -1.0463    Z=              0.0000  Tot=              2.3373
 Quadrupole moment (field-independent basis, Debye-Ang):
   XX=             -9.3729   YY=             13.3353   ZZ=            -14.9876
   XY=             -5.1881   XZ=              0.0000   YZ=              0.0000

 \MP4DQ=-33.8907901\MP4SDQ=-33.8928201\CCSD=-33.8938765\CCSD(T)=-33.896
 Normal termination of Gaussian 16 at Sun Dec 10 06:49:07 2023.
