 Gaussian 16, Revision A.03,
 Gaussian 16:  ES64L-G16RevA.03 25-Dec-2016

 ------------------
 #p CCSD(T)/CEP-31G
 ------------------

 ------------
 H2O_H2O_1434
 ------------
 Symbolic Z-matrix:
 Charge =  0 Multiplicity = 1

                         Standard orientation:
 ---------------------------------------------------------------------
 Center     Atomic      Atomic             Coordinates (Angstroms)
 Number     Number       Type             X           Y           Z
 ---------------------------------------------------------------------
      1          8           0        0.031747   -1.551070    0.000000
      2          1           0       -0.768822   -2.120801    0.000000
      3          1           0        0.830317   -2.123600    0.000000
      4          8           0        0.031747    1.570209    0.000000
      5          1           0        0.380870    2.488696    0.000000
      6          1           0       -0.950321    1.602589    0.000000
 ---------------------------------------------------------------------

 SCF Done:  E(RHF) =  -33.6439188143     A.U. after   11 cycles
 E2 =    -0.2291540843D+00 EUMP2 =    -0.33873072898592D+02
 CCSD(T)
 CCSD(T)= -0.33890357888D+02

 The electronic state is 1-A'.
 Alpha  occ. eigenvalues --   -1.33855  -1.33244  -0.69476  -0.68833  -0.53875
 Alpha  occ. eigenvalues --   -0.51812  -0.48377  -0.47665
 Alpha virt. eigenvalues --    0.20793   0.22980   0.31786   0.32306   0.76438
 Alpha virt. eigenvalues --    0.79934   0.83748   0.85215   0.93100   1.09971
 Alpha virt. eigenvalues --    1.18733   1.20225   1.23413   1.23912   2.59781

 Mulliken charges:
               1
     1  O   -0.717961
     2  H    0.353363
     3  H    0.364455
     4  O   -0.712652
     5  H    0.350521
     6  H    0.362274
 Sum of Mulliken charges =   0.00000

 Dipole moment (field-independent basis, Debye):
    X=             -1.4218    Y=             -0.4770    Z=              0.0000  Tot=              1.4997
 Quadrupole moment (field-independent basis, Debye-Ang):
   XX=             -8.7713   YY=              3.2492   ZZ=            -14.9850
   XY=             -1.5892   XZ=              0.0000   YZ=              0.0000

 \MP4DQ=-33.8845768\MP4SDQ=-33.8866672\CCSD=-33.887732\CCSD(T)=-33.8903
 Normal termination of Gaussian 16 at Sun Dec 10 06:51:33 2023.
