 Gaussian 16, Revision A.03,
 Gaussian 16:  ES64L-G16RevA.03 25-Dec-2016

 ------------------
 #p CCSD(T)/CEP-31G
 ------------------

 ------------
 H2O_H2O_1633
 ------------
 Symbolic Z-matrix:
 Charge =  0 Multiplicity = 1

                         Standard orientation:
 ---------------------------------------------------------------------
 Center     Atomic      Atomic             Coordinates (Angstroms)
 Number     Number       Type             X           Y           Z
 ---------------------------------------------------------------------
      1          8           0        0.028568   -1.659567    0.000000
      2          1           0       -0.771845   -2.229519    0.000000
      3          1           0        0.827296   -2.231877    0.000000
      4          8           0        0.028568    1.674786    0.000000
      5          1           0        0.436770    2.568585    0.000000
      6          1           0       -0.949306    1.771057    0.000000
 ---------------------------------------------------------------------

 SCF Done:  E(RHF) =  -33.6450728210     A.U. after   11 cycles
 E2 =    -0.2289887583D+00 EUMP2 =    -0.33874061579316D+02
 CCSD(T)
 CCSD(T)= -0.33891293453D+02

 The electronic state is 1-A'.
 Alpha  occ. eigenvalues --   -1.33947  -1.33518  -0.69569  -0.69113  -0.53799
 Alpha  occ. eigenvalues --   -0.52347  -0.48460  -0.47969
 Alpha virt. eigenvalues --    0.20854   0.22564   0.31725   0.32109   0.75958
 Alpha virt. eigenvalues --    0.80435   0.84257   0.84655   0.91797   1.05136
 Alpha virt. eigenvalues --    1.18684   1.19401   1.23291   1.23688   2.58673

 Mulliken charges:
               1
     1  O   -0.719649
     2  H    0.355650
     3  H    0.364080
     4  O   -0.716667
     5  H    0.353435
     6  H    0.363151
 Sum of Mulliken charges =   0.00000

 Dipole moment (field-independent basis, Debye):
    X=             -1.2894    Y=             -0.3776    Z=              0.0000  Tot=              1.3435
 Quadrupole moment (field-independent basis, Debye-Ang):
   XX=             -8.6391   YY=              4.5814   ZZ=            -14.9843
   XY=             -1.5258   XZ=              0.0000   YZ=              0.0000

 \MP4DQ=-33.8855451\MP4SDQ=-33.8876219\CCSD=-33.8886819\CCSD(T)=-33.891
 Normal termination of Gaussian 16 at Sun Dec 10 06:55:15 2023.
