 Gaussian 16, Revision A.03,
 Gaussian 16:  ES64L-G16RevA.03 25-Dec-2016

 ------------------
 #p CCSD(T)/CEP-31G
 ------------------

 -----------
 H2O_H2O_273
 -----------
 Symbolic Z-matrix:
 Charge =  0 Multiplicity = 1

                         Standard orientation:
 ---------------------------------------------------------------------
 Center     Atomic      Atomic             Coordinates (Angstroms)
 Number     Number       Type             X           Y           Z
 ---------------------------------------------------------------------
      1          8           0        0.057271   -0.878899    0.000000
      2          1           0       -0.745295   -1.445814    0.000000
      3          1           0        0.853825   -1.454232    0.000000
      4          8           0        0.057271    0.985053    0.000000
      5          1           0       -0.455940    1.822979    0.000000
      6          1           0       -0.568928    0.227833    0.000000
 ---------------------------------------------------------------------

 SCF Done:  E(RHF) =  -33.5470847491     A.U. after   11 cycles
 E2 =    -0.2330766272D+00 EUMP2 =    -0.33780161376294D+02
 CCSD(T)
 CCSD(T)= -0.33795837987D+02

 The electronic state is 1-A'.
 Alpha  occ. eigenvalues --   -1.41668  -1.28308  -0.78350  -0.72393  -0.54711
 Alpha  occ. eigenvalues --   -0.49041  -0.47077  -0.42676
 Alpha virt. eigenvalues --    0.18537   0.27535   0.30077   0.38361   0.77578
 Alpha virt. eigenvalues --    0.84463   0.90594   0.93493   0.98486   1.16327
 Alpha virt. eigenvalues --    1.17990   1.22826   1.32824   1.34894   2.85017

 Mulliken charges:
               1
     1  O   -0.795412
     2  H    0.371039
     3  H    0.453737
     4  O   -0.692062
     5  H    0.291056
     6  H    0.371642
 Sum of Mulliken charges =  -0.00000

 Dipole moment (field-independent basis, Debye):
    X=             -2.1503    Y=             -3.1347    Z=              0.0000  Tot=              3.8013
 Quadrupole moment (field-independent basis, Debye-Ang):
   XX=            -10.0858   YY=             -7.4612   ZZ=            -14.9440
   XY=             -2.5823   XZ=              0.0000   YZ=              0.0000

 \MP4DQ=-33.7892926\MP4SDQ=-33.7918146\CCSD=-33.7924848\CCSD(T)=-33.795
 Normal termination of Gaussian 16 at Sun Dec 10 06:29:52 2023.
