 Gaussian 16, Revision A.03,
 Gaussian 16:  ES64L-G16RevA.03 25-Dec-2016

 ------------------
 #p CCSD(T)/CEP-31G
 ------------------

 ------------
 H2O_H2O_4243
 ------------
 Symbolic Z-matrix:
 Charge =  0 Multiplicity = 1

                         Standard orientation:
 ---------------------------------------------------------------------
 Center     Atomic      Atomic             Coordinates (Angstroms)
 Number     Number       Type             X           Y           Z
 ---------------------------------------------------------------------
      1          8           0        0.052818   -3.012398    0.000000
      2          1           0       -0.747603   -3.582337    0.000000
      3          1           0        0.851537   -3.584721    0.000000
      4          8           0        0.052818    3.082754    0.000000
      5          1           0       -0.167429    4.040353    0.000000
      6          1           0       -0.781596    2.563852    0.000000
 ---------------------------------------------------------------------

 SCF Done:  E(RHF) =  -33.6515351526     A.U. after   11 cycles
 E2 =    -0.2284023130D+00 EUMP2 =    -0.33879937465629D+02
 CCSD(T)
 CCSD(T)= -0.33896944908D+02

 The electronic state is 1-A'.
 Alpha  occ. eigenvalues --   -1.35461  -1.34894  -0.71092  -0.70513  -0.55181
 Alpha  occ. eigenvalues --   -0.54609  -0.50028  -0.49462
 Alpha virt. eigenvalues --    0.20296   0.20878   0.30535   0.31105   0.80524
 Alpha virt. eigenvalues --    0.81082   0.83571   0.84141   0.86675   0.87305
 Alpha virt. eigenvalues --    1.17430   1.17993   1.21890   1.22462   2.57453

 Mulliken charges:
               1
     1  O   -0.740238
     2  H    0.368658
     3  H    0.371581
     4  O   -0.739859
     5  H    0.367064
     6  H    0.372795
 Sum of Mulliken charges =  -0.00000

 Dipole moment (field-independent basis, Debye):
    X=             -2.4368    Y=             -1.6478    Z=              0.0000  Tot=              2.9417
 Quadrupole moment (field-independent basis, Debye-Ang):
   XX=             -9.8496   YY=             11.8832   ZZ=            -14.9884
   XY=             -6.9937   XZ=              0.0000   YZ=              0.0000

 6\MP4DQ=-33.8912988\MP4SDQ=-33.8933272\CCSD=-33.8943828\CCSD(T)=-33.89
 Normal termination of Gaussian 16 at Sun Dec 10 06:56:28 2023.
