 Gaussian 16, Revision A.03,
 Gaussian 16:  ES64L-G16RevA.03 25-Dec-2016

 ------------------
 #p CCSD(T)/CEP-31G
 ------------------

 -----------
 H2O_H2O_741
 -----------
 Symbolic Z-matrix:
 Charge =  0 Multiplicity = 1

                         Standard orientation:
 ---------------------------------------------------------------------
 Center     Atomic      Atomic             Coordinates (Angstroms)
 Number     Number       Type             X           Y           Z
 ---------------------------------------------------------------------
      1          8           0        0.049564   -1.158351    0.000000
      2          1           0       -0.752051   -1.726610    0.000000
      3          1           0        0.847080   -1.732348    0.000000
      4          8           0        0.049564    1.215109    0.000000
      5          1           0       -0.041756    2.193458    0.000000
      6          1           0       -0.846291    0.811437    0.000000
 ---------------------------------------------------------------------

 SCF Done:  E(RHF) =  -33.6359911620     A.U. after   11 cycles
 E2 =    -0.2305718799D+00 EUMP2 =    -0.33866563041890D+02
 CCSD(T)
 CCSD(T)= -0.33883854803D+02

 The electronic state is 1-A'.
 Alpha  occ. eigenvalues --   -1.34710  -1.31647  -0.70369  -0.67825  -0.54821
 Alpha  occ. eigenvalues --   -0.49592  -0.49342  -0.45985
 Alpha virt. eigenvalues --    0.19972   0.25870   0.31145   0.33572   0.78206
 Alpha virt. eigenvalues --    0.84029   0.88950   0.92842   0.95188   1.15268
 Alpha virt. eigenvalues --    1.18998   1.21808   1.23630   1.30859   2.60486

 Mulliken charges:
               1
     1  O   -0.747604
     2  H    0.352510
     3  H    0.385340
     4  O   -0.692550
     5  H    0.336438
     6  H    0.365866
 Sum of Mulliken charges =   0.00000

 Dipole moment (field-independent basis, Debye):
    X=             -2.0875    Y=             -1.4225    Z=              0.0000  Tot=              2.5261
 Quadrupole moment (field-independent basis, Debye-Ang):
   XX=             -9.6637   YY=             -2.3242   ZZ=            -14.9956
   XY=             -2.2188   XZ=              0.0000   YZ=              0.0000

 MP4DQ=-33.8778584\MP4SDQ=-33.8800478\CCSD=-33.8810851\CCSD(T)=-33.8838
 Normal termination of Gaussian 16 at Sun Dec 10 06:38:35 2023.
