 Gaussian 16, Revision A.03,
 Gaussian 16:  ES64L-G16RevA.03 25-Dec-2016

 ------------------
 #p CCSD(T)/CEP-31G
 ------------------

 ------------
 H2O_H2O_1822
 ------------
 Symbolic Z-matrix:
 Charge =  0 Multiplicity = 1

                         Standard orientation:
 ---------------------------------------------------------------------
 Center     Atomic      Atomic             Coordinates (Angstroms)
 Number     Number       Type             X           Y           Z
 ---------------------------------------------------------------------
      1          8           0        0.056762   -1.707135    0.000000
      2          1           0       -0.744391   -2.276046    0.000000
      3          1           0        0.854745   -2.280484    0.000000
      4          8           0        0.056762    1.806137    0.000000
      5          1           0       -0.402710    2.674695    0.000000
      6          1           0       -0.615839    1.089818    0.000000
 ---------------------------------------------------------------------

 SCF Done:  E(RHF) =  -33.6532253992     A.U. after   11 cycles
 E2 =    -0.2287479277D+00 EUMP2 =    -0.33881973326959D+02
 CCSD(T)
 CCSD(T)= -0.33898973365D+02

 The electronic state is 1-A'.
 Alpha  occ. eigenvalues --   -1.35958  -1.33318  -0.71601  -0.68876  -0.55777
 Alpha  occ. eigenvalues --   -0.53064  -0.50548  -0.47912
 Alpha virt. eigenvalues --    0.19192   0.23469   0.30035   0.33217   0.77531
 Alpha virt. eigenvalues --    0.79401   0.83232   0.86017   0.86983   0.99611
 Alpha virt. eigenvalues --    1.16928   1.20217   1.21493   1.27275   2.54592

 Mulliken charges:
               1
     1  O   -0.745940
     2  H    0.366494
     3  H    0.380779
     4  O   -0.743199
     5  H    0.354532
     6  H    0.387334
 Sum of Mulliken charges =  -0.00000

 Dipole moment (field-independent basis, Debye):
    X=             -2.5736    Y=             -2.4482    Z=              0.0000  Tot=              3.5521
 Quadrupole moment (field-independent basis, Debye-Ang):
   XX=            -10.1082   YY=              0.0130   ZZ=            -14.9936
   XY=             -4.7163   XZ=              0.0000   YZ=              0.0000

 MP4DQ=-33.8932734\MP4SDQ=-33.8953392\CCSD=-33.8963749\CCSD(T)=-33.8989
 Normal termination of Gaussian 16 at Sun Dec 10 06:58:44 2023.
