 Gaussian 16, Revision A.03,
 Gaussian 16:  ES64L-G16RevA.03 25-Dec-2016

 ------------------
 #p CCSD(T)/CEP-31G
 ------------------

 -----------
 H2O_H2O_177
 -----------
 Symbolic Z-matrix:
 Charge =  0 Multiplicity = 1

                         Standard orientation:
 ---------------------------------------------------------------------
 Center     Atomic      Atomic             Coordinates (Angstroms)
 Number     Number       Type             X           Y           Z
 ---------------------------------------------------------------------
      1          8           0        0.007455   -0.896145    0.000000
      2          1           0       -0.792524   -1.466705    0.000000
      3          1           0        0.806617   -1.467849    0.000000
      4          8           0        0.007455    0.897111    0.000000
      5          1           0        0.726118    1.567208    0.000000
      6          1           0       -0.859493    1.359613    0.000000
 ---------------------------------------------------------------------

 SCF Done:  E(RHF) =  -33.5407049594     A.U. after   11 cycles
 E2 =    -0.2354354779D+00 EUMP2 =    -0.33776140437345D+02
 CCSD(T)
 CCSD(T)= -0.33792885161D+02

 The electronic state is 1-A'.
 Alpha  occ. eigenvalues --   -1.34771  -1.29440  -0.69198  -0.65763  -0.62816
 Alpha  occ. eigenvalues --   -0.49709  -0.42925  -0.35740
 Alpha virt. eigenvalues --    0.21395   0.27455   0.32307   0.33665   0.79135
 Alpha virt. eigenvalues --    0.81912   0.89804   0.90041   1.06646   1.20282
 Alpha virt. eigenvalues --    1.21061   1.24231   1.28142   1.32884   2.48921

 Mulliken charges:
               1
     1  O   -0.697370
     2  H    0.342678
     3  H    0.354014
     4  O   -0.694330
     5  H    0.349147
     6  H    0.345863
 Sum of Mulliken charges =   0.00000

 Dipole moment (field-independent basis, Debye):
    X=             -0.2755    Y=             -0.0253    Z=              0.0000  Tot=              0.2766
 Quadrupole moment (field-independent basis, Debye-Ang):
   XX=             -8.4657   YY=             -6.0007   ZZ=            -15.0372
   XY=             -0.1568   XZ=              0.0000   YZ=              0.0000

 DQ=-33.7863067\MP4SDQ=-33.7888421\CCSD=-33.7896306\CCSD(T)=-33.7928852
 Normal termination of Gaussian 16 at Sun Dec 10 06:28:03 2023.
