 Gaussian 16, Revision A.03,
 Gaussian 16:  ES64L-G16RevA.03 25-Dec-2016

 ------------------
 #p CCSD(T)/CEP-31G
 ------------------

 ------------
 H2O_H2O_2640
 ------------
 Symbolic Z-matrix:
 Charge =  0 Multiplicity = 1

                         Standard orientation:
 ---------------------------------------------------------------------
 Center     Atomic      Atomic             Coordinates (Angstroms)
 Number     Number       Type             X           Y           Z
 ---------------------------------------------------------------------
      1          8           0        0.047535   -2.172193    0.000000
      2          1           0       -0.753097   -2.741837    0.000000
      3          1           0        0.846042   -2.744812    0.000000
      4          8           0        0.047535    2.222782    0.000000
      5          1           0        0.018701    3.204962    0.000000
      6          1           0       -0.872207    1.876978    0.000000
 ---------------------------------------------------------------------

 SCF Done:  E(RHF) =  -33.6503540002     A.U. after   11 cycles
 E2 =    -0.2285296574D+00 EUMP2 =    -0.33878883657606D+02
 CCSD(T)
 CCSD(T)= -0.33895926673D+02

 The electronic state is 1-A'.
 Alpha  occ. eigenvalues --   -1.35086  -1.34275  -0.70716  -0.69871  -0.54741
 Alpha  occ. eigenvalues --   -0.53917  -0.49636  -0.48829
 Alpha virt. eigenvalues --    0.20461   0.21559   0.30825   0.31644   0.80876
 Alpha virt. eigenvalues --    0.81748   0.81999   0.85598   0.87134   0.89724
 Alpha virt. eigenvalues --    1.17755   1.18592   1.22197   1.23085   2.57805

 Mulliken charges:
               1
     1  O   -0.736208
     2  H    0.364815
     3  H    0.371450
     4  O   -0.734387
     5  H    0.361715
     6  H    0.372615
 Sum of Mulliken charges =  -0.00000

 Dipole moment (field-independent basis, Debye):
    X=             -2.1783    Y=             -1.2072    Z=              0.0000  Tot=              2.4905
 Quadrupole moment (field-independent basis, Debye-Ang):
   XX=             -9.5063   YY=              7.2712   ZZ=            -14.9875
   XY=             -4.1587   XZ=              0.0000   YZ=              0.0000

 MP4DQ=-33.8902677\MP4SDQ=-33.8923022\CCSD=-33.8933566\CCSD(T)=-33.8959
 Normal termination of Gaussian 16 at Sun Dec 10 06:27:20 2023.
