 Gaussian 16, Revision A.03,
 Gaussian 16:  ES64L-G16RevA.03 25-Dec-2016

 ------------------
 #p CCSD(T)/CEP-31G
 ------------------

 -----------
 H2O_H2O_269
 -----------
 Symbolic Z-matrix:
 Charge =  0 Multiplicity = 1

                         Standard orientation:
 ---------------------------------------------------------------------
 Center     Atomic      Atomic             Coordinates (Angstroms)
 Number     Number       Type             X           Y           Z
 ---------------------------------------------------------------------
      1          8           0        0.054275   -0.894749    0.000000
      2          1           0       -0.748135   -1.461885    0.000000
      3          1           0        0.850987   -1.469863    0.000000
      4          8           0        0.054275    0.971718    0.000000
      5          1           0       -0.224838    1.913844    0.000000
      6          1           0       -0.746412    0.402150    0.000000
 ---------------------------------------------------------------------

 SCF Done:  E(RHF) =  -33.5653717539     A.U. after   11 cycles
 E2 =    -0.2336388514D+00 EUMP2 =    -0.33799010605269D+02
 CCSD(T)
 CCSD(T)= -0.33815739416D+02

 The electronic state is 1-A'.
 Alpha  occ. eigenvalues --   -1.38248  -1.29486  -0.74542  -0.70071  -0.52909
 Alpha  occ. eigenvalues --   -0.52185  -0.45284  -0.43818
 Alpha virt. eigenvalues --    0.19411   0.28881   0.29697   0.34905   0.79088
 Alpha virt. eigenvalues --    0.84172   0.89933   0.95332   0.98885   1.16726
 Alpha virt. eigenvalues --    1.20320   1.24712   1.30061   1.33717   2.66549

 Mulliken charges:
               1
     1  O   -0.792282
     2  H    0.356644
     3  H    0.418475
     4  O   -0.655304
     5  H    0.306209
     6  H    0.366258
 Sum of Mulliken charges =   0.00000

 Dipole moment (field-independent basis, Debye):
    X=             -2.0535    Y=             -2.0321    Z=              0.0000  Tot=              2.8890
 Quadrupole moment (field-independent basis, Debye-Ang):
   XX=             -9.9449   YY=             -6.3889   ZZ=            -14.9687
   XY=             -2.0365   XZ=              0.0000   YZ=              0.0000

 MP4DQ=-33.8092668\MP4SDQ=-33.8117412\CCSD=-33.8125386\CCSD(T)=-33.8157
 Normal termination of Gaussian 16 at Sun Dec 10 06:29:47 2023.
