 Gaussian 16, Revision A.03,
 Gaussian 16:  ES64L-G16RevA.03 25-Dec-2016

 ------------------
 #p CCSD(T)/CEP-31G
 ------------------

 ------------
 H2O_H2O_4954
 ------------
 Symbolic Z-matrix:
 Charge =  0 Multiplicity = 1

                         Standard orientation:
 ---------------------------------------------------------------------
 Center     Atomic      Atomic             Coordinates (Angstroms)
 Number     Number       Type             X           Y           Z
 ---------------------------------------------------------------------
      1          8           0        0.014783   -3.434081    0.000000
      2          1           0       -0.785000   -4.004917    0.000000
      3          1           0        0.814142   -4.005509    0.000000
      4          8           0        0.014783    3.437962    0.000000
      5          1           0        0.639571    4.196347    0.000000
      6          1           0       -0.905237    3.783030    0.000000
 ---------------------------------------------------------------------

 SCF Done:  E(RHF) =  -33.6509119062     A.U. after   11 cycles
 E2 =    -0.2284235635D+00 EUMP2 =    -0.33879335469692D+02
 CCSD(T)
 CCSD(T)= -0.33896361130D+02

 The electronic state is 1-A'.
 Alpha  occ. eigenvalues --   -1.35109  -1.35084  -0.70738  -0.70712  -0.54795
 Alpha  occ. eigenvalues --   -0.54771  -0.49667  -0.49643
 Alpha virt. eigenvalues --    0.20614   0.20639   0.30847   0.30871   0.80887
 Alpha virt. eigenvalues --    0.80911   0.83995   0.84019   0.87076   0.87105
 Alpha virt. eigenvalues --    1.17755   1.17779   1.22220   1.22244   2.57794

 Mulliken charges:
               1
     1  O   -0.737984
     2  H    0.368685
     3  H    0.369298
     4  O   -0.737953
     5  H    0.368533
     6  H    0.369420
 Sum of Mulliken charges =  -0.00000

 Dipole moment (field-independent basis, Debye):
    X=             -0.6829    Y=             -0.0906    Z=              0.0000  Tot=              0.6888
 Quadrupole moment (field-independent basis, Debye-Ang):
   XX=             -8.1761   YY=             23.9770   ZZ=            -14.9871
   XY=             -1.9017   XZ=              0.0000   YZ=              0.0000

 MP4DQ=-33.8907102\MP4SDQ=-33.8927401\CCSD=-33.8937973\CCSD(T)=-33.8963
 Normal termination of Gaussian 16 at Sun Dec 10 07:11:00 2023.
