 Gaussian 16, Revision A.03,
 Gaussian 16:  ES64L-G16RevA.03 25-Dec-2016

 ------------------
 #p CCSD(T)/CEP-31G
 ------------------

 ------------
 H2O_H2O_1666
 ------------
 Symbolic Z-matrix:
 Charge =  0 Multiplicity = 1

                         Standard orientation:
 ---------------------------------------------------------------------
 Center     Atomic      Atomic             Coordinates (Angstroms)
 Number     Number       Type             X           Y           Z
 ---------------------------------------------------------------------
      1          8           0        0.049534   -1.650245    0.000000
      2          1           0       -0.751483   -2.219347    0.000000
      3          1           0        0.847653   -2.223403    0.000000
      4          8           0        0.049534    1.707107    0.000000
      5          1           0       -0.042814    2.685359    0.000000
      6          1           0       -0.845895    1.302494    0.000000
 ---------------------------------------------------------------------

 SCF Done:  E(RHF) =  -33.6491423834     A.U. after   11 cycles
 E2 =    -0.2289386665D+00 EUMP2 =    -0.33878081049899D+02
 CCSD(T)
 CCSD(T)= -0.33895204023D+02

 The electronic state is 1-A'.
 Alpha  occ. eigenvalues --   -1.34970  -1.33361  -0.70605  -0.68918  -0.54628
 Alpha  occ. eigenvalues --   -0.52852  -0.49511  -0.47904
 Alpha virt. eigenvalues --    0.19939   0.23105   0.30838   0.32491   0.75456
 Alpha virt. eigenvalues --    0.79839   0.83878   0.85568   0.88501   1.05679
 Alpha virt. eigenvalues --    1.17774   1.20478   1.22281   1.24846   2.56909

 Mulliken charges:
               1
     1  O   -0.732886
     2  H    0.359639
     3  H    0.373870
     4  O   -0.726540
     5  H    0.351914
     6  H    0.374003
 Sum of Mulliken charges =   0.00000

 Dipole moment (field-independent basis, Debye):
    X=             -2.2330    Y=             -1.4075    Z=              0.0000  Tot=              2.6396
 Quadrupole moment (field-independent basis, Debye-Ang):
   XX=             -9.6350   YY=              2.4032   ZZ=            -14.9885
   XY=             -3.2907   XZ=              0.0000   YZ=              0.0000

 P4DQ=-33.8894778\MP4SDQ=-33.8915536\CCSD=-33.892599\CCSD(T)=-33.895204
 Normal termination of Gaussian 16 at Sun Dec 10 06:55:51 2023.
