 Gaussian 16, Revision A.03,
 Gaussian 16:  ES64L-G16RevA.03 25-Dec-2016

 ------------------
 #p CCSD(T)/CEP-31G
 ------------------

 ----------
 H2O_H2O_39
 ----------
 Symbolic Z-matrix:
 Charge =  0 Multiplicity = 1

                         Standard orientation:
 ---------------------------------------------------------------------
 Center     Atomic      Atomic             Coordinates (Angstroms)
 Number     Number       Type             X           Y           Z
 ---------------------------------------------------------------------
      1          8           0        0.045417   -0.792853    0.000000
      2          1           0       -0.756878   -1.360152    0.000000
      3          1           0        0.842246   -1.367805    0.000000
      4          8           0        0.045417    0.837109    0.000000
      5          1           0        0.083756    1.818961    0.000000
      6          1           0       -0.895802    0.554950    0.000000
 ---------------------------------------------------------------------

 SCF Done:  E(RHF) =  -33.4769083228     A.U. after   12 cycles
 E2 =    -0.2379184297D+00 EUMP2 =    -0.33714826752547D+02
 CCSD(T)
 CCSD(T)= -0.33731543795D+02

 The electronic state is 1-A'.
 Alpha  occ. eigenvalues --   -1.40008  -1.28678  -0.75150  -0.70457  -0.57815
 Alpha  occ. eigenvalues --   -0.53590  -0.42847  -0.35617
 Alpha virt. eigenvalues --    0.19876   0.29119   0.30834   0.33482   0.81053
 Alpha virt. eigenvalues --    0.83918   0.88817   0.94125   0.97044   1.19914
 Alpha virt. eigenvalues --    1.21838   1.25863   1.26230   1.40331   2.61339

 Mulliken charges:
               1
     1  O   -0.751160
     2  H    0.334349
     3  H    0.398150
     4  O   -0.633453
     5  H    0.302471
     6  H    0.349643
 Sum of Mulliken charges =  -0.00000

 Dipole moment (field-independent basis, Debye):
    X=             -1.6001    Y=             -1.1893    Z=              0.0000  Tot=              1.9937
 Quadrupole moment (field-independent basis, Debye-Ang):
   XX=             -9.5363   YY=             -8.1945   ZZ=            -14.9247
   XY=             -1.1953   XZ=              0.0000   YZ=              0.0000

 DQ=-33.7246008\MP4SDQ=-33.7274279\CCSD=-33.727953\CCSD(T)=-33.7315438\
 Normal termination of Gaussian 16 at Sun Dec 10 06:25:27 2023.
