 Gaussian 16, Revision A.03,
 Gaussian 16:  ES64L-G16RevA.03 25-Dec-2016

 ------------------
 #p CCSD(T)/CEP-31G
 ------------------

 ------------
 H2O_H2O_2174
 ------------
 Symbolic Z-matrix:
 Charge =  0 Multiplicity = 1

                         Standard orientation:
 ---------------------------------------------------------------------
 Center     Atomic      Atomic             Coordinates (Angstroms)
 Number     Number       Type             X           Y           Z
 ---------------------------------------------------------------------
      1          8           0        0.057258   -1.885168    0.000000
      2          1           0       -0.743757   -2.454274    0.000000
      3          1           0        0.855380   -2.458323    0.000000
      4          8           0        0.057258    1.999105    0.000000
      5          1           0       -0.511848    2.800120    0.000000
      6          1           0       -0.515897    1.200982    0.000000
 ---------------------------------------------------------------------

 SCF Done:  E(RHF) =  -33.6538449350     A.U. after   11 cycles
 E2 =    -0.2285462629D+00 EUMP2 =    -0.33882391197959D+02
 CCSD(T)
 CCSD(T)= -0.33899351754D+02

 The electronic state is 1-A'.
 Alpha  occ. eigenvalues --   -1.36128  -1.33678  -0.71770  -0.69245  -0.55988
 Alpha  occ. eigenvalues --   -0.53447  -0.50727  -0.48276
 Alpha virt. eigenvalues --    0.19152   0.22849   0.29919   0.32785   0.79679
 Alpha virt. eigenvalues --    0.80521   0.82384   0.85481   0.86280   0.92608
 Alpha virt. eigenvalues --    1.16829   1.19726   1.21251   1.26465   2.55448

 Mulliken charges:
               1
     1  O   -0.747479
     2  H    0.369100
     3  H    0.379466
     4  O   -0.747377
     5  H    0.358932
     6  H    0.387357
 Sum of Mulliken charges =  -0.00000

 Dipole moment (field-independent basis, Debye):
    X=             -2.6124    Y=             -2.7779    Z=              0.0000  Tot=              3.8133
 Quadrupole moment (field-independent basis, Debye-Ang):
   XX=            -10.1513   YY=             -0.1664   ZZ=            -14.9937
   XY=             -5.5055   XZ=              0.0000   YZ=              0.0000

 P4DQ=-33.8936842\MP4SDQ=-33.8957335\CCSD=-33.8967715\CCSD(T)=-33.89935
 Normal termination of Gaussian 16 at Sun Dec 10 07:06:32 2023.
