 Gaussian 16, Revision A.03,
 Gaussian 16:  ES64L-G16RevA.03 25-Dec-2016

 ------------------
 #p CCSD(T)/CEP-31G
 ------------------

 ------------
 H2O_H2O_4838
 ------------
 Symbolic Z-matrix:
 Charge =  0 Multiplicity = 1

                         Standard orientation:
 ---------------------------------------------------------------------
 Center     Atomic      Atomic             Coordinates (Angstroms)
 Number     Number       Type             X           Y           Z
 ---------------------------------------------------------------------
      1          8           0        0.042961   -3.348628    0.000000
      2          1           0       -0.757236   -3.918882    0.000000
      3          1           0        0.841905   -3.920637    0.000000
      4          8           0        0.042961    3.387445    0.000000
      5          1           0        0.141828    4.365060    0.000000
      6          1           0       -0.913879    3.163919    0.000000
 ---------------------------------------------------------------------

 SCF Done:  E(RHF) =  -33.6512500385     A.U. after   11 cycles
 E2 =    -0.2284101904D+00 EUMP2 =    -0.33879660228918D+02
 CCSD(T)
 CCSD(T)= -0.33896676093D+02

 The electronic state is 1-A'.
 Alpha  occ. eigenvalues --   -1.35300  -1.35045  -0.70930  -0.70670  -0.55005
 Alpha  occ. eigenvalues --   -0.54749  -0.49863  -0.49608
 Alpha virt. eigenvalues --    0.20442   0.20701   0.30678   0.30931   0.80690
 Alpha virt. eigenvalues --    0.80942   0.83766   0.84018   0.86859   0.87145
 Alpha virt. eigenvalues --    1.17579   1.17832   1.22041   1.22296   2.57609

 Mulliken charges:
               1
     1  O   -0.739202
     2  H    0.368678
     3  H    0.370524
     4  O   -0.738978
     5  H    0.367937
     6  H    0.371041
 Sum of Mulliken charges =   0.00000

 Dipole moment (field-independent basis, Debye):
    X=             -1.9841    Y=             -0.9064    Z=              0.0000  Tot=              2.1813
 Quadrupole moment (field-independent basis, Debye-Ang):
   XX=             -9.2351   YY=             18.7100   ZZ=            -14.9877
   XY=             -5.8797   XZ=              0.0000   YZ=              0.0000

 4DQ=-33.8910278\MP4SDQ=-33.8930569\CCSD=-33.8941133\CCSD(T)=-33.896676
 Normal termination of Gaussian 16 at Sun Dec 10 07:08:50 2023.
