 Gaussian 16, Revision A.03,
 Gaussian 16:  ES64L-G16RevA.03 25-Dec-2016

 ------------------
 #p CCSD(T)/CEP-31G
 ------------------

 ------------
 H2O_H2O_1218
 ------------
 Symbolic Z-matrix:
 Charge =  0 Multiplicity = 1

                         Standard orientation:
 ---------------------------------------------------------------------
 Center     Atomic      Atomic             Coordinates (Angstroms)
 Number     Number       Type             X           Y           Z
 ---------------------------------------------------------------------
      1          8           0        0.052877   -1.403684    0.000000
      2          1           0       -0.748493   -1.972289    0.000000
      3          1           0        0.850641   -1.977338    0.000000
      4          8           0        0.052877    1.473865    0.000000
      5          1           0       -0.165774    2.431830    0.000000
      6          1           0       -0.782401    0.956354    0.000000
 ---------------------------------------------------------------------

 SCF Done:  E(RHF) =  -33.6485365688     A.U. after   11 cycles
 E2 =    -0.2294541457D+00 EUMP2 =    -0.33877990714448D+02
 CCSD(T)
 CCSD(T)= -0.33895170597D+02

 The electronic state is 1-A'.
 Alpha  occ. eigenvalues --   -1.35233  -1.32555  -0.70882  -0.68201  -0.54913
 Alpha  occ. eigenvalues --   -0.51996  -0.49796  -0.47092
 Alpha virt. eigenvalues --    0.19645   0.24605   0.30665   0.33360   0.78217
 Alpha virt. eigenvalues --    0.78385   0.86161   0.86387   0.90545   1.14781
 Alpha virt. eigenvalues --    1.17649   1.21240   1.22424   1.28038   2.59390

 Mulliken charges:
               1
     1  O   -0.739787
     2  H    0.358104
     3  H    0.381301
     4  O   -0.721603
     5  H    0.343923
     6  H    0.378063
 Sum of Mulliken charges =   0.00000

 Dipole moment (field-independent basis, Debye):
    X=             -2.3353    Y=             -1.7708    Z=              0.0000  Tot=              2.9308
 Quadrupole moment (field-independent basis, Debye-Ang):
   XX=             -9.8455   YY=             -0.4431   ZZ=            -14.9927
   XY=             -3.1684   XZ=              0.0000   YZ=              0.0000

 3\MP4DQ=-33.8893507\MP4SDQ=-33.891471\CCSD=-33.892514\CCSD(T)=-33.8951
 Normal termination of Gaussian 16 at Sun Dec 10 06:47:31 2023.
