 Gaussian 16, Revision A.03,
 Gaussian 16:  ES64L-G16RevA.03 25-Dec-2016

 ------------------
 #p CCSD(T)/CEP-31G
 ------------------

 ------------
 H2O_H2O_4539
 ------------
 Symbolic Z-matrix:
 Charge =  0 Multiplicity = 1

                         Standard orientation:
 ---------------------------------------------------------------------
 Center     Atomic      Atomic             Coordinates (Angstroms)
 Number     Number       Type             X           Y           Z
 ---------------------------------------------------------------------
      1          8           0        0.045338   -3.185948    0.000000
      2          1           0       -0.754927   -3.756107    0.000000
      3          1           0        0.844214   -3.758051    0.000000
      4          8           0        0.045338    3.230527    0.000000
      5          1           0        0.080171    4.212512    0.000000
      6          1           0       -0.894868    2.945010    0.000000
 ---------------------------------------------------------------------

 SCF Done:  E(RHF) =  -33.6512362340     A.U. after   11 cycles
 E2 =    -0.2284136637D+00 EUMP2 =    -0.33879649897697D+02
 CCSD(T)
 CCSD(T)= -0.33896666102D+02

 The electronic state is 1-A'.
 Alpha  occ. eigenvalues --   -1.35306  -1.34982  -0.70937  -0.70605  -0.55010
 Alpha  occ. eigenvalues --   -0.54685  -0.49869  -0.49546
 Alpha virt. eigenvalues --    0.20435   0.20765   0.30671   0.30992   0.80683
 Alpha virt. eigenvalues --    0.81003   0.83761   0.84082   0.86853   0.87218
 Alpha virt. eigenvalues --    1.17572   1.17893   1.22034   1.22359   2.57602

 Mulliken charges:
               1
     1  O   -0.739162
     2  H    0.368469
     3  H    0.370693
     4  O   -0.738865
     5  H    0.367524
     6  H    0.371341
 Sum of Mulliken charges =  -0.00000

 Dipole moment (field-independent basis, Debye):
    X=             -2.0929    Y=             -1.0423    Z=              0.0000  Tot=              2.3381
 Quadrupole moment (field-independent basis, Debye-Ang):
   XX=             -9.3720   YY=             16.5459   ZZ=            -14.9878
   XY=             -5.9581   XZ=              0.0000   YZ=              0.0000

 \MP4DQ=-33.8910177\MP4SDQ=-33.8930469\CCSD=-33.8941032\CCSD(T)=-33.896
 Normal termination of Gaussian 16 at Sun Dec 10 07:03:21 2023.
