 Gaussian 16, Revision A.03,
 Gaussian 16:  ES64L-G16RevA.03 25-Dec-2016

 ------------------
 #p CCSD(T)/CEP-31G
 ------------------

 ------------
 H2O_H2O_1538
 ------------
 Symbolic Z-matrix:
 Charge =  0 Multiplicity = 1

                         Standard orientation:
 ---------------------------------------------------------------------
 Center     Atomic      Atomic             Coordinates (Angstroms)
 Number     Number       Type             X           Y           Z
 ---------------------------------------------------------------------
      1          8           0        0.042984   -1.593621    0.000000
      2          1           0       -0.757893   -2.162919    0.000000
      3          1           0        0.841244   -2.166584    0.000000
      4          8           0        0.042984    1.632336    0.000000
      5          1           0        0.143019    2.609832    0.000000
      6          1           0       -0.914122    1.409953    0.000000
 ---------------------------------------------------------------------

 SCF Done:  E(RHF) =  -33.6467779799     A.U. after   11 cycles
 E2 =    -0.2290667343D+00 EUMP2 =    -0.33875844714202D+02
 CCSD(T)
 CCSD(T)= -0.33893047133D+02

 The electronic state is 1-A'.
 Alpha  occ. eigenvalues --   -1.34454  -1.33291  -0.70084  -0.68859  -0.54193
 Alpha  occ. eigenvalues --   -0.52451  -0.48977  -0.47791
 Alpha virt. eigenvalues --    0.20319   0.23072   0.31282   0.32380   0.75508
 Alpha virt. eigenvalues --    0.79850   0.84546   0.84779   0.90377   1.08918
 Alpha virt. eigenvalues --    1.18212   1.20619   1.22778   1.24283   2.58331

 Mulliken charges:
               1
     1  O   -0.726103
     2  H    0.356309
     3  H    0.370005
     4  O   -0.719031
     5  H    0.350514
     6  H    0.368305
 Sum of Mulliken charges =  -0.00000

 Dipole moment (field-independent basis, Debye):
    X=             -1.9300    Y=             -0.9621    Z=              0.0000  Tot=              2.1565
 Quadrupole moment (field-independent basis, Debye-Ang):
   XX=             -9.2704   YY=              2.8377   ZZ=            -14.9866
   XY=             -2.4956   XZ=              0.0000   YZ=              0.0000

 P4DQ=-33.8872927\MP4SDQ=-33.8893785\CCSD=-33.8904317\CCSD(T)=-33.89304
 Normal termination of Gaussian 16 at Sun Dec 10 06:53:29 2023.
