 Gaussian 16, Revision A.03,
 Gaussian 16:  ES64L-G16RevA.03 25-Dec-2016

 ------------------
 #p CCSD(T)/CEP-31G
 ------------------

 -----------
 H2O_H2O_255
 -----------
 Symbolic Z-matrix:
 Charge =  0 Multiplicity = 1

                         Standard orientation:
 ---------------------------------------------------------------------
 Center     Atomic      Atomic             Coordinates (Angstroms)
 Number     Number       Type             X           Y           Z
 ---------------------------------------------------------------------
      1          8           0        0.018363   -0.933298    0.000000
      2          1           0       -0.782170   -1.503080    0.000000
      3          1           0        0.816969   -1.505779    0.000000
      4          8           0        0.018363    0.939298    0.000000
      5          1           0        0.593263    1.736165    0.000000
      6          1           0       -0.921878    1.224694    0.000000
 ---------------------------------------------------------------------

 SCF Done:  E(RHF) =  -33.5662258038     A.U. after   11 cycles
 E2 =    -0.2339391745D+00 EUMP2 =    -0.33800164978274D+02
 CCSD(T)
 CCSD(T)= -0.33817129052D+02

 The electronic state is 1-A'.
 Alpha  occ. eigenvalues --   -1.34184  -1.29849  -0.69051  -0.66262  -0.60682
 Alpha  occ. eigenvalues --   -0.49130  -0.43417  -0.38434
 Alpha virt. eigenvalues --    0.21300   0.26963   0.32404   0.33543   0.79980
 Alpha virt. eigenvalues --    0.81424   0.90026   0.92678   1.04469   1.20068
 Alpha virt. eigenvalues --    1.22126   1.22954   1.27639   1.30596   2.48726

 Mulliken charges:
               1
     1  O   -0.708050
     2  H    0.339847
     3  H    0.363689
     4  O   -0.689923
     5  H    0.351017
     6  H    0.343420
 Sum of Mulliken charges =   0.00000

 Dipole moment (field-independent basis, Debye):
    X=             -0.6912    Y=             -0.1480    Z=              0.0000  Tot=              0.7069
 Quadrupole moment (field-independent basis, Debye-Ang):
   XX=             -8.5788   YY=             -5.1196   ZZ=            -15.0271
   XY=             -0.4038   XZ=              0.0000   YZ=              0.0000

 P4DQ=-33.8107204\MP4SDQ=-33.8131305\CCSD=-33.8140182\CCSD(T)=-33.81712
 Normal termination of Gaussian 16 at Sun Dec 10 06:29:31 2023.
