 Gaussian 16, Revision A.03,
 Gaussian 16:  ES64L-G16RevA.03 25-Dec-2016

 ------------------
 #p CCSD(T)/CEP-31G
 ------------------

 ------------
 H2O_H2O_3621
 ------------
 Symbolic Z-matrix:
 Charge =  0 Multiplicity = 1

                         Standard orientation:
 ---------------------------------------------------------------------
 Center     Atomic      Atomic             Coordinates (Angstroms)
 Number     Number       Type             X           Y           Z
 ---------------------------------------------------------------------
      1          8           0        0.056097   -2.668385    0.000000
      2          1           0       -0.744487   -3.238096    0.000000
      3          1           0        0.854652   -3.240937    0.000000
      4          8           0        0.056097    2.760128    0.000000
      5          1           0       -0.346480    3.656475    0.000000
      6          1           0       -0.661244    2.088616    0.000000
 ---------------------------------------------------------------------

 SCF Done:  E(RHF) =  -33.6519038197     A.U. after   11 cycles
 E2 =    -0.2283947021D+00 EUMP2 =    -0.33880298521823D+02
 CCSD(T)
 CCSD(T)= -0.33897295201D+02

 The electronic state is 1-A'.
 Alpha  occ. eigenvalues --   -1.35619  -1.34679  -0.71253  -0.70291  -0.55362
 Alpha  occ. eigenvalues --   -0.54406  -0.50192  -0.49253
 Alpha virt. eigenvalues --    0.20149   0.21136   0.30398   0.31358   0.80362
 Alpha virt. eigenvalues --    0.81282   0.83343   0.84344   0.86488   0.87533
 Alpha virt. eigenvalues --    1.17288   1.18222   1.21743   1.22706   2.57295

 Mulliken charges:
               1
     1  O   -0.741563
     2  H    0.368696
     3  H    0.372871
     4  O   -0.741066
     5  H    0.365854
     6  H    0.375208
 Sum of Mulliken charges =   0.00000

 Dipole moment (field-independent basis, Debye):
    X=             -2.5840    Y=             -2.1595    Z=              0.0000  Tot=              3.3676
 Quadrupole moment (field-independent basis, Debye-Ang):
   XX=            -10.0802   YY=              6.8526   ZZ=            -14.9892
   XY=             -6.9608   XZ=              0.0000   YZ=              0.0000

 1\MP4DQ=-33.8916516\MP4SDQ=-33.8936793\CCSD=-33.8947336\CCSD(T)=-33.89
 Normal termination of Gaussian 16 at Sun Dec 10 06:45:05 2023.
