 Gaussian 16, Revision A.03,
 Gaussian 16:  ES64L-G16RevA.03 25-Dec-2016

 ------------------
 #p CCSD(T)/CEP-31G
 ------------------

 -----------
 H2O_H2O_115
 -----------
 Symbolic Z-matrix:
 Charge =  0 Multiplicity = 1

                         Standard orientation:
 ---------------------------------------------------------------------
 Center     Atomic      Atomic             Coordinates (Angstroms)
 Number     Number       Type             X           Y           Z
 ---------------------------------------------------------------------
      1          8           0        0.047609   -0.829452    0.000000
      2          1           0       -0.754685   -1.396753    0.000000
      3          1           0        0.844439   -1.404402    0.000000
      4          8           0        0.047609    0.879763    0.000000
      5          1           0        0.021646    1.862021    0.000000
      6          1           0       -0.873140    0.536648    0.000000
 ---------------------------------------------------------------------

 SCF Done:  E(RHF) =  -33.5163772316     A.U. after   11 cycles
 E2 =    -0.2360042961D+00 EUMP2 =    -0.33752381527721D+02
 CCSD(T)
 CCSD(T)= -0.33769280188D+02

 The electronic state is 1-A'.
 Alpha  occ. eigenvalues --   -1.38583  -1.29070  -0.74242  -0.69776  -0.56627
 Alpha  occ. eigenvalues --   -0.52491  -0.43218  -0.38851
 Alpha virt. eigenvalues --    0.19901   0.28961   0.30670   0.33587   0.80727
 Alpha virt. eigenvalues --    0.84221   0.89291   0.95252   0.97109   1.19240
 Alpha virt. eigenvalues --    1.21490   1.25976   1.27602   1.37775   2.60374

 Mulliken charges:
               1
     1  O   -0.767970
     2  H    0.342229
     3  H    0.401533
     4  O   -0.636728
     5  H    0.309326
     6  H    0.351610
 Sum of Mulliken charges =   0.00000

 Dipole moment (field-independent basis, Debye):
    X=             -1.7202    Y=             -1.3046    Z=              0.0000  Tot=              2.1589
 Quadrupole moment (field-independent basis, Debye-Ang):
   XX=             -9.6193   YY=             -7.2823   ZZ=            -14.9474
   XY=             -1.3473   XZ=              0.0000   YZ=              0.0000

 \MP4DQ=-33.7625516\MP4SDQ=-33.7652186\CCSD=-33.7658935\CCSD(T)=-33.769
 Normal termination of Gaussian 16 at Sun Dec 10 06:26:53 2023.
