 Gaussian 16, Revision A.03,
 Gaussian 16:  ES64L-G16RevA.03 25-Dec-2016

 ------------------
 #p CCSD(T)/CEP-31G
 ------------------

 -----------
 H2O_H2O_517
 -----------
 Symbolic Z-matrix:
 Charge =  0 Multiplicity = 1

                         Standard orientation:
 ---------------------------------------------------------------------
 Center     Atomic      Atomic             Coordinates (Angstroms)
 Number     Number       Type             X           Y           Z
 ---------------------------------------------------------------------
      1          8           0        0.051354   -1.035143    0.000000
      2          1           0       -0.750570   -1.602966    0.000000
      3          1           0        0.848558   -1.609576    0.000000
      4          8           0        0.051354    1.098425    0.000000
      5          1           0       -0.103227    2.068791    0.000000
      6          1           0       -0.816432    0.637499    0.000000
 ---------------------------------------------------------------------

 SCF Done:  E(RHF) =  -33.6194782037     A.U. after   11 cycles
 E2 =    -0.2316127055D+00 EUMP2 =    -0.33851090909227D+02
 CCSD(T)
 CCSD(T)= -0.33868265489D+02

 The electronic state is 1-A'.
 Alpha  occ. eigenvalues --   -1.35424  -1.30870  -0.71185  -0.68230  -0.54674
 Alpha  occ. eigenvalues --   -0.50030  -0.47998  -0.45136
 Alpha virt. eigenvalues --    0.19810   0.27029   0.30799   0.34063   0.78526
 Alpha virt. eigenvalues --    0.84716   0.89737   0.96107   0.98767   1.14352
 Alpha virt. eigenvalues --    1.18918   1.22699   1.25457   1.31941   2.60611

 Mulliken charges:
               1
     1  O   -0.766947
     2  H    0.353726
     3  H    0.396275
     4  O   -0.676199
     5  H    0.328495
     6  H    0.364651
 Sum of Mulliken charges =   0.00000

 Dipole moment (field-independent basis, Debye):
    X=             -2.0777    Y=             -1.5964    Z=              0.0000  Tot=              2.6202
 Quadrupole moment (field-independent basis, Debye-Ang):
   XX=             -9.7748   YY=             -4.0093   ZZ=            -14.9957
   XY=             -2.1036   XZ=              0.0000   YZ=              0.0000

 MP4DQ=-33.8621155\MP4SDQ=-33.8643874\CCSD=-33.8653638\CCSD(T)=-33.8682
 Normal termination of Gaussian 16 at Sun Dec 10 06:34:25 2023.
