 Gaussian 16, Revision A.03,
 Gaussian 16:  ES64L-G16RevA.03 25-Dec-2016

 ------------------
 #p CCSD(T)/CEP-31G
 ------------------

 -----------
 H2O_H2O_188
 -----------
 Symbolic Z-matrix:
 Charge =  0 Multiplicity = 1

                         Standard orientation:
 ---------------------------------------------------------------------
 Center     Atomic      Atomic             Coordinates (Angstroms)
 Number     Number       Type             X           Y           Z
 ---------------------------------------------------------------------
      1          8           0        0.043020   -0.875725    0.000000
      2          1           0       -0.758903   -1.443550    0.000000
      3          1           0        0.840225   -1.450154    0.000000
      4          8           0        0.043020    0.914281    0.000000
      5          1           0        0.144851    1.891592    0.000000
      6          1           0       -0.914493    0.693658    0.000000
 ---------------------------------------------------------------------

 SCF Done:  E(RHF) =  -33.5505085524     A.U. after   11 cycles
 E2 =    -0.2347117932D+00 EUMP2 =    -0.33785220345591D+02
 CCSD(T)
 CCSD(T)= -0.33802253480D+02

 The electronic state is 1-A'.
 Alpha  occ. eigenvalues --   -1.36515  -1.29573  -0.72032  -0.68411  -0.57874
 Alpha  occ. eigenvalues --   -0.50996  -0.43516  -0.39831
 Alpha virt. eigenvalues --    0.20283   0.28140   0.31245   0.33491   0.80842
 Alpha virt. eigenvalues --    0.84830   0.89611   0.95249   0.97976   1.19401
 Alpha virt. eigenvalues --    1.20197   1.25842   1.27218   1.35070   2.55208

 Mulliken charges:
               1
     1  O   -0.757329
     2  H    0.342230
     3  H    0.391757
     4  O   -0.652221
     5  H    0.328400
     6  H    0.347163
 Sum of Mulliken charges =   0.00000

 Dipole moment (field-independent basis, Debye):
    X=             -1.5983    Y=             -0.9714    Z=              0.0000  Tot=              1.8704
 Quadrupole moment (field-independent basis, Debye-Ang):
   XX=             -9.3959   YY=             -6.2185   ZZ=            -14.9789
   XY=             -1.1963   XZ=              0.0000   YZ=              0.0000

 P4DQ=-33.7957134\MP4SDQ=-33.7982443\CCSD=-33.7990419\CCSD(T)=-33.80225
 Normal termination of Gaussian 16 at Sun Dec 10 06:28:15 2023.
