 Gaussian 16, Revision A.03,
 Gaussian 16:  ES64L-G16RevA.03 25-Dec-2016

 ------------------
 #p CCSD(T)/CEP-31G
 ------------------

 -----------
 H2O_H2O_230
 -----------
 Symbolic Z-matrix:
 Charge =  0 Multiplicity = 1

                         Standard orientation:
 ---------------------------------------------------------------------
 Center     Atomic      Atomic             Coordinates (Angstroms)
 Number     Number       Type             X           Y           Z
 ---------------------------------------------------------------------
      1          8           0        0.018364   -0.920003    0.000000
      2          1           0       -0.782184   -1.489765    0.000000
      3          1           0        0.816955   -1.492503    0.000000
      4          8           0        0.018364    0.926002    0.000000
      5          1           0        0.593283    1.722855    0.000000
      6          1           0       -0.921871    1.211421    0.000000
 ---------------------------------------------------------------------

 SCF Done:  E(RHF) =  -33.5592898591     A.U. after   11 cycles
 E2 =    -0.2343344223D+00 EUMP2 =    -0.33793624281425D+02
 CCSD(T)
 CCSD(T)= -0.33810537768D+02

 The electronic state is 1-A'.
 Alpha  occ. eigenvalues --   -1.34415  -1.29727  -0.69203  -0.66249  -0.61114
 Alpha  occ. eigenvalues --   -0.49350  -0.43284  -0.37760
 Alpha virt. eigenvalues --    0.21277   0.27135   0.32335   0.33568   0.80117
 Alpha virt. eigenvalues --    0.81549   0.89953   0.92125   1.04528   1.20049
 Alpha virt. eigenvalues --    1.22380   1.22946   1.27712   1.31456   2.48904

 Mulliken charges:
               1
     1  O   -0.707822
     2  H    0.339329
     3  H    0.364018
     4  O   -0.689427
     5  H    0.350632
     6  H    0.343269
 Sum of Mulliken charges =   0.00000

 Dipole moment (field-independent basis, Debye):
    X=             -0.6871    Y=             -0.1500    Z=              0.0000  Tot=              0.7033
 Quadrupole moment (field-independent basis, Debye-Ang):
   XX=             -8.5894   YY=             -5.3981   ZZ=            -15.0274
   XY=             -0.4020   XZ=              0.0000   YZ=              0.0000

 MP4DQ=-33.8040826\MP4SDQ=-33.8065283\CCSD=-33.8073889\CCSD(T)=-33.8105
 Normal termination of Gaussian 16 at Sun Dec 10 06:29:03 2023.
