 Gaussian 16, Revision A.03,
 Gaussian 16:  ES64L-G16RevA.03 25-Dec-2016

 ------------------
 #p CCSD(T)/CEP-31G
 ------------------

 ------------
 H2O_H2O_4319
 ------------
 Symbolic Z-matrix:
 Charge =  0 Multiplicity = 1

                         Standard orientation:
 ---------------------------------------------------------------------
 Center     Atomic      Atomic             Coordinates (Angstroms)
 Number     Number       Type             X           Y           Z
 ---------------------------------------------------------------------
      1          8           0        0.054141   -3.048489    0.000000
      2          1           0       -0.746291   -3.618415    0.000000
      3          1           0        0.852849   -3.620826    0.000000
      4          8           0        0.054141    3.125836    0.000000
      5          1           0       -0.228249    4.066986    0.000000
      6          1           0       -0.744559    2.553485    0.000000
 ---------------------------------------------------------------------

 SCF Done:  E(RHF) =  -33.6516465124     A.U. after   11 cycles
 E2 =    -0.2283955016D+00 EUMP2 =    -0.33880042014005D+02
 CCSD(T)
 CCSD(T)= -0.33897046217D+02

 The electronic state is 1-A'.
 Alpha  occ. eigenvalues --   -1.35513  -1.34907  -0.71145  -0.70527  -0.55240
 Alpha  occ. eigenvalues --   -0.54628  -0.50082  -0.49477
 Alpha virt. eigenvalues --    0.20251   0.20872   0.30490   0.31101   0.80470
 Alpha virt. eigenvalues --    0.81066   0.83507   0.84117   0.86615   0.87281
 Alpha virt. eigenvalues --    1.17383   1.17985   1.21842   1.22454   2.57403

 Mulliken charges:
               1
     1  O   -0.740633
     2  H    0.368884
     3  H    0.371749
     4  O   -0.740298
     5  H    0.367221
     6  H    0.373077
 Sum of Mulliken charges =   0.00000

 Dipole moment (field-independent basis, Debye):
    X=             -2.4981    Y=             -1.8108    Z=              0.0000  Tot=              3.0854
 Quadrupole moment (field-independent basis, Debye-Ang):
   XX=             -9.9421   YY=             11.2375   ZZ=            -14.9885
   XY=             -7.3894   XZ=              0.0000   YZ=              0.0000

 MP4DQ=-33.891401\MP4SDQ=-33.8934291\CCSD=-33.8944845\CCSD(T)=-33.89704
 Normal termination of Gaussian 16 at Sun Dec 10 06:57:48 2023.
