 Gaussian 16, Revision A.03,
 Gaussian 16:  ES64L-G16RevA.03 25-Dec-2016

 ------------------
 #p CCSD(T)/CEP-31G
 ------------------

 -----------
 H2O_H2O_104
 -----------
 Symbolic Z-matrix:
 Charge =  0 Multiplicity = 1

                         Standard orientation:
 ---------------------------------------------------------------------
 Center     Atomic      Atomic             Coordinates (Angstroms)
 Number     Number       Type             X           Y           Z
 ---------------------------------------------------------------------
      1          8           0        0.014785   -0.854692    0.000000
      2          1           0       -0.785634   -1.424635    0.000000
      3          1           0        0.813507   -1.427011    0.000000
      4          8           0        0.014785    0.858540    0.000000
      5          1           0        0.640418    1.616227    0.000000
      6          1           0       -0.904849    1.204634    0.000000
 ---------------------------------------------------------------------

 SCF Done:  E(RHF) =  -33.5120497234     A.U. after   11 cycles
 E2 =    -0.2371520935D+00 EUMP2 =    -0.33749201816884D+02
 CCSD(T)
 CCSD(T)= -0.33765741999D+02

 The electronic state is 1-A'.
 Alpha  occ. eigenvalues --   -1.36019  -1.29121  -0.70156  -0.66492  -0.63644
 Alpha  occ. eigenvalues --   -0.50815  -0.42641  -0.33584
 Alpha virt. eigenvalues --    0.21162   0.28104   0.31895   0.33679   0.80355
 Alpha virt. eigenvalues --    0.82102   0.89260   0.89376   1.04392   1.19850
 Alpha virt. eigenvalues --    1.21427   1.24186   1.27846   1.36568   2.50704

 Mulliken charges:
               1
     1  O   -0.699229
     2  H    0.336193
     3  H    0.360798
     4  O   -0.687475
     5  H    0.346293
     6  H    0.343421
 Sum of Mulliken charges =   0.00000

 Dipole moment (field-independent basis, Debye):
    X=             -0.5399    Y=             -0.1069    Z=              0.0000  Tot=              0.5504
 Quadrupole moment (field-independent basis, Debye-Ang):
   XX=             -8.6052   YY=             -6.9606   ZZ=            -15.0273
   XY=             -0.3354   XZ=              0.0000   YZ=              0.0000

 MP4DQ=-33.7589736\MP4SDQ=-33.761663\CCSD=-33.7623232\CCSD(T)=-33.76574
 Normal termination of Gaussian 16 at Sun Dec 10 06:26:41 2023.
