 Gaussian 16, Revision A.03,
 Gaussian 16:  ES64L-G16RevA.03 25-Dec-2016

 ------------------
 #p CCSD(T)/CEP-31G
 ------------------

 ------------
 H2O_H2O_1539
 ------------
 Symbolic Z-matrix:
 Charge =  0 Multiplicity = 1

                         Standard orientation:
 ---------------------------------------------------------------------
 Center     Atomic      Atomic             Coordinates (Angstroms)
 Number     Number       Type             X           Y           Z
 ---------------------------------------------------------------------
      1          8           0        0.045365   -1.590495    0.000000
      2          1           0       -0.755585   -2.159692    0.000000
      3          1           0        0.843552   -2.163560    0.000000
      4          8           0        0.045365    1.634966    0.000000
      5          1           0        0.081379    2.616907    0.000000
      6          1           0       -0.895184    1.350580    0.000000
 ---------------------------------------------------------------------

 SCF Done:  E(RHF) =  -33.6473812508     A.U. after   11 cycles
 E2 =    -0.2290631529D+00 EUMP2 =    -0.33876444403768D+02
 CCSD(T)
 CCSD(T)= -0.33893631134D+02

 The electronic state is 1-A'.
 Alpha  occ. eigenvalues --   -1.34604  -1.33261  -0.70236  -0.68825  -0.54314
 Alpha  occ. eigenvalues --   -0.52518  -0.49131  -0.47774
 Alpha virt. eigenvalues --    0.20189   0.23169   0.31152   0.32443   0.75473
 Alpha virt. eigenvalues --    0.79753   0.84510   0.84971   0.89923   1.08935
 Alpha virt. eigenvalues --    1.18078   1.20778   1.22637   1.24546   2.58004

 Mulliken charges:
               1
     1  O   -0.728074
     2  H    0.356959
     3  H    0.371414
     4  O   -0.720526
     5  H    0.350297
     6  H    0.369930
 Sum of Mulliken charges =  -0.00000

 Dipole moment (field-independent basis, Debye):
    X=             -2.0365    Y=             -1.1053    Z=              0.0000  Tot=              2.3171
 Quadrupole moment (field-independent basis, Debye-Ang):
   XX=             -9.3976   YY=              2.5269   ZZ=            -14.9872
   XY=             -2.7118   XZ=              0.0000   YZ=              0.0000

 MP4DQ=-33.8878791\MP4SDQ=-33.8899652\CCSD=-33.8910162\CCSD(T)=-33.8936
 Normal termination of Gaussian 16 at Sun Dec 10 06:53:30 2023.
