 Gaussian 16, Revision A.03,
 Gaussian 16:  ES64L-G16RevA.03 25-Dec-2016

 ------------------
 #p CCSD(T)/CEP-31G
 ------------------

 -----------
 H2O_H2O_447
 -----------
 Symbolic Z-matrix:
 Charge =  0 Multiplicity = 1

                         Standard orientation:
 ---------------------------------------------------------------------
 Center     Atomic      Atomic             Coordinates (Angstroms)
 Number     Number       Type             X           Y           Z
 ---------------------------------------------------------------------
      1          8           0        0.056860   -0.975977    0.000000
      2          1           0       -0.745417   -1.543302    0.000000
      3          1           0        0.853707   -1.550904    0.000000
      4          8           0        0.056860    1.074755    0.000000
      5          1           0       -0.400893    1.944220    0.000000
      6          1           0       -0.617158    0.359768    0.000000
 ---------------------------------------------------------------------

 SCF Done:  E(RHF) =  -33.6049461610     A.U. after   11 cycles
 E2 =    -0.2319027808D+00 EUMP2 =    -0.33836848941753D+02
 CCSD(T)
 CCSD(T)= -0.33853203589D+02

 The electronic state is 1-A'.
 Alpha  occ. eigenvalues --   -1.38451  -1.29643  -0.74584  -0.70310  -0.52589
 Alpha  occ. eigenvalues --   -0.51488  -0.49595  -0.44066
 Alpha virt. eigenvalues --    0.18878   0.28609   0.28837   0.37084   0.77384
 Alpha virt. eigenvalues --    0.84711   0.90135   0.94313   0.99159   1.14705
 Alpha virt. eigenvalues --    1.18878   1.21497   1.29417   1.31785   2.77705

 Mulliken charges:
               1
     1  O   -0.796130
     2  H    0.368017
     3  H    0.430303
     4  O   -0.691855
     5  H    0.310576
     6  H    0.379090
 Sum of Mulliken charges =   0.00000

 Dipole moment (field-independent basis, Debye):
    X=             -2.2488    Y=             -2.7243    Z=              0.0000  Tot=              3.5326
 Quadrupole moment (field-independent basis, Debye-Ang):
   XX=            -10.0813   YY=             -5.9112   ZZ=            -14.9888
   XY=             -2.7495   XZ=              0.0000   YZ=              0.0000

 P4DQ=-33.8469347\MP4SDQ=-33.8492878\CCSD=-33.8501217\CCSD(T)=-33.85320
 Normal termination of Gaussian 16 at Sun Dec 10 06:33:07 2023.
