 Gaussian 16, Revision A.03,
 Gaussian 16:  ES64L-G16RevA.03 25-Dec-2016

 ------------------
 #p CCSD(T)/CEP-31G
 ------------------

 ------------
 H2O_H2O_3289
 ------------
 Symbolic Z-matrix:
 Charge =  0 Multiplicity = 1

                         Standard orientation:
 ---------------------------------------------------------------------
 Center     Atomic      Atomic             Coordinates (Angstroms)
 Number     Number       Type             X           Y           Z
 ---------------------------------------------------------------------
      1          8           0        0.045345   -2.521167    0.000000
      2          1           0       -0.755101   -3.091072    0.000000
      3          1           0        0.844039   -3.093525    0.000000
      4          8           0        0.045345    2.565718    0.000000
      5          1           0        0.080490    3.547691    0.000000
      6          1           0       -0.894951    2.280500    0.000000
 ---------------------------------------------------------------------

 SCF Done:  E(RHF) =  -33.6506722718     A.U. after   11 cycles
 E2 =    -0.2284658010D+00 EUMP2 =    -0.33879138072836D+02
 CCSD(T)
 CCSD(T)= -0.33896170805D+02

 The electronic state is 1-A'.
 Alpha  occ. eigenvalues --   -1.35138  -1.34613  -0.70767  -0.70225  -0.54810
 Alpha  occ. eigenvalues --   -0.54282  -0.49693  -0.49170
 Alpha virt. eigenvalues --    0.20559   0.21118   0.30805   0.31321   0.80860
 Alpha virt. eigenvalues --    0.81375   0.83762   0.84687   0.87058   0.87753
 Alpha virt. eigenvalues --    1.17717   1.18236   1.22183   1.22709   2.57757

 Mulliken charges:
               1
     1  O   -0.737247
     2  H    0.366499
     3  H    0.370750
     4  O   -0.736358
     5  H    0.364693
     6  H    0.371662
 Sum of Mulliken charges =  -0.00000

 Dipole moment (field-independent basis, Debye):
    X=             -2.0862    Y=             -1.0515    Z=              0.0000  Tot=              2.3362
 Quadrupole moment (field-independent basis, Debye-Ang):
   XX=             -9.3742   YY=             10.7998   ZZ=            -14.9874
   XY=             -4.5863   XZ=              0.0000   YZ=              0.0000

 \MP4DQ=-33.8905175\MP4SDQ=-33.8925486\CCSD=-33.893605\CCSD(T)=-33.8961
 Normal termination of Gaussian 16 at Sun Dec 10 06:39:04 2023.
