 Gaussian 16, Revision A.03,
 Gaussian 16:  ES64L-G16RevA.03 25-Dec-2016

 ------------------
 #p CCSD(T)/CEP-31G
 ------------------

 ------------
 H2O_H2O_2467
 ------------
 Symbolic Z-matrix:
 Charge =  0 Multiplicity = 1

                         Standard orientation:
 ---------------------------------------------------------------------
 Center     Atomic      Atomic             Coordinates (Angstroms)
 Number     Number       Type             X           Y           Z
 ---------------------------------------------------------------------
      1          8           0        0.051290   -2.072115    0.000000
      2          1           0       -0.749476   -2.641570    0.000000
      3          1           0        0.849662   -2.644922    0.000000
      4          8           0        0.051290    2.135606    0.000000
      5          1           0       -0.105268    3.105655    0.000000
      6          1           0       -0.815556    1.672913    0.000000
 ---------------------------------------------------------------------

 SCF Done:  E(RHF) =  -33.6508070756     A.U. after   11 cycles
 E2 =    -0.2285427059D+00 EUMP2 =    -0.33879349781507D+02
 CCSD(T)
 CCSD(T)= -0.33896380947D+02

 The electronic state is 1-A'.
 Alpha  occ. eigenvalues --   -1.35249  -1.34125  -0.70881  -0.69711  -0.54929
 Alpha  occ. eigenvalues --   -0.53786  -0.49805  -0.48686
 Alpha virt. eigenvalues --    0.20205   0.21839   0.30666   0.31840   0.80673
 Alpha virt. eigenvalues --    0.80939   0.81920   0.85662   0.86921   0.91087
 Alpha virt. eigenvalues --    1.17609   1.18843   1.22014   1.23397   2.57579

 Mulliken charges:
               1
     1  O   -0.737749
     2  H    0.364954
     3  H    0.372951
     4  O   -0.735528
     5  H    0.360569
     6  H    0.374803
 Sum of Mulliken charges =  -0.00000

 Dipole moment (field-independent basis, Debye):
    X=             -2.3468    Y=             -1.5230    Z=              0.0000  Tot=              2.7977
 Quadrupole moment (field-independent basis, Debye-Ang):
   XX=             -9.7421   YY=              5.4110   ZZ=            -14.9884
   XY=             -4.4823   XZ=              0.0000   YZ=              0.0000

 MP4DQ=-33.8907218\MP4SDQ=-33.8927581\CCSD=-33.8938095\CCSD(T)=-33.8963
 Normal termination of Gaussian 16 at Sun Dec 10 07:11:47 2023.
