 Gaussian 16, Revision A.03,
 Gaussian 16:  ES64L-G16RevA.03 25-Dec-2016

 ------------------
 #p CCSD(T)/CEP-31G
 ------------------

 ------------
 H2O_H2O_1010
 ------------
 Symbolic Z-matrix:
 Charge =  0 Multiplicity = 1

                         Standard orientation:
 ---------------------------------------------------------------------
 Center     Atomic      Atomic             Coordinates (Angstroms)
 Number     Number       Type             X           Y           Z
 ---------------------------------------------------------------------
      1          8           0        0.034795   -1.322699    0.000000
      2          1           0       -0.766055   -1.892036    0.000000
      3          1           0        0.833083   -1.895623    0.000000
      4          8           0        0.034795    1.346147    0.000000
      5          1           0        0.323562    2.285359    0.000000
      6          1           0       -0.947304    1.314711    0.000000
 ---------------------------------------------------------------------

 SCF Done:  E(RHF) =  -33.6388677799     A.U. after   11 cycles
 E2 =    -0.2297330028D+00 EUMP2 =    -0.33868600782691D+02
 CCSD(T)
 CCSD(T)= -0.33885997102D+02

 The electronic state is 1-A'.
 Alpha  occ. eigenvalues --   -1.33545  -1.32507  -0.69152  -0.68132  -0.54376
 Alpha  occ. eigenvalues --   -0.49945  -0.48148  -0.46776
 Alpha virt. eigenvalues --    0.20787   0.24087   0.32025   0.32711   0.79044
 Alpha virt. eigenvalues --    0.82051   0.83250   0.87681   0.96939   1.14925
 Alpha virt. eigenvalues --    1.18998   1.22512   1.23765   1.26314   2.57781

 Mulliken charges:
               1
     1  O   -0.717410
     2  H    0.348401
     3  H    0.366291
     4  O   -0.700923
     5  H    0.345999
     6  H    0.357642
 Sum of Mulliken charges =  -0.00000

 Dipole moment (field-independent basis, Debye):
    X=             -1.5141    Y=             -0.5798    Z=              0.0000  Tot=              1.6214
 Quadrupole moment (field-independent basis, Debye-Ang):
   XX=             -8.9318   YY=              0.5431   ZZ=            -14.9895
   XY=             -1.4519   XZ=              0.0000   YZ=              0.0000

 \MP4DQ=-33.8801184\MP4SDQ=-33.8822397\CCSD=-33.8833199\CCSD(T)=-33.885
 Normal termination of Gaussian 16 at Sun Dec 10 06:43:38 2023.
