 Gaussian 16, Revision A.03,
 Gaussian 16:  ES64L-G16RevA.03 25-Dec-2016

 ------------------
 #p CCSD(T)/CEP-31G
 ------------------

 ------------
 H2O_H2O_2377
 ------------
 Symbolic Z-matrix:
 Charge =  0 Multiplicity = 1

                         Standard orientation:
 ---------------------------------------------------------------------
 Center     Atomic      Atomic             Coordinates (Angstroms)
 Number     Number       Type             X           Y           Z
 ---------------------------------------------------------------------
      1          8           0        0.007455   -2.066182    0.000000
      2          1           0       -0.792293   -2.637066    0.000000
      3          1           0        0.806849   -2.637562    0.000000
      4          8           0        0.007455    2.067155    0.000000
      5          1           0        0.725846    2.737543    0.000000
      6          1           0       -0.859681    2.529304    0.000000
 ---------------------------------------------------------------------

 SCF Done:  E(RHF) =  -33.6476041295     A.U. after   11 cycles
 E2 =    -0.2286503929D+00 EUMP2 =    -0.33876254522432D+02
 CCSD(T)
 CCSD(T)= -0.33893377049D+02

 The electronic state is 1-A'.
 Alpha  occ. eigenvalues --   -1.34239  -1.34220  -0.69861  -0.69839  -0.53887
 Alpha  occ. eigenvalues --   -0.53538  -0.48764  -0.48716
 Alpha virt. eigenvalues --    0.21063   0.21563   0.31476   0.31610   0.80840
 Alpha virt. eigenvalues --    0.81439   0.82173   0.87254   0.88913   0.90426
 Alpha virt. eigenvalues --    1.18491   1.18508   1.22905   1.23097   2.58337

 Mulliken charges:
               1
     1  O   -0.726668
     2  H    0.362711
     3  H    0.363960
     4  O   -0.726589
     5  H    0.362534
     6  H    0.364052
 Sum of Mulliken charges =  -0.00000

 Dipole moment (field-independent basis, Debye):
    X=             -0.3411    Y=             -0.0234    Z=              0.0000  Tot=              0.3419
 Quadrupole moment (field-independent basis, Debye-Ang):
   XX=             -8.1215   YY=              9.6766   ZZ=            -14.9843
   XY=             -0.4934   XZ=              0.0000   YZ=              0.0000

 4DQ=-33.8876935\MP4SDQ=-33.8897369\CCSD=-33.8907967\CCSD(T)=-33.893377
 Normal termination of Gaussian 16 at Sun Dec 10 07:10:11 2023.
