 Gaussian 16, Revision A.03,
 Gaussian 16:  ES64L-G16RevA.03 25-Dec-2016

 ------------------
 #p CCSD(T)/CEP-31G
 ------------------

 ------------
 H2O_H2O_2470
 ------------
 Symbolic Z-matrix:
 Charge =  0 Multiplicity = 1

                         Standard orientation:
 ---------------------------------------------------------------------
 Center     Atomic      Atomic             Coordinates (Angstroms)
 Number     Number       Type             X           Y           Z
 ---------------------------------------------------------------------
      1          8           0        0.055263   -2.060753    0.000000
      2          1           0       -0.745596   -2.630078    0.000000
      3          1           0        0.853542   -2.633689    0.000000
      4          8           0        0.055263    2.145166    0.000000
      5          1           0       -0.287386    3.066088    0.000000
      6          1           0       -0.704761    1.522374    0.000000
 ---------------------------------------------------------------------

 SCF Done:  E(RHF) =  -33.6518540322     A.U. after   11 cycles
 E2 =    -0.2285053888D+00 EUMP2 =    -0.33880359420940D+02
 CCSD(T)
 CCSD(T)= -0.33897361015D+02

 The electronic state is 1-A'.
 Alpha  occ. eigenvalues --   -1.35572  -1.34066  -0.71208  -0.69646  -0.55311
 Alpha  occ. eigenvalues --   -0.53774  -0.50143  -0.48640
 Alpha virt. eigenvalues --    0.19869   0.22024   0.30389   0.32004   0.80358
 Alpha virt. eigenvalues --    0.81125   0.81937   0.85559   0.86482   0.90632
 Alpha virt. eigenvalues --    1.17327   1.19029   1.21714   1.23829   2.57184

 Mulliken charges:
               1
     1  O   -0.741252
     2  H    0.366544
     3  H    0.374993
     4  O   -0.739479
     5  H    0.360743
     6  H    0.378450
 Sum of Mulliken charges =  -0.00000

 Dipole moment (field-independent basis, Debye):
    X=             -2.5293    Y=             -2.0282    Z=              0.0000  Tot=              3.2420
 Quadrupole moment (field-independent basis, Debye-Ang):
   XX=            -10.0115   YY=              3.5643   ZZ=            -14.9900
   XY=             -5.1953   XZ=              0.0000   YZ=              0.0000

 \MP4DQ=-33.891707\MP4SDQ=-33.8937429\CCSD=-33.8947911\CCSD(T)=-33.8973
 Normal termination of Gaussian 16 at Sun Dec 10 07:11:51 2023.
