 Gaussian 16, Revision A.03,
 Gaussian 16:  ES64L-G16RevA.03 25-Dec-2016

 ------------------
 #p CCSD(T)/CEP-31G
 ------------------

 ------------
 H2O_H2O_3409
 ------------
 Symbolic Z-matrix:
 Charge =  0 Multiplicity = 1

                         Standard orientation:
 ---------------------------------------------------------------------
 Center     Atomic      Atomic             Coordinates (Angstroms)
 Number     Number       Type             X           Y           Z
 ---------------------------------------------------------------------
      1          8           0        0.031740   -2.601423    0.000000
      2          1           0       -0.768428   -3.171719    0.000000
      3          1           0        0.830714   -3.173391    0.000000
      4          8           0        0.031740    2.620608    0.000000
      5          1           0        0.380217    3.539340    0.000000
      6          1           0       -0.950350    2.652296    0.000000
 ---------------------------------------------------------------------

 SCF Done:  E(RHF) =  -33.6501284467     A.U. after   11 cycles
 E2 =    -0.2284820874D+00 EUMP2 =    -0.33878610534070D+02
 CCSD(T)
 CCSD(T)= -0.33895658810D+02

 The electronic state is 1-A'.
 Alpha  occ. eigenvalues --   -1.34906  -1.34692  -0.70532  -0.70311  -0.54547
 Alpha  occ. eigenvalues --   -0.54332  -0.49452  -0.49240
 Alpha virt. eigenvalues --    0.20769   0.20995   0.31006   0.31212   0.81100
 Alpha virt. eigenvalues --    0.81311   0.84066   0.84708   0.87329   0.87619
 Alpha virt. eigenvalues --    1.17926   1.18137   1.22398   1.22610   2.57982

 Mulliken charges:
               1
     1  O   -0.735302
     2  H    0.366250
     3  H    0.369053
     4  O   -0.734838
     5  H    0.365407
     6  H    0.369431
 Sum of Mulliken charges =  -0.00000

 Dipole moment (field-independent basis, Debye):
    X=             -1.4611    Y=             -0.4521    Z=              0.0000  Tot=              1.5295
 Quadrupole moment (field-independent basis, Debye-Ang):
   XX=             -8.6995   YY=             13.8841   ZZ=            -14.9864
   XY=             -3.0496   XZ=              0.0000   YZ=              0.0000

 \MP4DQ=-33.8900014\MP4SDQ=-33.8920338\CCSD=-33.8930916\CCSD(T)=-33.895
 Normal termination of Gaussian 16 at Sun Dec 10 06:41:14 2023.
