 Gaussian 16, Revision A.03,
 Gaussian 16:  ES64L-G16RevA.03 25-Dec-2016

 ------------------
 #p CCSD(T)/CEP-31G
 ------------------

 ------------
 H2O_H2O_1199
 ------------
 Symbolic Z-matrix:
 Charge =  0 Multiplicity = 1

                         Standard orientation:
 ---------------------------------------------------------------------
 Center     Atomic      Atomic             Coordinates (Angstroms)
 Number     Number       Type             X           Y           Z
 ---------------------------------------------------------------------
      1          8           0        0.057310   -1.366683    0.000000
      2          1           0       -0.744229   -1.935050    0.000000
      3          1           0        0.854904   -1.940573    0.000000
      4          8           0        0.057310    1.480514    0.000000
      5          1           0       -0.511057    2.282054    0.000000
      6          1           0       -0.516580    0.682920    0.000000
 ---------------------------------------------------------------------

 SCF Done:  E(RHF) =  -33.6548361743     A.U. after   11 cycles
 E2 =    -0.2293689666D+00 EUMP2 =    -0.33884205140956D+02
 CCSD(T)
 CCSD(T)= -0.33901109397D+02

 The electronic state is 1-A'.
 Alpha  occ. eigenvalues --   -1.36809  -1.31975  -0.72458  -0.68021  -0.56511
 Alpha  occ. eigenvalues --   -0.51814  -0.51436  -0.46583
 Alpha virt. eigenvalues --    0.18790   0.25755   0.29450   0.36376   0.77195
 Alpha virt. eigenvalues --    0.77394   0.86272   0.87036   0.93812   1.10124
 Alpha virt. eigenvalues --    1.16781   1.19948   1.22254   1.30859   2.54902

 Mulliken charges:
               1
     1  O   -0.766375
     2  H    0.369593
     3  H    0.399161
     4  O   -0.746958
     5  H    0.342693
     6  H    0.401886
 Sum of Mulliken charges =   0.00000

 Dipole moment (field-independent basis, Debye):
    X=             -2.5300    Y=             -2.9454    Z=              0.0000  Tot=              3.8828
 Quadrupole moment (field-independent basis, Debye-Ang):
   XX=            -10.1258   YY=             -3.2619   ZZ=            -15.0041
   XY=             -4.1612   XZ=              0.0000   YZ=              0.0000

 7\MP4DQ=-33.8952774\MP4SDQ=-33.8974016\CCSD=-33.8984058\CCSD(T)=-33.90
 Normal termination of Gaussian 16 at Sun Dec 10 06:47:10 2023.
