 Gaussian 16, Revision A.03,
 Gaussian 16:  ES64L-G16RevA.03 25-Dec-2016

 ------------------
 #p CCSD(T)/CEP-31G
 ------------------

 -----------
 H2O_H2O_638
 -----------
 Symbolic Z-matrix:
 Charge =  0 Multiplicity = 1

                         Standard orientation:
 ---------------------------------------------------------------------
 Center     Atomic      Atomic             Coordinates (Angstroms)
 Number     Number       Type             X           Y           Z
 ---------------------------------------------------------------------
      1          8           0        0.043003   -1.115012    0.000000
      2          1           0       -0.758425   -1.683536    0.000000
      3          1           0        0.840709   -1.688747    0.000000
      4          8           0        0.043003    1.153644    0.000000
      5          1           0        0.143983    2.131043    0.000000
      6          1           0       -0.914318    0.932185    0.000000
 ---------------------------------------------------------------------

 SCF Done:  E(RHF) =  -33.6275947388     A.U. after   11 cycles
 E2 =    -0.2308637236D+00 EUMP2 =    -0.33858458462435D+02
 CCSD(T)
 CCSD(T)= -0.33875820605D+02

 The electronic state is 1-A'.
 Alpha  occ. eigenvalues --   -1.33995  -1.31516  -0.69594  -0.67618  -0.55460
 Alpha  occ. eigenvalues --   -0.48720  -0.47652  -0.45648
 Alpha virt. eigenvalues --    0.20431   0.25758   0.31753   0.33213   0.78899
 Alpha virt. eigenvalues --    0.83468   0.89462   0.94200   0.98517   1.14300
 Alpha virt. eigenvalues --    1.19028   1.22474   1.24124   1.30986   2.55528

 Mulliken charges:
               1
     1  O   -0.738737
     2  H    0.347678
     3  H    0.378662
     4  O   -0.683844
     5  H    0.340894
     6  H    0.355345
 Sum of Mulliken charges =   0.00000

 Dipole moment (field-independent basis, Debye):
    X=             -1.7824    Y=             -0.9452    Z=              0.0000  Tot=              2.0175
 Quadrupole moment (field-independent basis, Debye-Ang):
   XX=             -9.3352   YY=             -2.3709   ZZ=            -14.9967
   XY=             -1.6122   XZ=              0.0000   YZ=              0.0000

 MP4DQ=-33.8697818\MP4SDQ=-33.8719797\CCSD=-33.8730265\CCSD(T)=-33.8758
 Normal termination of Gaussian 16 at Sun Dec 10 06:36:40 2023.
