 Gaussian 16, Revision A.03,
 Gaussian 16:  ES64L-G16RevA.03 25-Dec-2016

 ------------------
 #p CCSD(T)/CEP-31G
 ------------------

 -----------
 H2O_H2O_274
 -----------
 Symbolic Z-matrix:
 Charge =  0 Multiplicity = 1

                         Standard orientation:
 ---------------------------------------------------------------------
 Center     Atomic      Atomic             Coordinates (Angstroms)
 Number     Number       Type             X           Y           Z
 ---------------------------------------------------------------------
      1          8           0        0.057414   -0.874843    0.000000
      2          1           0       -0.745160   -1.441748    0.000000
      3          1           0        0.853960   -1.450187    0.000000
      4          8           0        0.057414    0.988466    0.000000
      5          1           0       -0.509491    1.791039    0.000000
      6          1           0       -0.517930    0.191919    0.000000
 ---------------------------------------------------------------------

 SCF Done:  E(RHF) =  -33.5409632147     A.U. after   11 cycles
 E2 =    -0.2326881576D+00 EUMP2 =    -0.33773651372336D+02
 CCSD(T)
 CCSD(T)= -0.33788988960D+02

 The electronic state is 1-A'.
 Alpha  occ. eigenvalues --   -1.42817  -1.27871  -0.79533  -0.73205  -0.55561
 Alpha  occ. eigenvalues --   -0.48694  -0.46649  -0.42181
 Alpha virt. eigenvalues --    0.18251   0.26904   0.30406   0.39706   0.77096
 Alpha virt. eigenvalues --    0.84687   0.90892   0.92842   0.97983   1.15570
 Alpha virt. eigenvalues --    1.17442   1.23025   1.33235   1.35750   2.91867

 Mulliken charges:
               1
     1  O   -0.788401
     2  H    0.375781
     3  H    0.464429
     4  O   -0.706407
     5  H    0.287892
     6  H    0.366706
 Sum of Mulliken charges =  -0.00000

 Dipole moment (field-independent basis, Debye):
    X=             -2.1484    Y=             -3.4746    Z=              0.0000  Tot=              4.0851
 Quadrupole moment (field-independent basis, Debye-Ang):
   XX=            -10.0790   YY=             -7.7808   ZZ=            -14.9324
   XY=             -2.7115   XZ=              0.0000   YZ=              0.0000

 MP4DQ=-33.7824312\MP4SDQ=-33.784966\CCSD=-33.7855988\CCSD(T)=-33.78898
 Normal termination of Gaussian 16 at Sun Dec 10 06:29:53 2023.
