 Gaussian 16, Revision A.03,
 Gaussian 16:  ES64L-G16RevA.03 25-Dec-2016

 ------------------
 #p CCSD(T)/CEP-31G
 ------------------

 ------------
 H2O_H2O_1099
 ------------
 Symbolic Z-matrix:
 Charge =  0 Multiplicity = 1

                         Standard orientation:
 ---------------------------------------------------------------------
 Center     Atomic      Atomic             Coordinates (Angstroms)
 Number     Number       Type             X           Y           Z
 ---------------------------------------------------------------------
      1          8           0        0.057318   -1.313507    0.000000
      2          1           0       -0.744297   -1.881767    0.000000
      3          1           0        0.854835   -1.887504    0.000000
      4          8           0        0.057318    1.427323    0.000000
      5          1           0       -0.510942    2.228938    0.000000
      6          1           0       -0.516679    0.629805    0.000000
 ---------------------------------------------------------------------

 SCF Done:  E(RHF) =  -33.6540290140     A.U. after   11 cycles
 E2 =    -0.2295274846D+00 EUMP2 =    -0.33883556498641D+02
 CCSD(T)
 CCSD(T)= -0.33900414498D+02

 The electronic state is 1-A'.
 Alpha  occ. eigenvalues --   -1.36954  -1.31697  -0.72603  -0.68029  -0.56435
 Alpha  occ. eigenvalues --   -0.51580  -0.51554  -0.46298
 Alpha virt. eigenvalues --    0.18761   0.26126   0.29357   0.36838   0.76879
 Alpha virt. eigenvalues --    0.78188   0.86905   0.87323   0.95344   1.10529
 Alpha virt. eigenvalues --    1.17241   1.19939   1.22768   1.31240   2.56829

 Mulliken charges:
               1
     1  O   -0.770624
     2  H    0.370036
     3  H    0.403428
     4  O   -0.744333
     5  H    0.339745
     6  H    0.401749
 Sum of Mulliken charges =  -0.00000

 Dipole moment (field-independent basis, Debye):
    X=             -2.5094    Y=             -2.9725    Z=              0.0000  Tot=              3.8901
 Quadrupole moment (field-independent basis, Debye-Ang):
   XX=            -10.1227   YY=             -3.6255   ZZ=            -15.0060
   XY=             -4.0190   XZ=              0.0000   YZ=              0.0000

 MP4DQ=-33.8945496\MP4SDQ=-33.8966891\CCSD=-33.8976816\CCSD(T)=-33.9004
 Normal termination of Gaussian 16 at Sun Dec 10 06:45:18 2023.
