 Gaussian 16, Revision A.03,
 Gaussian 16:  ES64L-G16RevA.03 25-Dec-2016

 ------------------
 #p CCSD(T)/CEP-31G
 ------------------

 ------------
 H2O_H2O_1449
 ------------
 Symbolic Z-matrix:
 Charge =  0 Multiplicity = 1

                         Standard orientation:
 ---------------------------------------------------------------------
 Center     Atomic      Atomic             Coordinates (Angstroms)
 Number     Number       Type             X           Y           Z
 ---------------------------------------------------------------------
      1          8           0        0.057293   -1.499624    0.000000
      2          1           0       -0.744078   -2.068228    0.000000
      3          1           0        0.855056   -2.073279    0.000000
      4          8           0        0.057293    1.613489    0.000000
      5          1           0       -0.511310    2.414861    0.000000
      6          1           0       -0.516361    0.815726    0.000000
 ---------------------------------------------------------------------

 SCF Done:  E(RHF) =  -33.6552711938     A.U. after   11 cycles
 E2 =    -0.2290489928D+00 EUMP2 =    -0.33884320186613D+02
 CCSD(T)
 CCSD(T)= -0.33901277996D+02

 The electronic state is 1-A'.
 Alpha  occ. eigenvalues --   -1.36545  -1.32563  -0.72194  -0.68256  -0.56458
 Alpha  occ. eigenvalues --   -0.52373  -0.51166  -0.47177
 Alpha virt. eigenvalues --    0.18847   0.24876   0.29619   0.35230   0.76862
 Alpha virt. eigenvalues --    0.78048   0.84827   0.86511   0.90328   1.06374
 Alpha virt. eigenvalues --    1.16375   1.20170   1.21629   1.30029   2.52823

 Mulliken charges:
               1
     1  O   -0.757974
     2  H    0.369073
     3  H    0.390811
     4  O   -0.750004
     5  H    0.348682
     6  H    0.399411
 Sum of Mulliken charges =   0.00000

 Dipole moment (field-independent basis, Debye):
    X=             -2.5673    Y=             -2.8890    Z=              0.0000  Tot=              3.8649
 Quadrupole moment (field-independent basis, Debye-Ang):
   XX=            -10.1338   YY=             -2.4087   ZZ=            -14.9999
   XY=             -4.5104   XZ=              0.0000   YZ=              0.0000

 2\MP4DQ=-33.8955111\MP4SDQ=-33.8976064\CCSD=-33.8986282\CCSD(T)=-33.90
 Normal termination of Gaussian 16 at Sun Dec 10 06:51:50 2023.
