 Gaussian 16, Revision A.03,
 Gaussian 16:  ES64L-G16RevA.03 25-Dec-2016

 ------------------
 #p CCSD(T)/CEP-31G
 ------------------

 ------------
 H2O_H2O_2228
 ------------
 Symbolic Z-matrix:
 Charge =  0 Multiplicity = 1

                         Standard orientation:
 ---------------------------------------------------------------------
 Center     Atomic      Atomic             Coordinates (Angstroms)
 Number     Number       Type             X           Y           Z
 ---------------------------------------------------------------------
      1          8           0        0.011143   -1.985749    0.000000
      2          1           0       -0.788704   -2.556495    0.000000
      3          1           0        0.810438   -2.557267    0.000000
      4          8           0        0.011143    1.987933    0.000000
      5          1           0        0.684273    2.703754    0.000000
      6          1           0       -0.884292    2.392534    0.000000
 ---------------------------------------------------------------------

 SCF Done:  E(RHF) =  -33.6471575642     A.U. after   11 cycles
 E2 =    -0.2286947729D+00 EUMP2 =    -0.33875852337147D+02
 CCSD(T)
 CCSD(T)= -0.33892989579D+02

 The electronic state is 1-A'.
 Alpha  occ. eigenvalues --   -1.34159  -1.34115  -0.69780  -0.69732  -0.53828
 Alpha  occ. eigenvalues --   -0.53354  -0.48680  -0.48603
 Alpha virt. eigenvalues --    0.21057   0.21704   0.31530   0.31695   0.79738
 Alpha virt. eigenvalues --    0.81366   0.82439   0.86945   0.89346   0.92396
 Alpha virt. eigenvalues --    1.18553   1.18597   1.22965   1.23208   2.58284

 Mulliken charges:
               1
     1  O   -0.725201
     2  H    0.361568
     3  H    0.363643
     4  O   -0.724992
     5  H    0.361238
     6  H    0.363744
 Sum of Mulliken charges =  -0.00000

 Dipole moment (field-independent basis, Debye):
    X=             -0.5090    Y=             -0.0529    Z=              0.0000  Tot=              0.5118
 Quadrupole moment (field-independent basis, Debye-Ang):
   XX=             -8.1723   YY=              8.7335   ZZ=            -14.9841
   XY=             -0.7031   XZ=              0.0000   YZ=              0.0000

 \MP4DQ=-33.8872985\MP4SDQ=-33.8893458\CCSD=-33.8904053\CCSD(T)=-33.892
 Normal termination of Gaussian 16 at Sun Dec 10 07:07:30 2023.
