 Gaussian 16, Revision A.03,
 Gaussian 16:  ES64L-G16RevA.03 25-Dec-2016

 ------------------
 #p CCSD(T)/CEP-31G
 ------------------

 ------------
 H2O_H2O_1997
 ------------
 Symbolic Z-matrix:
 Charge =  0 Multiplicity = 1

                         Standard orientation:
 ---------------------------------------------------------------------
 Center     Atomic      Atomic             Coordinates (Angstroms)
 Number     Number       Type             X           Y           Z
 ---------------------------------------------------------------------
      1          8           0        0.056755   -1.800198    0.000000
      2          1           0       -0.744318   -2.369221    0.000000
      3          1           0        0.854818   -2.373436    0.000000
      4          8           0        0.056755    1.899216    0.000000
      5          1           0       -0.402839    2.767710    0.000000
      6          1           0       -0.615746    1.182803    0.000000
 ---------------------------------------------------------------------

 SCF Done:  E(RHF) =  -33.6530490939     A.U. after   11 cycles
 E2 =    -0.2286456248D+00 EUMP2 =    -0.33881694718736D+02
 CCSD(T)
 CCSD(T)= -0.33898684903D+02

 The electronic state is 1-A'.
 Alpha  occ. eigenvalues --   -1.35906  -1.33545  -0.71547  -0.69103  -0.55715
 Alpha  occ. eigenvalues --   -0.53286  -0.50493  -0.48135
 Alpha virt. eigenvalues --    0.19279   0.23041   0.30078   0.32842   0.78587
 Alpha virt. eigenvalues --    0.79716   0.82732   0.85809   0.86556   0.96242
 Alpha virt. eigenvalues --    1.17003   1.19946   1.21455   1.26361   2.55329

 Mulliken charges:
               1
     1  O   -0.744985
     2  H    0.366937
     3  H    0.379139
     4  O   -0.743174
     5  H    0.356721
     6  H    0.385362
 Sum of Mulliken charges =   0.00000

 Dipole moment (field-independent basis, Debye):
    X=             -2.5823    Y=             -2.4280    Z=              0.0000  Tot=              3.5445
 Quadrupole moment (field-independent basis, Debye-Ang):
   XX=            -10.1112   YY=              0.6088   ZZ=            -14.9928
   XY=             -4.9532   XZ=              0.0000   YZ=              0.0000

 MP4DQ=-33.8930043\MP4SDQ=-33.8950597\CCSD=-33.8960979\CCSD(T)=-33.8986
 Normal termination of Gaussian 16 at Sun Dec 10 07:03:21 2023.
