 Gaussian 16, Revision A.03,
 Gaussian 16:  ES64L-G16RevA.03 25-Dec-2016

 ------------------
 #p CCSD(T)/CEP-31G
 ------------------

 -----------
 H2O_H2O_753
 -----------
 Symbolic Z-matrix:
 Charge =  0 Multiplicity = 1

                         Standard orientation:
 ---------------------------------------------------------------------
 Center     Atomic      Atomic             Coordinates (Angstroms)
 Number     Number       Type             X           Y           Z
 ---------------------------------------------------------------------
      1          8           0        0.011143   -1.201294    0.000000
      2          1           0       -0.788883   -1.771788    0.000000
      3          1           0        0.810258   -1.773063    0.000000
      4          8           0        0.011143    1.203471    0.000000
      5          1           0        0.684499    1.919080    0.000000
      6          1           0       -0.884164    1.608354    0.000000
 ---------------------------------------------------------------------

 SCF Done:  E(RHF) =  -33.6267932568     A.U. after   11 cycles
 E2 =    -0.2302945055D+00 EUMP2 =    -0.33857087762336D+02
 CCSD(T)
 CCSD(T)= -0.33874497727D+02

 The electronic state is 1-A'.
 Alpha  occ. eigenvalues --   -1.32742  -1.31796  -0.68224  -0.67510  -0.55263
 Alpha  occ. eigenvalues --   -0.47502  -0.46805  -0.45724
 Alpha virt. eigenvalues --    0.21495   0.24483   0.32735   0.33022   0.78927
 Alpha virt. eigenvalues --    0.79572   0.89281   0.92106   1.03754   1.11151
 Alpha virt. eigenvalues --    1.19792   1.22036   1.24124   1.25793   2.54113

 Mulliken charges:
               1
     1  O   -0.700672
     2  H    0.345965
     3  H    0.353955
     4  O   -0.697561
     5  H    0.349225
     6  H    0.349088
 Sum of Mulliken charges =  -0.00000

 Dipole moment (field-independent basis, Debye):
    X=             -0.4682    Y=             -0.0518    Z=              0.0000  Tot=              0.4711
 Quadrupole moment (field-independent basis, Debye-Ang):
   XX=             -8.3349   YY=             -0.6255   ZZ=            -15.0001
   XY=             -0.3318   XZ=              0.0000   YZ=              0.0000

 4DQ=-33.868539\MP4SDQ=-33.87066\CCSD=-33.8717479\CCSD(T)=-33.8744977\R
 Normal termination of Gaussian 16 at Sun Dec 10 06:38:49 2023.
