 Gaussian 16, Revision A.03,
 Gaussian 16:  ES64L-G16RevA.03 25-Dec-2016

 ------------------
 #p CCSD(T)/CEP-31G
 ------------------

 ----------
 H2O_H2O_25
 ----------
 Symbolic Z-matrix:
 Charge =  0 Multiplicity = 1

                         Standard orientation:
 ---------------------------------------------------------------------
 Center     Atomic      Atomic             Coordinates (Angstroms)
 Number     Number       Type             X           Y           Z
 ---------------------------------------------------------------------
      1          8           0        0.000000   -0.000000    0.816895
      2          1           0        0.000000    0.799571    1.388027
      3          1           0       -0.000000   -0.799571    1.388027
      4          8           0        0.000000   -0.000000   -0.816895
      5          1           0       -0.000000   -0.799571   -1.388027
      6          1           0        0.000000    0.799571   -1.388027
 ---------------------------------------------------------------------

 SCF Done:  E(RHF) =  -33.4696766403     A.U. after   10 cycles
 E2 =    -0.2400219231D+00 EUMP2 =    -0.33709698563342D+02
 CCSD(T)
 CCSD(T)= -0.33725843026D+02

 The electronic state is 1-AG.
 Alpha  occ. eigenvalues --   -1.37497  -1.28838  -0.70790  -0.67408  -0.65342
 Alpha  occ. eigenvalues --   -0.52125  -0.42352  -0.30184
 Alpha virt. eigenvalues --    0.21094   0.28922   0.31411   0.33706   0.79737
 Alpha virt. eigenvalues --    0.82262   0.87322   0.88797   1.04176   1.18810
 Alpha virt. eigenvalues --    1.20401   1.25272   1.27856   1.40345   2.52275

 Mulliken charges:
               1
     1  O   -0.684497
     2  H    0.342249
     3  H    0.342249
     4  O   -0.684497
     5  H    0.342249
     6  H    0.342249
 Sum of Mulliken charges =  -0.00000

 Dipole moment (field-independent basis, Debye):
    X=             -0.0000    Y=             -0.0000    Z=              0.0000  Tot=              0.0000
 Quadrupole moment (field-independent basis, Debye-Ang):
   XX=            -15.0297   YY=             -8.5992   ZZ=             -8.1062
   XY=              0.0000   XZ=              0.0000   YZ=              0.0000

 3.7187872\MP4SDQ=-33.7216963\CCSD=-33.7221482\CCSD(T)=-33.725843\RMSD=
 Normal termination of Gaussian 16 at Sun Dec 10 06:25:11 2023.
