 Gaussian 16, Revision A.03,
 Gaussian 16:  ES64L-G16RevA.03 25-Dec-2016

 ------------------
 #p CCSD(T)/CEP-31G
 ------------------

 -----------
 H2O_H2O_139
 -----------
 Symbolic Z-matrix:
 Charge =  0 Multiplicity = 1

                         Standard orientation:
 ---------------------------------------------------------------------
 Center     Atomic      Atomic             Coordinates (Angstroms)
 Number     Number       Type             X           Y           Z
 ---------------------------------------------------------------------
      1          8           0        0.045411   -0.846023    0.000000
      2          1           0       -0.756718   -1.413557    0.000000
      3          1           0        0.842408   -1.420741    0.000000
      4          8           0        0.045411    0.890305    0.000000
      5          1           0        0.083462    1.872170    0.000000
      6          1           0       -0.895726    0.607870    0.000000
 ---------------------------------------------------------------------

 SCF Done:  E(RHF) =  -33.5299572385     A.U. after   11 cycles
 E2 =    -0.2355559441D+00 EUMP2 =    -0.33765513182549D+02
 CCSD(T)
 CCSD(T)= -0.33782467479D+02

 The electronic state is 1-A'.
 Alpha  occ. eigenvalues --   -1.37673  -1.29261  -0.73250  -0.69154  -0.57381
 Alpha  occ. eigenvalues --   -0.51862  -0.43306  -0.39000
 Alpha virt. eigenvalues --    0.20079   0.28627   0.30939   0.33527   0.80855
 Alpha virt. eigenvalues --    0.84643   0.89401   0.95026   0.97483   1.19451
 Alpha virt. eigenvalues --    1.20887   1.25972   1.27374   1.36819   2.57851

 Mulliken charges:
               1
     1  O   -0.762755
     2  H    0.341837
     3  H    0.396797
     4  O   -0.643339
     5  H    0.318267
     6  H    0.349192
 Sum of Mulliken charges =  -0.00000

 Dipole moment (field-independent basis, Debye):
    X=             -1.6583    Y=             -1.1363    Z=              0.0000  Tot=              2.0102
 Quadrupole moment (field-independent basis, Debye-Ang):
   XX=             -9.5118   YY=             -6.8810   ZZ=            -14.9615
   XY=             -1.2657   XZ=              0.0000   YZ=              0.0000

 MP4DQ=-33.7758112\MP4SDQ=-33.7784279\CCSD=-33.77915\CCSD(T)=-33.782467
 Normal termination of Gaussian 16 at Sun Dec 10 06:27:20 2023.
