 Gaussian 16, Revision A.03,
 Gaussian 16:  ES64L-G16RevA.03 25-Dec-2016

 ------------------
 #p CCSD(T)/CEP-31G
 ------------------

 -----------
 H2O_H2O_587
 -----------
 Symbolic Z-matrix:
 Charge =  0 Multiplicity = 1

                         Standard orientation:
 ---------------------------------------------------------------------
 Center     Atomic      Atomic             Coordinates (Angstroms)
 Number     Number       Type             X           Y           Z
 ---------------------------------------------------------------------
      1          8           0        0.040437   -1.091369    0.000000
      2          1           0       -0.760922   -1.659990    0.000000
      3          1           0        0.838212   -1.665007    0.000000
      4          8           0        0.040437    1.124572    0.000000
      5          1           0        0.205009    2.093293    0.000000
      6          1           0       -0.929299    0.966083    0.000000
 ---------------------------------------------------------------------

 SCF Done:  E(RHF) =  -33.6230343707     A.U. after   11 cycles
 E2 =    -0.2310589688D+00 EUMP2 =    -0.33854093339534D+02
 CCSD(T)
 CCSD(T)= -0.33871453929D+02

 The electronic state is 1-A'.
 Alpha  occ. eigenvalues --   -1.33830  -1.31376  -0.69394  -0.67506  -0.55843
 Alpha  occ. eigenvalues --   -0.48599  -0.46722  -0.45420
 Alpha virt. eigenvalues --    0.20578   0.25826   0.31922   0.33182   0.79191
 Alpha virt. eigenvalues --    0.83079   0.89664   0.95301   0.99513   1.14042
 Alpha virt. eigenvalues --    1.19158   1.22757   1.24401   1.30865   2.54084

 Mulliken charges:
               1
     1  O   -0.736205
     2  H    0.346151
     3  H    0.377035
     4  O   -0.681745
     5  H    0.342668
     6  H    0.352097
 Sum of Mulliken charges =   0.00000

 Dipole moment (field-independent basis, Debye):
    X=             -1.6599    Y=             -0.8052    Z=              0.0000  Tot=              1.8449
 Quadrupole moment (field-independent basis, Debye-Ang):
   XX=             -9.2229   YY=             -2.5822   ZZ=            -14.9986
   XY=             -1.4108   XZ=              0.0000   YZ=              0.0000

 P4DQ=-33.8653882\MP4SDQ=-33.8675955\CCSD=-33.8686388\CCSD(T)=-33.87145
 Normal termination of Gaussian 16 at Sun Dec 10 06:35:43 2023.
