 Gaussian 16, Revision A.03,
 Gaussian 16:  ES64L-G16RevA.03 25-Dec-2016

 ------------------
 #p CCSD(T)/CEP-31G
 ------------------

 -----------
 H2O_H2O_299
 -----------
 Symbolic Z-matrix:
 Charge =  0 Multiplicity = 1

                         Standard orientation:
 ---------------------------------------------------------------------
 Center     Atomic      Atomic             Coordinates (Angstroms)
 Number     Number       Type             X           Y           Z
 ---------------------------------------------------------------------
      1          8           0        0.057410   -0.888135    0.000000
      2          1           0       -0.745122   -1.455099    0.000000
      3          1           0        0.853998   -1.463419    0.000000
      4          8           0        0.057410    1.001766    0.000000
      5          1           0       -0.509555    1.804297    0.000000
      6          1           0       -0.517875    0.205176    0.000000
 ---------------------------------------------------------------------

 SCF Done:  E(RHF) =  -33.5523450395     A.U. after   11 cycles
 E2 =    -0.2324753082D+00 EUMP2 =    -0.33784820347724D+02
 CCSD(T)
 CCSD(T)= -0.33800227997D+02

 The electronic state is 1-A'.
 Alpha  occ. eigenvalues --   -1.42296  -1.28040  -0.78963  -0.72951  -0.55270
 Alpha  occ. eigenvalues --   -0.48882  -0.47280  -0.42363
 Alpha virt. eigenvalues --    0.18278   0.27067   0.30212   0.39683   0.77036
 Alpha virt. eigenvalues --    0.84799   0.90844   0.92983   0.98186   1.15819
 Alpha virt. eigenvalues --    1.17554   1.22137   1.33053   1.34730   2.91347

 Mulliken charges:
               1
     1  O   -0.792232
     2  H    0.376225
     3  H    0.461875
     4  O   -0.706201
     5  H    0.290891
     6  H    0.369442
 Sum of Mulliken charges =   0.00000

 Dipole moment (field-independent basis, Debye):
    X=             -2.1665    Y=             -3.4448    Z=              0.0000  Tot=              4.0694
 Quadrupole moment (field-independent basis, Debye-Ang):
   XX=            -10.0809   YY=             -7.5993   ZZ=            -14.9416
   XY=             -2.7564   XZ=              0.0000   YZ=              0.0000

 P4DQ=-33.7937203\MP4SDQ=-33.7962241\CCSD=-33.7968797\CCSD(T)=-33.80022
 Normal termination of Gaussian 16 at Sun Dec 10 06:30:21 2023.
