 Gaussian 16, Revision A.03,
 Gaussian 16:  ES64L-G16RevA.03 25-Dec-2016

 ------------------
 #p CCSD(T)/CEP-31G
 ------------------

 ------------
 H2O_H2O_3444
 ------------
 Symbolic Z-matrix:
 Charge =  0 Multiplicity = 1

                         Standard orientation:
 ---------------------------------------------------------------------
 Center     Atomic      Atomic             Coordinates (Angstroms)
 Number     Number       Type             X           Y           Z
 ---------------------------------------------------------------------
      1          8           0        0.054151   -2.583148    0.000000
      2          1           0       -0.746433   -3.152859    0.000000
      3          1           0        0.852707   -3.155699    0.000000
      4          8           0        0.054151    2.660465    0.000000
      5          1           0       -0.227987    3.601690    0.000000
      6          1           0       -0.744702    2.088329    0.000000
 ---------------------------------------------------------------------

 SCF Done:  E(RHF) =  -33.6515727072     A.U. after   11 cycles
 E2 =    -0.2284179020D+00 EUMP2 =    -0.33879990609176D+02
 CCSD(T)
 CCSD(T)= -0.33896997038D+02

 The electronic state is 1-A'.
 Alpha  occ. eigenvalues --   -1.35485  -1.34630  -0.71117  -0.70239  -0.55209
 Alpha  occ. eigenvalues --   -0.54341  -0.50053  -0.49199
 Alpha virt. eigenvalues --    0.20260   0.21166   0.30512   0.31376   0.80501
 Alpha virt. eigenvalues --    0.81337   0.83473   0.84455   0.86646   0.87635
 Alpha virt. eigenvalues --    1.17408   1.18258   1.21866   1.22740   2.57423

 Mulliken charges:
               1
     1  O   -0.740407
     2  H    0.367940
     3  H    0.372472
     4  O   -0.739669
     5  H    0.365237
     6  H    0.374427
 Sum of Mulliken charges =  -0.00000

 Dipole moment (field-independent basis, Debye):
    X=             -2.4930    Y=             -1.8228    Z=              0.0000  Tot=              3.0883
 Quadrupole moment (field-independent basis, Debye-Ang):
   XX=             -9.9398   YY=              7.9302   ZZ=            -14.9887
   XY=             -6.2396   XZ=              0.0000   YZ=              0.0000

 \MP4DQ=-33.8913508\MP4SDQ=-33.8933795\CCSD=-33.8944341\CCSD(T)=-33.896
 Normal termination of Gaussian 16 at Sun Dec 10 06:41:52 2023.
