 Gaussian 16, Revision A.03,
 Gaussian 16:  ES64L-G16RevA.03 25-Dec-2016

 ------------------
 #p CCSD(T)/CEP-31G
 ------------------

 -----------
 H2O_H2O_935
 -----------
 Symbolic Z-matrix:
 Charge =  0 Multiplicity = 1

                         Standard orientation:
 ---------------------------------------------------------------------
 Center     Atomic      Atomic             Coordinates (Angstroms)
 Number     Number       Type             X           Y           Z
 ---------------------------------------------------------------------
      1          8           0        0.034795   -1.282813    0.000000
      2          1           0       -0.766094   -1.852095    0.000000
      3          1           0        0.833044   -1.855792    0.000000
      4          8           0        0.034795    1.306257    0.000000
      5          1           0        0.323628    2.245450    0.000000
      6          1           0       -0.947306    1.274888    0.000000
 ---------------------------------------------------------------------

 SCF Done:  E(RHF) =  -33.6371701736     A.U. after   11 cycles
 E2 =    -0.2298841144D+00 EUMP2 =    -0.33867054288044D+02
 CCSD(T)
 CCSD(T)= -0.33884461889D+02

 The electronic state is 1-A'.
 Alpha  occ. eigenvalues --   -1.33477  -1.32347  -0.69077  -0.67998  -0.54556
 Alpha  occ. eigenvalues --   -0.49442  -0.48110  -0.46569
 Alpha virt. eigenvalues --    0.20805   0.24312   0.32084   0.32777   0.78991
 Alpha virt. eigenvalues --    0.81867   0.85257   0.88123   0.97779   1.14833
 Alpha virt. eigenvalues --    1.19081   1.22548   1.23850   1.27103   2.57063

 Mulliken charges:
               1
     1  O   -0.717996
     2  H    0.347558
     3  H    0.366799
     4  O   -0.698348
     5  H    0.345698
     6  H    0.356289
 Sum of Mulliken charges =  -0.00000

 Dipole moment (field-independent basis, Debye):
    X=             -1.5025    Y=             -0.5771    Z=              0.0000  Tot=              1.6096
 Quadrupole moment (field-independent basis, Debye-Ang):
   XX=             -8.9402   YY=              0.0698   ZZ=            -14.9910
   XY=             -1.3930   XZ=              0.0000   YZ=              0.0000

 P4DQ=-33.8785602\MP4SDQ=-33.8806883\CCSD=-33.8817698\CCSD(T)=-33.88446
 Normal termination of Gaussian 16 at Sun Dec 10 06:42:15 2023.
