 Gaussian 16, Revision A.03,
 Gaussian 16:  ES64L-G16RevA.03 25-Dec-2016

 ------------------
 #p CCSD(T)/CEP-31G
 ------------------

 ------------
 H2O_H2O_4464
 ------------
 Symbolic Z-matrix:
 Charge =  0 Multiplicity = 1

                         Standard orientation:
 ---------------------------------------------------------------------
 Center     Atomic      Atomic             Coordinates (Angstroms)
 Number     Number       Type             X           Y           Z
 ---------------------------------------------------------------------
      1          8           0        0.045338   -3.146061    0.000000
      2          1           0       -0.754935   -3.716208    0.000000
      3          1           0        0.844206   -3.718177    0.000000
      4          8           0        0.045338    3.190639    0.000000
      5          1           0        0.080186    4.172623    0.000000
      6          1           0       -0.894872    2.905136    0.000000
 ---------------------------------------------------------------------

 SCF Done:  E(RHF) =  -33.6512141745     A.U. after   11 cycles
 E2 =    -0.2284155147D+00 EUMP2 =    -0.33879629689166D+02
 CCSD(T)
 CCSD(T)= -0.33896646521D+02

 The electronic state is 1-A'.
 Alpha  occ. eigenvalues --   -1.35299  -1.34966  -0.70929  -0.70589  -0.55002
 Alpha  occ. eigenvalues --   -0.54667  -0.49861  -0.49529
 Alpha virt. eigenvalues --    0.20441   0.20780   0.30677   0.31007   0.80691
 Alpha virt. eigenvalues --    0.81019   0.83771   0.84100   0.86862   0.87238
 Alpha virt. eigenvalues --    1.17579   1.17908   1.22041   1.22374   2.57610

 Mulliken charges:
               1
     1  O   -0.739086
     2  H    0.368391
     3  H    0.370695
     4  O   -0.738770
     5  H    0.367413
     6  H    0.371358
 Sum of Mulliken charges =   0.00000

 Dipole moment (field-independent basis, Debye):
    X=             -2.0927    Y=             -1.0426    Z=              0.0000  Tot=              2.3380
 Quadrupole moment (field-independent basis, Debye-Ang):
   XX=             -9.3720   YY=             16.2026   ZZ=            -14.9877
   XY=             -5.8754   XZ=              0.0000   YZ=              0.0000

 \MP4DQ=-33.8909979\MP4SDQ=-33.8930272\CCSD=-33.8940835\CCSD(T)=-33.896
 Normal termination of Gaussian 16 at Sun Dec 10 07:00:44 2023.
