 Gaussian 16, Revision A.03,
 Gaussian 16:  ES64L-G16RevA.03 25-Dec-2016

 ------------------
 #p CCSD(T)/CEP-31G
 ------------------

 ------------
 H2O_H2O_3925
 ------------
 Symbolic Z-matrix:
 Charge =  0 Multiplicity = 1

                         Standard orientation:
 ---------------------------------------------------------------------
 Center     Atomic      Atomic             Coordinates (Angstroms)
 Number     Number       Type             X           Y           Z
 ---------------------------------------------------------------------
      1          8           0        0.000000    0.000000   -2.891057
      2          1           0        0.000000    0.799571   -3.462189
      3          1           0       -0.000000   -0.799571   -3.462189
      4          8           0       -0.000000    0.000000    2.891057
      5          1           0       -0.000000   -0.799571    3.462189
      6          1           0       -0.000000    0.799571    3.462189
 ---------------------------------------------------------------------

 SCF Done:  E(RHF) =  -33.6502227036     A.U. after   10 cycles
 E2 =    -0.2284632504D+00 EUMP2 =    -0.33878685954093D+02
 CCSD(T)
 CCSD(T)= -0.33895731307D+02

 The electronic state is 1-AG.
 Alpha  occ. eigenvalues --   -1.34872  -1.34872  -0.70499  -0.70499  -0.54521
 Alpha  occ. eigenvalues --   -0.54517  -0.49420  -0.49420
 Alpha virt. eigenvalues --    0.20808   0.20818   0.31042   0.31043   0.81131
 Alpha virt. eigenvalues --    0.81136   0.84254   0.84376   0.87356   0.87366
 Alpha virt. eigenvalues --    1.17963   1.17963   1.22433   1.22435   2.58014

 Mulliken charges:
               1
     1  O   -0.735574
     2  H    0.367787
     3  H    0.367787
     4  O   -0.735574
     5  H    0.367787
     6  H    0.367787
 Sum of Mulliken charges =  -0.00000

 Dipole moment (field-independent basis, Debye):
    X=              0.0000    Y=             -0.0000    Z=              0.0000  Tot=              0.0000
 Quadrupole moment (field-independent basis, Debye-Ang):
   XX=            -14.9863   YY=             -8.0443   ZZ=             18.6450
   XY=             -0.0000   XZ=              0.0000   YZ=             -0.0000

 3.8900749\MP4SDQ=-33.8921068\CCSD=-33.893165\CCSD(T)=-33.8957313\RMSD=
 Normal termination of Gaussian 16 at Sun Dec 10 06:50:43 2023.
