 Gaussian 16, Revision A.03,
 Gaussian 16:  ES64L-G16RevA.03 25-Dec-2016

 ------------------
 #p CCSD(T)/CEP-31G
 ------------------

 ------------
 H2O_H2O_4094
 ------------
 Symbolic Z-matrix:
 Charge =  0 Multiplicity = 1

                         Standard orientation:
 ---------------------------------------------------------------------
 Center     Atomic      Atomic             Coordinates (Angstroms)
 Number     Number       Type             X           Y           Z
 ---------------------------------------------------------------------
      1          8           0        0.054143   -2.928830    0.000000
      2          1           0       -0.746323   -3.498707    0.000000
      3          1           0        0.852817   -3.501215    0.000000
      4          8           0        0.054143    3.006170    0.000000
      5          1           0       -0.228190    3.947337    0.000000
      6          1           0       -0.744592    2.433868    0.000000
 ---------------------------------------------------------------------

 SCF Done:  E(RHF) =  -33.6516296500     A.U. after   11 cycles
 E2 =    -0.2283995496D+00 EUMP2 =    -0.33880029199539D+02
 CCSD(T)
 CCSD(T)= -0.33897033869D+02

 The electronic state is 1-A'.
 Alpha  occ. eigenvalues --   -1.35506  -1.34848  -0.71138  -0.70466  -0.55232
 Alpha  occ. eigenvalues --   -0.54566  -0.50075  -0.49417
 Alpha virt. eigenvalues --    0.20256   0.20933   0.30496   0.31160   0.80478
 Alpha virt. eigenvalues --    0.81125   0.83513   0.84179   0.86623   0.87352
 Alpha virt. eigenvalues --    1.17389   1.18043   1.21849   1.22513   2.57410

 Mulliken charges:
               1
     1  O   -0.740579
     2  H    0.368689
     3  H    0.371891
     4  O   -0.740174
     5  H    0.366819
     6  H    0.373355
 Sum of Mulliken charges =  -0.00000

 Dipole moment (field-independent basis, Debye):
    X=             -2.4971    Y=             -1.8132    Z=              0.0000  Tot=              3.0860
 Quadrupole moment (field-independent basis, Debye-Ang):
   XX=             -9.9416   YY=             10.3892   ZZ=            -14.9886
   XY=             -7.0931   XZ=              0.0000   YZ=              0.0000

 \MP4DQ=-33.8913884\MP4SDQ=-33.8934166\CCSD=-33.8944719\CCSD(T)=-33.897
 Normal termination of Gaussian 16 at Sun Dec 10 06:53:50 2023.
