 Gaussian 16, Revision A.03,
 Gaussian 16:  ES64L-G16RevA.03 25-Dec-2016

 ------------------
 #p CCSD(T)/CEP-31G
 ------------------

 ------------
 H2O_H2O_4102
 ------------
 Symbolic Z-matrix:
 Charge =  0 Multiplicity = 1

                         Standard orientation:
 ---------------------------------------------------------------------
 Center     Atomic      Atomic             Coordinates (Angstroms)
 Number     Number       Type             X           Y           Z
 ---------------------------------------------------------------------
      1          8           0        0.007455   -2.983599    0.000000
      2          1           0       -0.792239   -3.554559    0.000000
      3          1           0        0.806903   -3.554903    0.000000
      4          8           0        0.007455    2.984573    0.000000
      5          1           0        0.725782    3.655030    0.000000
      6          1           0       -0.859725    3.446640    0.000000
 ---------------------------------------------------------------------

 SCF Done:  E(RHF) =  -33.6503829428     A.U. after   11 cycles
 E2 =    -0.2284541792D+00 EUMP2 =    -0.33878837121997D+02
 CCSD(T)
 CCSD(T)= -0.33895877879D+02

 The electronic state is 1-A'.
 Alpha  occ. eigenvalues --   -1.34924  -1.34916  -0.70551  -0.70542  -0.54580
 Alpha  occ. eigenvalues --   -0.54572  -0.49474  -0.49466
 Alpha virt. eigenvalues --    0.20769   0.20779   0.31000   0.31008   0.81079
 Alpha virt. eigenvalues --    0.81088   0.84215   0.84279   0.87298   0.87309
 Alpha virt. eigenvalues --    1.17918   1.17926   1.22387   1.22395   2.57968

 Mulliken charges:
               1
     1  O   -0.736131
     2  H    0.367836
     3  H    0.368295
     4  O   -0.736116
     5  H    0.367744
     6  H    0.368373
 Sum of Mulliken charges =  -0.00000

 Dipole moment (field-independent basis, Debye):
    X=             -0.3439    Y=             -0.0228    Z=              0.0000  Tot=              0.3447
 Quadrupole moment (field-independent basis, Debye-Ang):
   XX=             -8.0779   YY=             19.5388   ZZ=            -14.9865
   XY=             -0.7986   XZ=              0.0000   YZ=              0.0000

 DQ=-33.8902227\MP4SDQ=-33.8922542\CCSD=-33.8933122\CCSD(T)=-33.8958779
 Normal termination of Gaussian 16 at Sun Dec 10 06:54:00 2023.
