 Gaussian 16, Revision A.03,
 Gaussian 16:  ES64L-G16RevA.03 25-Dec-2016

 ------------------
 #p CCSD(T)/CEP-31G
 ------------------

 ------------
 H2O_H2O_1145
 ------------
 Symbolic Z-matrix:
 Charge =  0 Multiplicity = 1

                         Standard orientation:
 ---------------------------------------------------------------------
 Center     Atomic      Atomic             Coordinates (Angstroms)
 Number     Number       Type             X           Y           Z
 ---------------------------------------------------------------------
      1          8           0        0.055311   -1.356135    0.000000
      2          1           0       -0.746196   -1.924549    0.000000
      3          1           0        0.852937   -1.929980    0.000000
      4          8           0        0.055311    1.440423    0.000000
      5          1           0       -0.286289    2.361734    0.000000
      6          1           0       -0.705421    0.818496    0.000000
 ---------------------------------------------------------------------

 SCF Done:  E(RHF) =  -33.6499226771     A.U. after   11 cycles
 E2 =    -0.2295644467D+00 EUMP2 =    -0.33879487123815D+02
 CCSD(T)
 CCSD(T)= -0.33896598699D+02

 The electronic state is 1-A'.
 Alpha  occ. eigenvalues --   -1.35735  -1.32252  -0.71392  -0.68046  -0.55305
 Alpha  occ. eigenvalues --   -0.51895  -0.50318  -0.46813
 Alpha virt. eigenvalues --    0.19360   0.25219   0.30278   0.34146   0.77847
 Alpha virt. eigenvalues --    0.78852   0.86576   0.87247   0.91760   1.14653
 Alpha virt. eigenvalues --    1.17897   1.20379   1.22368   1.29160   2.59250

 Mulliken charges:
               1
     1  O   -0.749176
     2  H    0.360916
     3  H    0.388166
     4  O   -0.726618
     5  H    0.341708
     6  H    0.385005
 Sum of Mulliken charges =  -0.00000

 Dipole moment (field-independent basis, Debye):
    X=             -2.4305    Y=             -2.1480    Z=              0.0000  Tot=              3.2436
 Quadrupole moment (field-independent basis, Debye-Ang):
   XX=             -9.9989   YY=             -1.5734   ZZ=            -14.9966
   XY=             -3.4497   XZ=              0.0000   YZ=              0.0000

 2\MP4DQ=-33.8907551\MP4SDQ=-33.8928869\CCSD=-33.8939172\CCSD(T)=-33.89
 Normal termination of Gaussian 16 at Sun Dec 10 06:46:09 2023.
