 Gaussian 16, Revision A.03,
 Gaussian 16:  ES64L-G16RevA.03 25-Dec-2016

 ------------------
 #p CCSD(T)/CEP-31G
 ------------------

 ------------
 H2O_H2O_1853
 ------------
 Symbolic Z-matrix:
 Charge =  0 Multiplicity = 1

                         Standard orientation:
 ---------------------------------------------------------------------
 Center     Atomic      Atomic             Coordinates (Angstroms)
 Number     Number       Type             X           Y           Z
 ---------------------------------------------------------------------
      1          8           0        0.011143   -1.786311    0.000000
      2          1           0       -0.788734   -2.357014    0.000000
      3          1           0        0.810407   -2.357872    0.000000
      4          8           0        0.011143    1.788494    0.000000
      5          1           0        0.684312    2.504279    0.000000
      6          1           0       -0.884270    2.193143    0.000000
 ---------------------------------------------------------------------

 SCF Done:  E(RHF) =  -33.6453981726     A.U. after   11 cycles
 E2 =    -0.2288510111D+00 EUMP2 =    -0.33874249183709D+02
 CCSD(T)
 CCSD(T)= -0.33891450155D+02

 The electronic state is 1-A'.
 Alpha  occ. eigenvalues --   -1.33863  -1.33798  -0.69482  -0.69412  -0.53677
 Alpha  occ. eigenvalues --   -0.52677  -0.48394  -0.48229
 Alpha virt. eigenvalues --    0.21083   0.22134   0.31699   0.31975   0.77172
 Alpha virt. eigenvalues --    0.80997   0.83469   0.85752   0.91429   0.98535
 Alpha virt. eigenvalues --    1.18785   1.18867   1.23163   1.23589   2.58259

 Mulliken charges:
               1
     1  O   -0.719730
     2  H    0.358499
     3  H    0.361249
     4  O   -0.719395
     5  H    0.358102
     6  H    0.361275
 Sum of Mulliken charges =  -0.00000

 Dipole moment (field-independent basis, Debye):
    X=             -0.5064    Y=             -0.0538    Z=              0.0000  Tot=              0.5092
 Quadrupole moment (field-independent basis, Debye-Ang):
   XX=             -8.1985   YY=              6.5443   ZZ=            -14.9835
   XY=             -0.6089   XZ=              0.0000   YZ=              0.0000

 MP4DQ=-33.8857265\MP4SDQ=-33.8877895\CCSD=-33.8888502\CCSD(T)=-33.8914
 Normal termination of Gaussian 16 at Sun Dec 10 06:59:18 2023.
