 Gaussian 16, Revision A.03,
 Gaussian 16:  ES64L-G16RevA.03 25-Dec-2016

 ------------------
 #p CCSD(T)/CEP-31G
 ------------------

 ------------
 H2O_H2O_4211
 ------------
 Symbolic Z-matrix:
 Charge =  0 Multiplicity = 1

                         Standard orientation:
 ---------------------------------------------------------------------
 Center     Atomic      Atomic             Coordinates (Angstroms)
 Number     Number       Type             X           Y           Z
 ---------------------------------------------------------------------
      1          8           0        0.037673   -3.021960    0.000000
      2          1           0       -0.762508   -3.592238    0.000000
      3          1           0        0.836633   -3.593946    0.000000
      4          8           0        0.037673    3.050226    0.000000
      5          1           0        0.263270    4.006580    0.000000
      6          1           0       -0.940155    2.953476    0.000000
 ---------------------------------------------------------------------

 SCF Done:  E(RHF) =  -33.6508793331     A.U. after   11 cycles
 E2 =    -0.2284336404D+00 EUMP2 =    -0.33879312973583D+02
 CCSD(T)
 CCSD(T)= -0.33896339477D+02

 The electronic state is 1-A'.
 Alpha  occ. eigenvalues --   -1.35151  -1.34920  -0.70780  -0.70543  -0.54835
 Alpha  occ. eigenvalues --   -0.54604  -0.49709  -0.49479
 Alpha virt. eigenvalues --    0.20570   0.20804   0.30804   0.31031   0.80845
 Alpha virt. eigenvalues --    0.81072   0.83956   0.84185   0.87034   0.87304
 Alpha virt. eigenvalues --    1.17712   1.17940   1.22177   1.22407   2.57751

 Mulliken charges:
               1
     1  O   -0.737900
     2  H    0.367860
     3  H    0.370041
     4  O   -0.737596
     5  H    0.367092
     6  H    0.370504
 Sum of Mulliken charges =  -0.00000

 Dipole moment (field-independent basis, Debye):
    X=             -1.7381    Y=             -0.6620    Z=              0.0000  Tot=              1.8599
 Quadrupole moment (field-independent basis, Debye-Ang):
   XX=             -8.9595   YY=             17.0165   ZZ=            -14.9872
   XY=             -4.4559   XZ=              0.0000   YZ=              0.0000

 P4DQ=-33.8906882\MP4SDQ=-33.8927184\CCSD=-33.8937753\CCSD(T)=-33.89633
 Normal termination of Gaussian 16 at Sun Dec 10 06:55:54 2023.
