 Gaussian 16, Revision A.03,
 Gaussian 16:  ES64L-G16RevA.03 25-Dec-2016

 ------------------
 #p CCSD(T)/CEP-31G
 ------------------

 ------------
 H2O_H2O_3250
 ------------
 Symbolic Z-matrix:
 Charge =  0 Multiplicity = 1

                         Standard orientation:
 ---------------------------------------------------------------------
 Center     Atomic      Atomic             Coordinates (Angstroms)
 Number     Number       Type             X           Y           Z
 ---------------------------------------------------------------------
      1          8           0        0.000000   -0.000000    2.532067
      2          1           0        0.000000    0.799571    3.103199
      3          1           0       -0.000000   -0.799571    3.103199
      4          8           0        0.000000   -0.000000   -2.532067
      5          1           0       -0.000000   -0.799571   -3.103199
      6          1           0        0.000000    0.799571   -3.103199
 ---------------------------------------------------------------------

 SCF Done:  E(RHF) =  -33.6494537538     A.U. after   10 cycles
 E2 =    -0.2285101116D+00 EUMP2 =    -0.33877963865358D+02
 CCSD(T)
 CCSD(T)= -0.33895031459D+02

 The electronic state is 1-AG.
 Alpha  occ. eigenvalues --   -1.34658  -1.34658  -0.70283  -0.70282  -0.54279
 Alpha  occ. eigenvalues --   -0.54238  -0.49196  -0.49193
 Alpha virt. eigenvalues --    0.20948   0.21023   0.31206   0.31221   0.81332
 Alpha virt. eigenvalues --    0.81384   0.84070   0.85189   0.87564   0.87684
 Alpha virt. eigenvalues --    1.18145   1.18146   1.22615   1.22633   2.58211

 Mulliken charges:
               1
     1  O   -0.732929
     2  H    0.366465
     3  H    0.366465
     4  O   -0.732929
     5  H    0.366465
     6  H    0.366465
 Sum of Mulliken charges =  -0.00000

 Dipole moment (field-independent basis, Debye):
    X=             -0.0000    Y=              0.0000    Z=              0.0000  Tot=              0.0000
 Quadrupole moment (field-independent basis, Debye-Ang):
   XX=            -14.9856   YY=             -8.0564   ZZ=             14.7856
   XY=              0.0000   XZ=              0.0000   YZ=             -0.0000

 -33.8893687\MP4SDQ=-33.8914028\CCSD=-33.892462\CCSD(T)=-33.8950315\RMS
 Normal termination of Gaussian 16 at Sun Dec 10 06:38:22 2023.
