 Gaussian 16, Revision A.03,
 Gaussian 16:  ES64L-G16RevA.03 25-Dec-2016

 ------------------
 #p CCSD(T)/CEP-31G
 ------------------

 ------------
 H2O_H2O_2161
 ------------
 Symbolic Z-matrix:
 Charge =  0 Multiplicity = 1

                         Standard orientation:
 ---------------------------------------------------------------------
 Center     Atomic      Atomic             Coordinates (Angstroms)
 Number     Number       Type             X           Y           Z
 ---------------------------------------------------------------------
      1          8           0        0.037681   -1.931719    0.000000
      2          1           0       -0.762840   -2.501518    0.000000
      3          1           0        0.836299   -2.504182    0.000000
      4          8           0        0.037681    1.959940    0.000000
      5          1           0        0.263850    2.916159    0.000000
      6          1           0       -0.940205    1.863775    0.000000
 ---------------------------------------------------------------------

 SCF Done:  E(RHF) =  -33.6484163058     A.U. after   11 cycles
 E2 =    -0.2286945352D+00 EUMP2 =    -0.33877110840974D+02
 CCSD(T)
 CCSD(T)= -0.33894215188D+02

 The electronic state is 1-A'.
 Alpha  occ. eigenvalues --   -1.34574  -1.33992  -0.70200  -0.69587  -0.54174
 Alpha  occ. eigenvalues --   -0.53454  -0.49099  -0.48517
 Alpha virt. eigenvalues --    0.20670   0.21914   0.31238   0.31802   0.78652
 Alpha virt. eigenvalues --    0.81028   0.82444   0.86093   0.88278   0.95125
 Alpha virt. eigenvalues --    1.18187   1.18838   1.22664   1.23301   2.58022

 Mulliken charges:
               1
     1  O   -0.729584
     2  H    0.361178
     3  H    0.368545
     4  O   -0.727278
     5  H    0.358506
     6  H    0.368632
 Sum of Mulliken charges =  -0.00000

 Dipole moment (field-independent basis, Debye):
    X=             -1.7178    Y=             -0.6836    Z=              0.0000  Tot=              1.8488
 Quadrupole moment (field-independent basis, Debye-Ang):
   XX=             -8.9839   YY=              6.6724   ZZ=            -14.9857
   XY=             -2.6114   XZ=              0.0000   YZ=              0.0000

 \MP4DQ=-33.8885301\MP4SDQ=-33.8905777\CCSD=-33.891632\CCSD(T)=-33.8942
 Normal termination of Gaussian 16 at Sun Dec 10 07:06:18 2023.
