 Gaussian 16, Revision A.03,
 Gaussian 16:  ES64L-G16RevA.03 25-Dec-2016

 ------------------
 #p CCSD(T)/CEP-31G
 ------------------

 -----------
 H2O_H2O_480
 -----------
 Symbolic Z-matrix:
 Charge =  0 Multiplicity = 1

                         Standard orientation:
 ---------------------------------------------------------------------
 Center     Atomic      Atomic             Coordinates (Angstroms)
 Number     Number       Type             X           Y           Z
 ---------------------------------------------------------------------
      1          8           0        0.018363   -1.052958    0.000000
      2          1           0       -0.782062   -1.622893    0.000000
      3          1           0        0.817078   -1.625286    0.000000
      4          8           0        0.018363    1.058965    0.000000
      5          1           0        0.593110    1.855941    0.000000
      6          1           0       -0.921933    1.344181    0.000000
 ---------------------------------------------------------------------

 SCF Done:  E(RHF) =  -33.6068767143     A.U. after   11 cycles
 E2 =    -0.2316096033D+00 EUMP2 =    -0.33838486317582D+02
 CCSD(T)
 CCSD(T)= -0.33855752495D+02

 The electronic state is 1-A'.
 Alpha  occ. eigenvalues --   -1.33054  -1.30866  -0.68351  -0.66785  -0.57491
 Alpha  occ. eigenvalues --   -0.47957  -0.44591  -0.43248
 Alpha virt. eigenvalues --    0.21395   0.25679   0.32726   0.33285   0.79206
 Alpha virt. eigenvalues --    0.80302   0.90132   0.98107   1.00721   1.17216
 Alpha virt. eigenvalues --    1.20079   1.23193   1.25086   1.27543   2.49884

 Mulliken charges:
               1
     1  O   -0.706592
     2  H    0.342509
     3  H    0.360361
     4  O   -0.692641
     5  H    0.350807
     6  H    0.345556
 Sum of Mulliken charges =   0.00000

 Dipole moment (field-independent basis, Debye):
    X=             -0.7307    Y=             -0.1410    Z=              0.0000  Tot=              0.7442
 Quadrupole moment (field-independent basis, Debye-Ang):
   XX=             -8.5113   YY=             -2.9197   ZZ=            -15.0155
   XY=             -0.4599   XZ=              0.0000   YZ=              0.0000

 P4DQ=-33.8496263\MP4SDQ=-33.8518377\CCSD=-33.8528691\CCSD(T)=-33.85575
 Normal termination of Gaussian 16 at Sun Dec 10 06:33:44 2023.
