 Gaussian 16, Revision A.03,
 Gaussian 16:  ES64L-G16RevA.03 25-Dec-2016

 ------------------
 #p CCSD(T)/CEP-31G
 ------------------

 -----------
 H2O_H2O_313
 -----------
 Symbolic Z-matrix:
 Charge =  0 Multiplicity = 1

                         Standard orientation:
 ---------------------------------------------------------------------
 Center     Atomic      Atomic             Coordinates (Angstroms)
 Number     Number       Type             X           Y           Z
 ---------------------------------------------------------------------
      1          8           0        0.043014   -0.942191    0.000000
      2          1           0       -0.758746   -1.510245    0.000000
      3          1           0        0.840384   -1.516393    0.000000
      4          8           0        0.043014    0.980773    0.000000
      5          1           0        0.144567    1.958113    0.000000
      6          1           0       -0.914436    0.759876    0.000000
 ---------------------------------------------------------------------

 SCF Done:  E(RHF) =  -33.5859775396     A.U. after   11 cycles
 E2 =    -0.2330667397D+00 EUMP2 =    -0.33819044279276D+02
 CCSD(T)
 CCSD(T)= -0.33836233255D+02

 The electronic state is 1-A'.
 Alpha  occ. eigenvalues --   -1.35170  -1.30238  -0.70750  -0.67826  -0.57128
 Alpha  occ. eigenvalues --   -0.49877  -0.44177  -0.42796
 Alpha virt. eigenvalues --    0.20381   0.27354   0.31503   0.33458   0.80227
 Alpha virt. eigenvalues --    0.84590   0.89912   0.96911   0.98505   1.17816
 Alpha virt. eigenvalues --    1.19490   1.25150   1.26307   1.32528   2.53740

 Mulliken charges:
               1
     1  O   -0.755436
     2  H    0.345036
     3  H    0.387923
     4  O   -0.661773
     5  H    0.335591
     6  H    0.348659
 Sum of Mulliken charges =  -0.00000

 Dipole moment (field-independent basis, Debye):
    X=             -1.6579    Y=             -0.9460    Z=              0.0000  Tot=              1.9088
 Quadrupole moment (field-independent basis, Debye-Ang):
   XX=             -9.3765   YY=             -4.9523   ZZ=            -14.9937
   XY=             -1.3002   XZ=              0.0000   YZ=              0.0000

 P4DQ=-33.8299018\MP4SDQ=-33.8322805\CCSD=-33.8331998\CCSD(T)=-33.83623
 Normal termination of Gaussian 16 at Sun Dec 10 06:30:37 2023.
