 Gaussian 16, Revision A.03,
 Gaussian 16:  ES64L-G16RevA.03 25-Dec-2016

 ------------------
 #p CCSD(T)/CEP-31G
 ------------------

 ------------
 H2O_H2O_2876
 ------------
 Symbolic Z-matrix:
 Charge =  0 Multiplicity = 1

                         Standard orientation:
 ---------------------------------------------------------------------
 Center     Atomic      Atomic             Coordinates (Angstroms)
 Number     Number       Type             X           Y           Z
 ---------------------------------------------------------------------
      1          8           0        0.003735   -2.332496    0.000000
      2          1           0       -0.795914   -2.903518    0.000000
      3          1           0        0.803228   -2.903738    0.000000
      4          8           0        0.003735    2.332740    0.000000
      5          1           0        0.764327    2.954839    0.000000
      6          1           0       -0.831406    2.850470    0.000000
 ---------------------------------------------------------------------

 SCF Done:  E(RHF) =  -33.6488220047     A.U. after   10 cycles
 E2 =    -0.2285523429D+00 EUMP2 =    -0.33877374347609D+02
 CCSD(T)
 CCSD(T)= -0.33894460342D+02

 The electronic state is 1-A'.
 Alpha  occ. eigenvalues --   -1.34502  -1.34499  -0.70125  -0.70121  -0.54118
 Alpha  occ. eigenvalues --   -0.54006  -0.49034  -0.49022
 Alpha virt. eigenvalues --    0.21015   0.21203   0.31314   0.31358   0.81434
 Alpha virt. eigenvalues --    0.81611   0.83333   0.86435   0.87623   0.88027
 Alpha virt. eigenvalues --    1.18275   1.18279   1.22733   1.22791   2.58338

 Mulliken charges:
               1
     1  O   -0.730777
     2  H    0.365163
     3  H    0.365614
     4  O   -0.730765
     5  H    0.365098
     6  H    0.365667
 Sum of Mulliken charges =  -0.00000

 Dipole moment (field-independent basis, Debye):
    X=             -0.1716    Y=             -0.0058    Z=              0.0000  Tot=              0.1717
 Quadrupole moment (field-independent basis, Debye-Ang):
   XX=             -8.0754   YY=             12.6117   ZZ=            -14.9851
   XY=             -0.2899   XZ=              0.0000   YZ=              0.0000

 MP4DQ=-33.8887917\MP4SDQ=-33.8908281\CCSD=-33.8918879\CCSD(T)=-33.8944
 Normal termination of Gaussian 16 at Sun Dec 10 06:31:47 2023.
