 Gaussian 16, Revision A.03,
 Gaussian 16:  ES64L-G16RevA.03 25-Dec-2016

 ------------------
 #p CCSD(T)/CEP-31G
 ------------------

 ------------
 H2O_H2O_4670
 ------------
 Symbolic Z-matrix:
 Charge =  0 Multiplicity = 1

                         Standard orientation:
 ---------------------------------------------------------------------
 Center     Atomic      Atomic             Coordinates (Angstroms)
 Number     Number       Type             X           Y           Z
 ---------------------------------------------------------------------
      1          8           0        0.055228   -3.230746    0.000000
      2          1           0       -0.745170   -3.800718    0.000000
      3          1           0        0.853970   -3.803038    0.000000
      4          8           0        0.055228    3.315249    0.000000
      5          1           0       -0.288163    4.235895    0.000000
      6          1           0       -0.704292    2.691843    0.000000
 ---------------------------------------------------------------------

 SCF Done:  E(RHF) =  -33.6517555098     A.U. after   11 cycles
 E2 =    -0.2283858231D+00 EUMP2 =    -0.33880141332881D+02
 CCSD(T)
 CCSD(T)= -0.33897142422D+02

 The electronic state is 1-A'.
 Alpha  occ. eigenvalues --   -1.35566  -1.34983  -0.71199  -0.70605  -0.55299
 Alpha  occ. eigenvalues --   -0.54709  -0.50137  -0.49554
 Alpha virt. eigenvalues --    0.20204   0.20802   0.30443   0.31034   0.80415
 Alpha virt. eigenvalues --    0.80990   0.83442   0.84031   0.86553   0.87185
 Alpha virt. eigenvalues --    1.17335   1.17915   1.21793   1.22383   2.57352

 Mulliken charges:
               1
     1  O   -0.741014
     2  H    0.369280
     3  H    0.371734
     4  O   -0.740785
     5  H    0.367776
     6  H    0.373009
 Sum of Mulliken charges =   0.00000

 Dipole moment (field-independent basis, Debye):
    X=             -2.5496    Y=             -1.9748    Z=              0.0000  Tot=              3.2250
 Quadrupole moment (field-independent basis, Debye-Ang):
   XX=            -10.0207   YY=             11.5136   ZZ=            -14.9886
   XY=             -8.1364   XZ=              0.0000   YZ=              0.0000

 7\MP4DQ=-33.8914981\MP4SDQ=-33.8935258\CCSD=-33.8945812\CCSD(T)=-33.89
 Normal termination of Gaussian 16 at Sun Dec 10 07:05:44 2023.
