 Gaussian 16, Revision A.03,
 Gaussian 16:  ES64L-G16RevA.03 25-Dec-2016

 ------------------
 #p CCSD(T)/CEP-31G
 ------------------

 ------------
 H2O_H2O_3206
 ------------
 Symbolic Z-matrix:
 Charge =  0 Multiplicity = 1

                         Standard orientation:
 ---------------------------------------------------------------------
 Center     Atomic      Atomic             Coordinates (Angstroms)
 Number     Number       Type             X           Y           Z
 ---------------------------------------------------------------------
      1          8           0        0.021860   -2.500771    0.000000
      2          1           0       -0.778140   -3.071302    0.000000
      3          1           0        0.821001   -3.072503    0.000000
      4          8           0        0.021860    2.509433    0.000000
      5          1           0        0.542630    3.342682    0.000000
      6          1           0       -0.935244    2.731826    0.000000
 ---------------------------------------------------------------------

 SCF Done:  E(RHF) =  -33.6496182241     A.U. after   11 cycles
 E2 =    -0.2285078829D+00 EUMP2 =    -0.33878126107012D+02
 CCSD(T)
 CCSD(T)= -0.33895189100D+02

 The electronic state is 1-A'.
 Alpha  occ. eigenvalues --   -1.34734  -1.34629  -0.70358  -0.70250  -0.54348
 Alpha  occ. eigenvalues --   -0.54235  -0.49273  -0.49168
 Alpha virt. eigenvalues --    0.20900   0.21043   0.31148   0.31248   0.81271
 Alpha virt. eigenvalues --    0.81391   0.83967   0.85162   0.87522   0.87726
 Alpha virt. eigenvalues --    1.18077   1.18180   1.22554   1.22658   2.58146

 Mulliken charges:
               1
     1  O   -0.733524
     2  H    0.365677
     3  H    0.367848
     4  O   -0.733242
     5  H    0.365162
     6  H    0.368079
 Sum of Mulliken charges =   0.00000

 Dipole moment (field-independent basis, Debye):
    X=             -1.0055    Y=             -0.2046    Z=              0.0000  Tot=              1.0261
 Quadrupole moment (field-independent basis, Debye-Ang):
   XX=             -8.3630   YY=             13.7605   ZZ=            -14.9859
   XY=             -1.9229   XZ=              0.0000   YZ=              0.0000

 \MP4DQ=-33.8895275\MP4SDQ=-33.8915613\CCSD=-33.89262\CCSD(T)=-33.89518
 Normal termination of Gaussian 16 at Sun Dec 10 06:37:35 2023.
