 Gaussian 16, Revision A.03,
 Gaussian 16:  ES64L-G16RevA.03 25-Dec-2016

 ------------------
 #p CCSD(T)/CEP-31G
 ------------------

 -----------
 H2O_H2O_639
 -----------
 Symbolic Z-matrix:
 Charge =  0 Multiplicity = 1

                         Standard orientation:
 ---------------------------------------------------------------------
 Center     Atomic      Atomic             Coordinates (Angstroms)
 Number     Number       Type             X           Y           Z
 ---------------------------------------------------------------------
      1          8           0        0.045388   -1.111891    0.000000
      2          1           0       -0.756143   -1.680269    0.000000
      3          1           0        0.842989   -1.685769    0.000000
      4          8           0        0.045388    1.156269    0.000000
      5          1           0        0.082404    2.138173    0.000000
      6          1           0       -0.895451    0.872844    0.000000
 ---------------------------------------------------------------------

 SCF Done:  E(RHF) =  -33.6285309565     A.U. after   11 cycles
 E2 =    -0.2308954178D+00 EUMP2 =    -0.33859426374257D+02
 CCSD(T)
 CCSD(T)= -0.33876769174D+02

 The electronic state is 1-A'.
 Alpha  occ. eigenvalues --   -1.34238  -1.31482  -0.69862  -0.67689  -0.55303
 Alpha  occ. eigenvalues --   -0.48940  -0.48020  -0.45664
 Alpha virt. eigenvalues --    0.20282   0.25915   0.31562   0.33326   0.78737
 Alpha virt. eigenvalues --    0.83888   0.89428   0.94448   0.97828   1.14464
 Alpha virt. eigenvalues --    1.18948   1.22339   1.24091   1.31222   2.56630

 Mulliken charges:
               1
     1  O   -0.743595
     2  H    0.349011
     3  H    0.381587
     4  O   -0.683689
     5  H    0.338831
     6  H    0.357855
 Sum of Mulliken charges =   0.00000

 Dipole moment (field-independent basis, Debye):
    X=             -1.8818    Y=             -1.0930    Z=              0.0000  Tot=              2.1762
 Quadrupole moment (field-independent basis, Debye-Ang):
   XX=             -9.4515   YY=             -2.5413   ZZ=            -14.9963
   XY=             -1.7719   XZ=              0.0000   YZ=              0.0000

 P4DQ=-33.8707261\MP4SDQ=-33.8729304\CCSD=-33.87397\CCSD(T)=-33.8767692
 Normal termination of Gaussian 16 at Sun Dec 10 06:36:41 2023.
