 Gaussian 16, Revision A.03,
 Gaussian 16:  ES64L-G16RevA.03 25-Dec-2016

 ------------------
 #p CCSD(T)/CEP-31G
 ------------------

 -----------
 H2O_H2O_892
 -----------
 Symbolic Z-matrix:
 Charge =  0 Multiplicity = 1

                         Standard orientation:
 ---------------------------------------------------------------------
 Center     Atomic      Atomic             Coordinates (Angstroms)
 Number     Number       Type             X           Y           Z
 ---------------------------------------------------------------------
      1          8           0        0.051334   -1.234547    0.000000
      2          1           0       -0.750221   -1.802891    0.000000
      3          1           0        0.848911   -1.808460    0.000000
      4          8           0        0.051334    1.297895    0.000000
      5          1           0       -0.103879    2.268161    0.000000
      6          1           0       -0.816152    0.836405    0.000000
 ---------------------------------------------------------------------

 SCF Done:  E(RHF) =  -33.6424174503     A.U. after   11 cycles
 E2 =    -0.2301339714D+00 EUMP2 =    -0.33872551421688D+02
 CCSD(T)
 CCSD(T)= -0.33889806302D+02

 The electronic state is 1-A'.
 Alpha  occ. eigenvalues --   -1.34953  -1.31943  -0.70612  -0.67892  -0.54723
 Alpha  occ. eigenvalues --   -0.50747  -0.49545  -0.46384
 Alpha virt. eigenvalues --    0.19812   0.25505   0.30922   0.33611   0.77984
 Alpha virt. eigenvalues --    0.83055   0.88141   0.89169   0.93580   1.15980
 Alpha virt. eigenvalues --    1.19202   1.21591   1.22879   1.29936   2.63416

 Mulliken charges:
               1
     1  O   -0.744931
     2  H    0.354751
     3  H    0.384842
     4  O   -0.704354
     5  H    0.337969
     6  H    0.371721
 Sum of Mulliken charges =   0.00000

 Dipole moment (field-independent basis, Debye):
    X=             -2.2038    Y=             -1.6004    Z=              0.0000  Tot=              2.7236
 Quadrupole moment (field-independent basis, Debye-Ang):
   XX=             -9.7580   YY=             -1.7336   ZZ=            -14.9948
   XY=             -2.5772   XZ=              0.0000   YZ=              0.0000

 MP4DQ=-33.8838761\MP4SDQ=-33.8860397\CCSD=-33.8870815\CCSD(T)=-33.8898
 Normal termination of Gaussian 16 at Sun Dec 10 06:41:26 2023.
