 Gaussian 16, Revision A.03,
 Gaussian 16:  ES64L-G16RevA.03 25-Dec-2016

 ------------------
 #p CCSD(T)/CEP-31G
 ------------------

 ------------
 H2O_H2O_1808
 ------------
 Symbolic Z-matrix:
 Charge =  0 Multiplicity = 1

                         Standard orientation:
 ---------------------------------------------------------------------
 Center     Atomic      Atomic             Coordinates (Angstroms)
 Number     Number       Type             X           Y           Z
 ---------------------------------------------------------------------
      1          8           0        0.028567   -1.752636    0.000000
      2          1           0       -0.771801   -2.322651    0.000000
      3          1           0        0.827340   -2.324884    0.000000
      4          8           0        0.028567    1.767860    0.000000
      5          1           0        0.436700    2.661690    0.000000
      6          1           0       -0.949314    1.864054    0.000000
 ---------------------------------------------------------------------

 SCF Done:  E(RHF) =  -33.6461417135     A.U. after   11 cycles
 E2 =    -0.2288769055D+00 EUMP2 =    -0.33875018618992D+02
 CCSD(T)
 CCSD(T)= -0.33892204889D+02

 The electronic state is 1-A'.
 Alpha  occ. eigenvalues --   -1.34097  -1.33711  -0.69719  -0.69310  -0.53829
 Alpha  occ. eigenvalues --   -0.52770  -0.48607  -0.48190
 Alpha virt. eigenvalues --    0.20848   0.22287   0.31618   0.31967   0.76421
 Alpha virt. eigenvalues --    0.80762   0.83538   0.85404   0.90544   1.01236
 Alpha virt. eigenvalues --    1.18576   1.19089   1.23135   1.23523   2.58225

 Mulliken charges:
               1
     1  O   -0.722383
     2  H    0.357599
     3  H    0.364909
     4  O   -0.720138
     5  H    0.355559
     6  H    0.364454
 Sum of Mulliken charges =  -0.00000

 Dipole moment (field-independent basis, Debye):
    X=             -1.2951    Y=             -0.3750    Z=              0.0000  Tot=              1.3484
 Quadrupole moment (field-independent basis, Debye-Ang):
   XX=             -8.6264   YY=              5.5715   ZZ=            -14.9844
   XY=             -1.6384   XZ=              0.0000   YZ=              0.0000

 \MP4DQ=-33.886481\MP4SDQ=-33.888547\CCSD=-33.8896041\CCSD(T)=-33.89220
 Normal termination of Gaussian 16 at Sun Dec 10 06:58:29 2023.
