 Gaussian 16, Revision A.03,
 Gaussian 16:  ES64L-G16RevA.03 25-Dec-2016

 ------------------
 #p CCSD(T)/CEP-31G
 ------------------

 -----------
 H2O_H2O_988
 -----------
 Symbolic Z-matrix:
 Charge =  0 Multiplicity = 1

                         Standard orientation:
 ---------------------------------------------------------------------
 Center     Atomic      Atomic             Coordinates (Angstroms)
 Number     Number       Type             X           Y           Z
 ---------------------------------------------------------------------
      1          8           0        0.042994   -1.301134    0.000000
      2          1           0       -0.758172   -1.870026    0.000000
      3          1           0        0.840963   -1.874502    0.000000
      4          8           0        0.042994    1.339805    0.000000
      5          1           0        0.143525    2.317251    0.000000
      6          1           0       -0.914225    1.117908    0.000000
 ---------------------------------------------------------------------

 SCF Done:  E(RHF) =  -33.6408408780     A.U. after   11 cycles
 E2 =    -0.2298330338D+00 EUMP2 =    -0.33870673911797D+02
 CCSD(T)
 CCSD(T)= -0.33888032177D+02

 The electronic state is 1-A'.
 Alpha  occ. eigenvalues --   -1.34044  -1.32381  -0.69671  -0.68040  -0.54515
 Alpha  occ. eigenvalues --   -0.50383  -0.48629  -0.46736
 Alpha virt. eigenvalues --    0.20389   0.24505   0.31632   0.32875   0.78681
 Alpha virt. eigenvalues --    0.82730   0.84356   0.87701   0.94844   1.16083
 Alpha virt. eigenvalues --    1.18685   1.22477   1.23286   1.28270   2.58900

 Mulliken charges:
               1
     1  O   -0.726866
     2  H    0.350373
     3  H    0.372667
     4  O   -0.701833
     5  H    0.343430
     6  H    0.362229
 Sum of Mulliken charges =   0.00000

 Dipole moment (field-independent basis, Debye):
    X=             -1.8660    Y=             -0.9624    Z=              0.0000  Tot=              2.0996
 Quadrupole moment (field-independent basis, Debye-Ang):
   XX=             -9.3031   YY=             -0.1578   ZZ=            -14.9905
   XY=             -1.9566   XZ=              0.0000   YZ=              0.0000

 P4DQ=-33.8821449\MP4SDQ=-33.8842797\CCSD=-33.8853487\CCSD(T)=-33.88803
 Normal termination of Gaussian 16 at Sun Dec 10 06:43:14 2023.
